LAMMPS data file via write_data, version 23 Jun 2022, timestep = 10000

80 atoms
4 atom types

-4.8009992865660385 4.8009992865660385 xlo xhi
-4.8009992865660385 4.8009992865660385 ylo yhi
-0.1 0.1 zlo zhi

Atoms # sphere

11 1 1.6 0.2441406249999999 -4.1055244594437825 -4.334591077202654 0 0 0 0
57 3 1 1 -2.870547711191459 -4.679276180461021 0 0 1 0
68 4 0.7 2.915451895043732 -2.809017757924819 -3.9171451323896305 0 1 1 0
75 4 0.7 2.915451895043732 -1.9035384855491353 -4.263612064328859 0 0 0 0
31 2 1.3 0.4551661356395083 -1.0643866508145448 4.7728892285436535 0 0 0 0
41 3 1 1 -0.06989652978170025 -4.199793534698727 0 0 0 0
22 2 1.3 0.4551661356395083 0.9609276301423177 -3.7711101162023954 0 0 1 0
77 4 0.7 2.915451895043732 1.6063482422417845 -4.537548237777691 0 0 0 0
33 2 1.3 0.4551661356395083 2.5322849937475196 -4.114338600299879 0 0 0 0
79 4 0.7 2.915451895043732 3.5255190409398702 -4.160544643165808 0 0 0 0
62 4 0.7 2.915451895043732 3.402591698119495 4.799222614176792 0 -1 -1 0
26 2 1.3 0.4551661356395083 4.282191192109079 -3.7718042398138776 0 -1 0 0
48 3 1 1 -4.528672948032787 -3.1095156519489473 0 1 0 0
39 2 1.3 0.4551661356395083 -3.39187002929595 -3.2293175158055027 0 0 0 0
15 1 1.6 0.2441406249999999 -1.0493206645481608 -3.4334266971386254 0 0 0 0
12 1 1.6 0.2441406249999999 0.10987708053233991 -2.8480864810955584 0 0 0 0
72 4 0.7 2.915451895043732 1.7594921092589217 -3.4683734600314517 0 0 1 0
50 3 1 1 3.3651030857987587 -3.5059229277474913 0 0 1 0
42 3 1 1 4.229821901269166 -2.675117667786091 0 -1 0 0
10 1 1.6 0.2441406249999999 -3.604311118248435 -1.9912299404814084 0 0 0 0
38 2 1.3 0.4551661356395083 -2.24982861503136 -2.8915405208428018 0 0 0 0
30 2 1.3 0.4551661356395083 -0.8585586003035517 -2.0457471240155316 0 0 0 0
64 4 0.7 2.915451895043732 0.8001871019843261 -1.8308302711054258 0 0 0 0
29 2 1.3 0.4551661356395083 1.40592847960907 -2.4970584125623008 0 0 0 0
51 3 1 1 2.3463335241516887 -3.101099008424221 0 0 0 0
61 4 0.7 2.915451895043732 3.3034029371312537 -2.6440729006893866 0 0 0 0
54 3 1 1 -4.689575935582979 -1.9732322567352423 0 0 0 0
24 2 1.3 0.4551661356395083 3.7013529242855467 -1.7842436253640104 0 0 0 0
63 4 0.7 2.915451895043732 -3.8157249169271186 -0.9385136841019341 0 1 0 0
46 3 1 1 -4.6334832765104235 -0.9828259019103771 0 1 0 0
32 2 1.3 0.4551661356395083 -3.0614334117762634 -0.6824023914239907 0 0 0 0
7 1 1.6 0.2441406249999999 -2.0301311548714707 -1.509277657678302 0 0 0 0
43 3 1 1 -0.9461212841039734 -0.9904858549837674 0 0 0 0
76 4 0.7 2.915451895043732 0.1626783238949061 -1.6267311034931313 0 0 0 0
80 4 0.7 2.915451895043732 -0.18010735147673618 -1.3297981216080124 0 0 1 0
60 3 1 1 0.7526981555043486 -0.8485425790133929 0 0 0 0
23 2 1.3 0.4551661356395083 1.6877928450775794 -1.3533350876697443 0 0 0 0
34 2 1.3 0.4551661356395083 2.578068900089895 -2.1204562783927576 0 0 0 0
71 4 0.7 2.915451895043732 4.137657488714043 -0.8504400638690561 0 0 0 0
44 3 1 1 -4.062742794590266 -0.2131925055367745 0 1 0 0
13 1 1.6 0.2441406249999999 -1.6824678075051858 -0.04995420500100689 0 0 -1 0
27 2 1.3 0.4551661356395083 -0.10736537208600794 -0.40526149453578153 0 0 0 0
21 2 1.3 0.4551661356395083 1.6803943304513282 -0.20216193332736587 0 0 0 0
20 1 1.6 0.2441406249999999 3.052359503390883 -0.8054564437989149 0 0 0 0
9 1 1.6 0.2441406249999999 4.321751902101828 0.15264183408372034 0 0 0 0
49 3 1 1 -4.217707337949534 0.7202948721781031 0 0 0 0
8 1 1.6 0.2441406249999999 -2.999444586706459 0.7290945602324959 0 0 0 0
53 3 1 1 -2.019662728647108 1.1766094674476903 0 1 0 0
37 2 1.3 0.4551661356395083 -0.7146078021565065 0.7622525321998745 0 0 0 0
6 1 1.6 0.2441406249999999 0.7185461549430441 0.6881901702522439 0 0 0 0
5 1 1.6 0.2441406249999999 2.2464355317383804 1.0982756690375064 0 0 0 0
66 4 0.7 2.915451895043732 3.0420539676893474 0.338845038527146 0 0 0 0
55 3 1 1 3.376244500588462 0.9422528915510044 0 -1 0 0
47 3 1 1 4.58361959733729 1.476760772388011 0 -1 0 0
45 3 1 1 -4.026962819862464 1.692969310793151 0 0 0 0
58 3 1 1 -4.69572173527519 2.3202794422557593 0 0 0 0
70 4 0.7 2.915451895043732 -3.903992764937703 2.2922842174128037 0 0 1 0
28 2 1.3 0.4551661356395083 -2.9716585929244776 2.0270755973278813 0 0 -1 0
65 4 0.7 2.915451895043732 -1.3231593732309834 1.4408173789201895 0 0 0 0
19 1 1.6 0.2441406249999999 -1.8376615885447838 2.4122987606628117 0 0 0 0
18 1 1.6 0.2441406249999999 -0.19245394721047937 2.020296529671863 0 0 0 0
40 2 1.3 0.4551661356395083 1.2102082223044661 1.925993372185829 0 0 0 0
3 1 1.6 0.2441406249999999 2.230479865235443 2.646742384785102 0 -1 0 0
4 1 1.6 0.2441406249999999 3.694227521201321 2.270116751066525 0 0 0 0
25 2 1.3 0.4551661356395083 4.561534783881618 3.4585050474824355 0 0 0 0
73 4 0.7 2.915451895043732 -4.244447189656457 2.9724521063801337 0 0 -1 0
78 4 0.7 2.915451895043732 -3.639035198272795 3.1273103973400866 0 0 0 0
56 3 1 1 -2.8472103843335965 3.0666307582179106 0 0 0 0
17 1 1.6 0.2441406249999999 0.8413107919677998 3.155450679645332 0 0 0 0
16 1 1.6 0.2441406249999999 3.4438141533965725 3.610874430629594 0 0 0 0
67 4 0.7 2.915451895043732 -4.435178111120964 4.2229626866007886 0 1 -1 0
36 2 1.3 0.4551661356395083 -3.6209717136571378 3.960408148751907 0 1 -1 0
52 3 1 1 -2.55952215600967 3.8314745037778986 0 0 -1 0
59 3 1 1 -1.6631997047038203 3.819814090265491 0 0 0 0
74 4 0.7 2.915451895043732 -2.0602566304473084 4.505914843694648 0 0 0 0
2 1 1.6 0.2441406249999999 -0.6338809056220613 3.51803006895702 0 0 0 0
1 1 1.6 0.2441406249999999 0.5678333062450323 4.449485071753847 0 0 0 0
14 1 1.6 0.2441406249999999 1.9426628402652995 4.111838108373942 0 -1 -1 0
69 4 0.7 2.915451895043732 2.8579276190020044 4.515973936238857 0 0 0 0
35 2 1.3 0.4551661356395083 4.32811515281668 4.60683355938805 0 -1 -1 0

Velocities

11 -0.2108678992460341 0.0512968644047195 0 0 0 0
57 -0.21655188419165836 0.018361471524611008 0 0 0 0
68 0.05184980321324958 0.1517247320046422 0 0 0 0
75 -0.10441539760052733 0.06598124145968488 0 0 0 0
31 0.22959066569567319 -0.10758212343630659 0 0 0 0
41 0.22983874920525843 0.1276432822206311 0 0 0 0
22 -0.009336188741796725 0.033175708064835815 0 0 0 0
77 0.08325915423484831 0.057080718303366994 0 0 0 0
33 -0.16632703500569407 0.1440417963192626 0 0 0 0
79 -0.01679732338952389 -0.06514742873421764 0 0 0 0
62 0.1441333289629921 0.009677346722376612 0 0 0 0
26 0.15308086970984675 0.04220995515471676 0 0 0 0
48 0.04684082147194383 0.09385674709443986 0 0 0 0
39 -0.04590104897761761 0.051048426697781764 0 0 0 0
15 -0.16188383487790717 -0.06729587073453207 0 0 0 0
12 -0.04884353741660309 0.25251832098555127 0 0 0 0
72 -0.0305773887577859 -0.08238938448690916 0 0 0 0
50 0.14561201891306066 0.1504094373618591 0 0 0 0
42 -0.11939544391183278 0.06186016175090379 0 0 0 0
10 -0.17323630923342198 -0.12997381063053226 0 0 0 0
38 -0.16493850263466747 -0.11468405045740382 0 0 0 0
30 0.08471738670804742 -0.023787481823889504 0 0 0 0
64 -0.008816224264369453 0.03822274870948901 0 0 0 0
29 0.05578965057610853 0.10476349345489834 0 0 0 0
51 0.021733252924228886 -0.06394593700458195 0 0 0 0
61 0.04470644015833781 0.09697969509686993 0 0 0 0
54 0.002611642521070944 0.029264822413269328 0 0 0 0
24 -0.09261192736810907 -0.002032580201213202 0 0 0 0
63 0.003394708068380187 0.11030387951912989 0 0 0 0
46 -0.0015844851654315585 -0.06026665523863068 0 0 0 0
32 -0.13436835841320358 -0.019372646982270626 0 0 0 0
7 0.0562582299530388 -0.013008459838246663 0 0 0 0
43 -0.06812606571827191 0.03942463816468562 0 0 0 0
76 0.17250505224715465 -0.24973249341755274 0 0 0 0
80 0.1667317100478775 -0.04942419461920992 0 0 0 0
60 0.049787131114945926 0.004250837620816412 0 0 0 0
23 0.13615886769172622 0.14661303079081817 0 0 0 0
34 -0.024946140008643057 -0.27765013094027025 0 0 0 0
71 0.06994840914385292 0.011255699271396913 0 0 0 0
44 -0.00015122624676266403 -0.001268080037155039 0 0 0 0
13 -0.18372840930544723 0.19219192936680982 0 0 0 0
27 -0.16647637894937617 0.01024481525761642 0 0 0 0
21 0.02091264719839572 0.1982512302103408 0 0 0 0
20 -0.06800325531808672 -0.44178447536868165 0 0 0 0
9 0.17985519352091497 0.10721348092201081 0 0 0 0
49 0.11221732492493881 -0.04626035345143267 0 0 0 0
8 -0.06405439169508981 -0.018579947468285413 0 0 0 0
53 -0.05594918976807866 -0.1846585393969218 0 0 0 0
37 0.11964521309534519 0.016678281343496693 0 0 0 0
6 0.11835130974836125 0.054711935170194535 0 0 0 0
5 -0.05104887142909992 0.09889411403275152 0 0 0 0
66 0.1600934109276936 -0.06541973271868749 0 0 0 0
55 0.018057924236236225 -0.031156450746688664 0 0 0 0
47 -0.19607866470936294 0.024603536127204326 0 0 0 0
45 -0.023260671448953836 -0.11058742302330525 0 0 0 0
58 -0.1663630957933354 -0.21609677703242372 0 0 0 0
70 -0.24335038783272753 -0.007263025966380958 0 0 0 0
28 0.10528224156843045 -0.07069048861827067 0 0 0 0
65 -0.08710911591537 -0.2205487035044485 0 0 0 0
19 0.13884688680941557 0.09086191847329853 0 0 0 0
18 0.08678688052404826 0.017379127838106634 0 0 0 0
40 -0.04328287682020318 0.027827757729777355 0 0 0 0
3 0.09523698787030942 0.006439172795159738 0 0 0 0
4 0.0006631689612333616 -0.07566746739675563 0 0 0 0
25 0.2077289669765515 -0.10449310304643337 0 0 0 0
73 -0.0763132382823123 -0.08285793882011805 0 0 0 0
78 -0.10339991467322368 -0.02509816287424912 0 0 0 0
56 0.018362518259939998 0.14638538705103873 0 0 0 0
17 -0.1673917430061475 -0.2510562188538969 0 0 0 0
16 -0.13487866858139086 0.019811166128526236 0 0 0 0
67 0.12257725997654938 0.0054571063654571825 0 0 0 0
36 -0.006584216998996608 0.15896656921601507 0 0 0 0
52 0.07512790761413128 0.25176885859317266 0 0 0 0
59 -0.0735350399998927 0.04483533445885696 0 0 0 0
74 0.11028810313998985 0.054237447208726065 0 0 0 0
2 0.010304187775871764 -0.12991459000578828 0 0 0 0
1 0.017254680037880235 -0.014372710997758208 0 0 0 0
14 0.01417640560850749 -0.21361598486848482 0 0 0 0
69 -0.04680642743237938 0.10226370645856162 0 0 0 0
35 0.07697366779294401 0.11669549288405012 0 0 0 0
