LAMMPS data file.

     64 atoms
    143 bonds
      0 angles
      0 dihedrals
      0 impropers
      1 atom types
    143 bond types
      0 angle types
      0 dihedral types
      0 improper types
  -4.800999   4.800999 xlo xhi
  -4.800999   4.800999 ylo yhi
  -0.100000   0.100000 zlo zhi

Masses # ['atom_id', 'mass']

1 10000.0

Atoms # ['atomID', 'moleculeID', 'atomType', 'charge', 'x', 'y', 'z']

     11      1      1   0.000000  -4.105524  -4.334591   0.000000
     33      1      1   0.000000   2.532285  -4.114339   0.000000
     79      1      1   0.000000   3.525519  -4.160545   0.000000
     62      1      1   0.000000   3.402592   4.799223   0.000000
     26      1      1   0.000000   4.282191  -3.771804   0.000000
     48      1      1   0.000000  -4.528673  -3.109516   0.000000
     39      1      1   0.000000  -3.391870  -3.229318   0.000000
     15      1      1   0.000000  -1.049321  -3.433427   0.000000
     12      1      1   0.000000   0.109877  -2.848086   0.000000
     50      1      1   0.000000   3.365103  -3.505923   0.000000
     42      1      1   0.000000   4.229822  -2.675118   0.000000
     10      1      1   0.000000  -3.604311  -1.991230   0.000000
     38      1      1   0.000000  -2.249829  -2.891541   0.000000
     30      1      1   0.000000  -0.858559  -2.045747   0.000000
     29      1      1   0.000000   1.405928  -2.497058   0.000000
     51      1      1   0.000000   2.346334  -3.101099   0.000000
     54      1      1   0.000000  -4.689576  -1.973232   0.000000
     24      1      1   0.000000   3.701353  -1.784244   0.000000
     63      1      1   0.000000  -3.815725  -0.938514   0.000000
     46      1      1   0.000000  -4.633483  -0.982826   0.000000
     32      1      1   0.000000  -3.061433  -0.682402   0.000000
      7      1      1   0.000000  -2.030131  -1.509278   0.000000
     43      1      1   0.000000  -0.946121  -0.990486   0.000000
     80      1      1   0.000000  -0.180107  -1.329798   0.000000
     60      1      1   0.000000   0.752698  -0.848543   0.000000
     23      1      1   0.000000   1.687793  -1.353335   0.000000
     34      1      1   0.000000   2.578069  -2.120456   0.000000
     71      1      1   0.000000   4.137657  -0.850440   0.000000
     44      1      1   0.000000  -4.062743  -0.213193   0.000000
     13      1      1   0.000000  -1.682468  -0.049954   0.000000
     27      1      1   0.000000  -0.107365  -0.405261   0.000000
     21      1      1   0.000000   1.680394  -0.202162   0.000000
     20      1      1   0.000000   3.052360  -0.805456   0.000000
      9      1      1   0.000000   4.321752   0.152642   0.000000
     49      1      1   0.000000  -4.217707   0.720295   0.000000
      8      1      1   0.000000  -2.999445   0.729095   0.000000
     53      1      1   0.000000  -2.019663   1.176609   0.000000
     37      1      1   0.000000  -0.714608   0.762253   0.000000
      6      1      1   0.000000   0.718546   0.688190   0.000000
      5      1      1   0.000000   2.246436   1.098276   0.000000
     66      1      1   0.000000   3.042054   0.338845   0.000000
     55      1      1   0.000000   3.376245   0.942253   0.000000
     45      1      1   0.000000  -4.026963   1.692969   0.000000
     58      1      1   0.000000  -4.695722   2.320279   0.000000
     70      1      1   0.000000  -3.903993   2.292284   0.000000
     28      1      1   0.000000  -2.971659   2.027076   0.000000
     65      1      1   0.000000  -1.323159   1.440817   0.000000
     19      1      1   0.000000  -1.837662   2.412299   0.000000
     18      1      1   0.000000  -0.192454   2.020297   0.000000
     40      1      1   0.000000   1.210208   1.925993   0.000000
      3      1      1   0.000000   2.230480   2.646742   0.000000
     25      1      1   0.000000   4.561535   3.458505   0.000000
     73      1      1   0.000000  -4.244447   2.972452   0.000000
     78      1      1   0.000000  -3.639035   3.127310   0.000000
     56      1      1   0.000000  -2.847210   3.066631   0.000000
     17      1      1   0.000000   0.841311   3.155451   0.000000
     16      1      1   0.000000   3.443814   3.610874   0.000000
     67      1      1   0.000000  -4.435178   4.222963   0.000000
     36      1      1   0.000000  -3.620972   3.960408   0.000000
      2      1      1   0.000000  -0.633881   3.518030   0.000000
      1      1      1   0.000000   0.567833   4.449485   0.000000
     14      1      1   0.000000   1.942663   4.111838   0.000000
     69      1      1   0.000000   2.857928   4.515974   0.000000
     35      1      1   0.000000   4.328115   4.606834   0.000000

Bond Coeffs # ['bondID', 'bondCoeff', 'd']

      1   0.816131   1.106930
      2   0.617986   1.272069
      3   0.800495   1.117688
      4   0.497131   1.418288
      5   0.782211   1.130676
      6   0.998966   1.000518
      7   1.149571   0.932679
      8   1.119060   0.945308
      9   1.149571   0.932679
     10   0.700866   1.194490
     11   1.068139   0.967578
     12   1.203680   0.911474
     13   0.860239   1.078178
     14   0.576415   1.317141
     15   2.101793   0.689771
     16   0.689075   1.204666
     17   1.412727   0.841339
     18   0.509672   1.400730
     19   1.412727   0.841339
     20   0.659743   1.231155
     21   0.689075   1.204666
     22   1.110864   0.948789
     23   1.110864   0.948789
     24   0.568542   1.326229
     25   0.768751   1.140531
     26   0.505982   1.405829
     27   1.424684   0.837801
     28   0.765302   1.143098
     29   0.593286   1.298278
     30   0.817810   1.105793
     31   1.585619   0.794146
     32   0.641004   1.249021
     33   0.827480   1.099313
     34   1.802053   0.744931
     35   0.432577   1.520436
     36   0.485575   1.435066
     37   1.162710   0.927394
     38   0.395365   1.590380
     39   0.511725   1.397919
     40   0.602271   1.288558
     41   1.189405   0.916928
     42   0.833655   1.095234
     43   0.833655   1.095234
     44   1.703262   0.766230
     45   0.410162   1.561430
     46   1.116803   0.946262
     47   1.011481   0.994308
     48   1.366369   0.855492
     49   0.433340   1.519097
     50   0.633717   1.256182
     51   0.626397   1.263500
     52   0.500960   1.412857
     53   0.829556   1.097936
     54   0.632265   1.257623
     55   0.785845   1.128058
     56   0.595286   1.296096
     57   0.658992   1.231856
     58   1.043202   0.979075
     59   1.593325   0.792224
     60   0.563733   1.331874
     61   1.043202   0.979075
     62   0.399294   1.582536
     63   0.618754   1.271279
     64   0.618754   1.271279
     65   0.692414   1.201758
     66   0.940066   1.031385
     67   1.381842   0.850689
     68   1.064302   0.969321
     69   0.690923   1.203054
     70   0.555117   1.342170
     71   0.942301   1.030161
     72   2.671654   0.611801
     73   0.555117   1.342170
     74   0.444347   1.500165
     75   1.016207   0.991994
     76   2.338786   0.653890
     77   2.338786   0.653890
     78   0.727375   1.172521
     79   0.725049   1.174401
     80   0.697182   1.197642
     81   1.490997   0.818958
     82   1.575923   0.796586
     83   1.440137   0.833294
     84   0.891867   1.058888
     85   0.470001   1.458648
     86   1.017833   0.991201
     87   0.861889   1.077145
     88   0.417014   1.548549
     89   0.572309   1.321857
     90   1.089229   0.958165
     91   0.416366   1.549752
     92   0.754572   1.151197
     93   1.051783   0.975072
     94   0.582113   1.310679
     95   1.051783   0.975072
     96   0.558281   1.338362
     97   0.448562   1.493099
     98   0.606925   1.283608
     99   0.558281   1.338362
    100   0.847533   1.086230
    101   0.563722   1.331887
    102   0.571652   1.322617
    103   0.763632   1.144348
    104   0.456918   1.479383
    105   0.932022   1.035826
    106   0.667236   1.224222
    107   0.848807   1.085414
    108   0.577723   1.315649
    109   0.510486   1.399613
    110   0.939391   1.031756
    111   0.939391   1.031756
    112   0.538991   1.362101
    113   0.514658   1.393929
    114   0.514658   1.393929
    115   2.653303   0.613913
    116   0.554640   1.342747
    117   0.498962   1.415684
    118   0.424224   1.535332
    119   0.427105   1.530145
    120   2.201369   0.673990
    121   1.027877   0.986346
    122   0.399582   1.581966
    123   0.720694   1.177943
    124   1.589881   0.793081
    125   0.705044   1.190946
    126   0.885569   1.062646
    127   0.498071   1.416949
    128   0.867372   1.073735
    129   0.728256   1.171812
    130   0.592992   1.298600
    131   0.961479   1.019835
    132   0.532548   1.370316
    133   1.175387   0.922379
    134   0.826621   1.099883
    135   1.175387   0.922379
    136   0.640848   1.249173
    137   0.984871   1.007651
    138   0.956024   1.022741
    139   2.560788   0.624904
    140   1.096800   0.954853
    141   0.724078   1.175188
    142   0.673745   1.218295
    143   0.912274   1.046978

Bonds # ['ID', 'type', 'atom1', 'atom2']

         1         1        45        28
         2         2        13        53
         3         3        29        51
         4         4        21         5
         5         5        60        21
         6         6        14        69
         7         7        25        73
         8         8        62        35
         9         9        73        25
        10        10        43        13
        11        11        60        27
        12        12        37        65
        13        13        16        69
        14        14        15        38
        15        15        66        55
        16        16         9        49
        17        17        71        46
        18        18        15        30
        19        19        46        71
        20        20        29        34
        21        21        49         9
        22        22        48        42
        23        23        42        48
        24        24         5        40
        25        25         5        55
        26        26        18        40
        27        27        43        80
        28        28        48        39
        29        29         8        28
        30        30        32        44
        31        31        78        56
        32        32        53        19
        33        33        65        19
        34        34        53        65
        35        35         2         1
        36        36        37         6
        37        37        80        27
        38        38        20         9
        39        39        34        20
        40        40        30         7
        41        41        45        58
        42        42        11        67
        43        43        67        11
        44        44        63        44
        45        45        18         2
        46        46        44        49
        47        47        33        79
        48        48        67        36
        49        49        17         2
        50        50        39        10
        51        51        13        37
        52        52        32         8
        53        53        26        42
        54        54        12        30
        55        55        25        16
        56        56        11        48
        57        57         9        55
        58        58        42        54
        59        59        58        70
        60        60         6        40
        61        61        54        42
        62        62        16        14
        63        63         9        44
        64        64        44         9
        65        65         7        43
        66        66        33        50
        67        67        79        26
        68        68        70        28
        69        69        19        56
        70        70        35        11
        71        71        33        51
        72        72        45        70
        73        73        11        35
        74        74         7        13
        75        75        54        46
        76        76        79        62
        77        77        62        79
        78        78        24        34
        79        79        24        20
        80        80        28        19
        81        81        63        46
        82        82        63        32
        83        83        78        36
        84        84        30        43
        85        85        17        14
        86        86        49        45
        87        87         8        53
        88        88         5         3
        89        89        32         7
        90        90        46        44
        91        91         3        16
        92        92        23        21
        93        93        25        67
        94        94        21         6
        95        95        67        25
        96        96        11        26
        97        97         3        14
        98        98        40        17
        99        99        26        11
       100       100        71        20
       101       101        16        35
       102       102        17         1
       103       103        20        66
       104       104         3        17
       105       105        42        24
       106       106        26        35
       107       107        10        54
       108       108        11        39
       109       109        38         7
       110       110        48        26
       111       111        26        48
       112       112        37        18
       113       113        11        36
       114       114        36        11
       115       115        62        69
       116       116        12        29
       117       117         1        14
       118       118        18        17
       119       119        13         8
       120       120        79        50
       121       121        30        80
       122       122         6         5
       123       123        29        23
       124       124        58        73
       125       125        39        38
       126       126        60        23
       127       127        10        32
       128       128        10        63
       129       129        25        35
       130       130        15        12
       131       131        71         9
       132       132        27         6
       133       133        67        35
       134       134         5        66
       135       135        35        67
       136       136        40         3
       137       137        51        34
       138       138        43        27
       139       139        73        78
       140       140        26        50
       141       141        23        34
       142       142        49         8
       143       143        28        56
