ITEM: TIMESTEP
0
ITEM: NUMBER OF ATOMS
80
ITEM: BOX BOUNDS pp pp pp
-1.0000000000000000e+01 1.0000000000000000e+01
-1.0000000000000000e+01 1.0000000000000000e+01
-1.0000000000000001e-01 1.0000000000000001e-01
ITEM: ATOMS id type xs ys zs
13 1 0.094128 0.010073 0.5
12 1 0.256919 0.030745 0.5
73 4 0.227646 0.0479945 0.5
36 2 0.734576 0.010861 0.5
26 2 0.281375 0.0674636 0.5
54 3 0.310412 0.0966454 0.5
41 3 0.343136 0.093532 0.5
52 3 0.41745 0.079963 0.5
27 2 0.611358 0.102222 0.5
43 3 0.713994 0.0928765 0.5
11 1 0.481355 0.134245 0.5
9 1 0.732976 0.132464 0.5
14 1 0.0842014 0.1728 0.5
28 2 0.188029 0.200471 0.5
64 4 0.191421 0.208809 0.5
65 4 0.408887 0.168763 0.5
51 3 0.514081 0.161866 0.5
63 4 0.804972 0.165239 0.5
67 4 0.981803 0.16414 0.5
32 2 0.121331 0.215326 0.5
7 1 0.16209 0.252873 0.5
76 4 0.221529 0.242248 0.5
62 4 0.267045 0.229428 0.5
38 2 0.335411 0.247406 0.5
29 2 0.479695 0.231415 0.5
77 4 0.506291 0.239003 0.5
34 2 0.587925 0.255176 0.5
48 3 0.623563 0.231251 0.5
44 3 0.863048 0.242691 0.5
33 2 0.957593 0.258179 0.5
42 3 0.0320915 0.361477 0.5
75 4 0.0162036 0.334625 0.5
15 1 0.34803 0.331995 0.5
79 4 0.624998 0.344662 0.5
80 4 0.615419 0.350095 0.5
39 2 0.716747 0.361605 0.5
21 2 0.978422 0.334751 0.5
8 1 0.0470263 0.371061 0.5
60 3 0.188336 0.368997 0.5
37 2 0.456143 0.393631 0.5
55 3 0.13366 0.431327 0.5
30 2 0.227253 0.444957 0.5
5 1 0.665406 0.47337 0.5
46 3 0.741207 0.470279 0.5
71 4 0.948799 0.464349 0.5
45 3 0.157406 0.514691 0.5
19 1 0.351551 0.515179 0.5
59 3 0.625007 0.48718 0.5
69 4 0.778039 0.505658 0.5
58 3 0.119868 0.616273 0.5
35 2 0.332756 0.626426 0.5
24 2 0.931135 0.580602 0.5
3 1 0.0206878 0.700495 0.5
20 1 0.598781 0.711119 0.5
72 4 0.701536 0.720023 0.5
61 4 0.761688 0.689589 0.5
49 3 0.104286 0.737083 0.5
2 1 0.117735 0.766994 0.5
17 1 0.160276 0.757214 0.5
6 1 0.487044 0.741227 0.5
18 1 0.50775 0.748468 0.5
47 3 0.0311059 0.796372 0.5
10 1 0.385126 0.816861 0.5
68 4 0.616101 0.807696 0.5
66 4 0.718916 0.827531 0.5
23 2 0.788171 0.798234 0.5
57 3 0.233823 0.857849 0.5
40 2 0.478543 0.87491 0.5
1 1 0.548158 0.885057 0.5
16 1 0.77342 0.864561 0.5
53 3 0.827385 0.866838 0.5
25 2 0.909377 0.894618 0.5
78 4 0.433088 0.912241 0.5
22 2 0.6026 0.905614 0.5
4 1 0.994462 0.929036 0.5
70 4 0.22324 0.999803 0.5
31 2 0.577378 0.991873 0.5
50 3 0.687925 0.963772 0.5
56 3 0.833461 0.980319 0.5
74 4 0.987266 0.980325 0.5
ITEM: TIMESTEP
10
ITEM: NUMBER OF ATOMS
80
ITEM: BOX BOUNDS pp pp pp
-9.2468661695790999e+00 9.2468661695790999e+00
-9.2468661695790999e+00 9.2468661695790999e+00
-1.0000000000000001e-01 1.0000000000000001e-01
ITEM: ATOMS id type xs ys zs
13 1 0.094128 0.010073 0.5
12 1 0.256969 0.0306421 0.5
73 4 0.22757 0.0480393 0.5
36 2 0.734576 0.010861 0.5
26 2 0.28139 0.0675083 0.5
54 3 0.310392 0.0966957 0.5
41 3 0.343201 0.0935259 0.5
52 3 0.41745 0.079963 0.5
27 2 0.611358 0.102222 0.5
43 3 0.713959 0.0928045 0.5
11 1 0.481291 0.134191 0.5
9 1 0.733011 0.132536 0.5
14 1 0.0841606 0.172754 0.5
28 2 0.187996 0.200282 0.5
64 4 0.191489 0.208933 0.5
65 4 0.408887 0.168763 0.5
51 3 0.514145 0.16192 0.5
63 4 0.804972 0.165239 0.5
67 4 0.981803 0.16414 0.5
32 2 0.121324 0.215329 0.5
7 1 0.162104 0.252983 0.5
76 4 0.221529 0.242248 0.5
62 4 0.267045 0.229428 0.5
38 2 0.335411 0.247406 0.5
29 2 0.479614 0.231392 0.5
77 4 0.506372 0.239026 0.5
34 2 0.587879 0.255207 0.5
48 3 0.62361 0.231219 0.5
44 3 0.863048 0.242691 0.5
33 2 0.957593 0.258179 0.5
42 3 0.0319666 0.36142 0.5
75 4 0.0162038 0.334558 0.5
15 1 0.34803 0.331995 0.5
79 4 0.625075 0.344618 0.5
80 4 0.615342 0.350139 0.5
39 2 0.716747 0.361605 0.5
21 2 0.978375 0.334752 0.5
8 1 0.0471982 0.371185 0.5
60 3 0.188336 0.368997 0.5
37 2 0.456143 0.393631 0.5
55 3 0.13366 0.431327 0.5
30 2 0.227253 0.444957 0.5
5 1 0.665485 0.473343 0.5
46 3 0.741207 0.470279 0.5
71 4 0.948799 0.464349 0.5
45 3 0.157406 0.514691 0.5
19 1 0.351551 0.515179 0.5
59 3 0.624927 0.487208 0.5
69 4 0.778039 0.505658 0.5
58 3 0.119868 0.616273 0.5
35 2 0.332756 0.626426 0.5
24 2 0.931135 0.580602 0.5
3 1 0.0206878 0.700495 0.5
20 1 0.598781 0.711119 0.5
72 4 0.701536 0.720023 0.5
61 4 0.761688 0.689589 0.5
49 3 0.104215 0.736965 0.5
2 1 0.117651 0.767134 0.5
17 1 0.16043 0.757191 0.5
6 1 0.486841 0.741156 0.5
18 1 0.507952 0.748539 0.5
47 3 0.0311059 0.796372 0.5
10 1 0.385126 0.816861 0.5
68 4 0.616101 0.807696 0.5
66 4 0.718916 0.827531 0.5
23 2 0.788176 0.798214 0.5
57 3 0.233823 0.857849 0.5
40 2 0.478532 0.874908 0.5
1 1 0.548117 0.885039 0.5
16 1 0.773372 0.864579 0.5
53 3 0.827429 0.86684 0.5
25 2 0.909377 0.894618 0.5
78 4 0.433088 0.912241 0.5
22 2 0.602653 0.905634 0.5
4 1 0.994466 0.929012 0.5
70 4 0.223207 0.999773 0.5
31 2 0.577378 0.991873 0.5
50 3 0.687925 0.963772 0.5
56 3 0.833461 0.980319 0.5
74 4 0.987263 0.980349 0.5
ITEM: TIMESTEP
20
ITEM: NUMBER OF ATOMS
80
ITEM: BOX BOUNDS pp pp pp
-8.3154299027198988e+00 8.3154299027198988e+00
-8.3154299027198988e+00 8.3154299027198988e+00
-1.0000000000000001e-01 1.0000000000000001e-01
ITEM: ATOMS id type xs ys zs
13 1 0.094128 0.010073 0.5
12 1 0.257166 0.0302696 0.5
73 4 0.227289 0.048205 0.5
36 2 0.734576 0.0108615 0.5
26 2 0.281441 0.0676688 0.5
54 3 0.310318 0.0968892 0.5
41 3 0.343443 0.0935026 0.5
52 3 0.41745 0.079963 0.5
27 2 0.611358 0.102222 0.5
43 3 0.713829 0.0925326 0.5
11 1 0.48105 0.133988 0.5
9 1 0.733141 0.132808 0.5
14 1 0.0839989 0.172568 0.5
28 2 0.187906 0.199579 0.5
64 4 0.191741 0.209348 0.5
65 4 0.408887 0.168763 0.5
51 3 0.514386 0.162123 0.5
63 4 0.804972 0.165239 0.5
67 4 0.981803 0.16414 0.5
32 2 0.121277 0.215343 0.5
7 1 0.162127 0.253437 0.5
76 4 0.221552 0.242252 0.5
62 4 0.267045 0.229428 0.5
38 2 0.335411 0.247406 0.5
29 2 0.47932 0.231308 0.5
77 4 0.506666 0.23911 0.5
34 2 0.587698 0.255328 0.5
48 3 0.62379 0.231098 0.5
44 3 0.863048 0.242691 0.5
33 2 0.957593 0.258179 0.5
42 3 0.0315482 0.361239 0.5
75 4 0.0162009 0.334293 0.5
15 1 0.34803 0.331995 0.5
79 4 0.62535 0.344462 0.5
80 4 0.615067 0.350295 0.5
39 2 0.716747 0.361605 0.5
21 2 0.978162 0.334737 0.5
8 1 0.0478325 0.371645 0.5
60 3 0.188336 0.368997 0.5
37 2 0.456143 0.393631 0.5
55 3 0.13366 0.431327 0.5
30 2 0.227253 0.444957 0.5
5 1 0.665784 0.47324 0.5
46 3 0.741208 0.470279 0.5
71 4 0.948799 0.464349 0.5
45 3 0.157406 0.514691 0.5
19 1 0.351551 0.515179 0.5
59 3 0.624628 0.48731 0.5
69 4 0.778039 0.505658 0.5
58 3 0.119868 0.616273 0.5
35 2 0.332756 0.626426 0.5
24 2 0.931135 0.580602 0.5
3 1 0.0206878 0.700495 0.5
20 1 0.598781 0.711119 0.5
72 4 0.701536 0.720023 0.5
61 4 0.761688 0.689589 0.5
49 3 0.103934 0.736529 0.5
2 1 0.117345 0.767646 0.5
17 1 0.161018 0.757116 0.5
6 1 0.486122 0.740904 0.5
18 1 0.508672 0.748791 0.5
47 3 0.0311059 0.796372 0.5
10 1 0.385126 0.816861 0.5
68 4 0.616101 0.807696 0.5
66 4 0.718916 0.827531 0.5
23 2 0.788199 0.798111 0.5
57 3 0.233823 0.857849 0.5
40 2 0.478456 0.874897 0.5
1 1 0.547983 0.884971 0.5
16 1 0.773172 0.864675 0.5
53 3 0.827607 0.866848 0.5
25 2 0.909377 0.894618 0.5
78 4 0.433088 0.912241 0.5
22 2 0.602862 0.905713 0.5
4 1 0.994481 0.928904 0.5
70 4 0.223071 0.999649 0.5
31 2 0.577378 0.991873 0.5
50 3 0.687925 0.963772 0.5
56 3 0.833461 0.980319 0.5
74 4 0.987248 0.980457 0.5
ITEM: TIMESTEP
30
ITEM: NUMBER OF ATOMS
80
ITEM: BOX BOUNDS pp pp pp
-7.6126516929768586e+00 7.6126516929768586e+00
-7.6126516929768586e+00 7.6126516929768586e+00
-1.0000000000000001e-01 1.0000000000000001e-01
ITEM: ATOMS id type xs ys zs
13 1 0.094128 0.010073 0.5
12 1 0.257581 0.0295346 0.5
73 4 0.22671 0.0485313 0.5
36 2 0.734592 0.0108779 0.5
26 2 0.28153 0.0679818 0.5
54 3 0.310178 0.0972938 0.5
41 3 0.343952 0.0934602 0.5
52 3 0.41745 0.0799628 0.5
27 2 0.611358 0.102222 0.5
43 3 0.713562 0.091977 0.5
11 1 0.480562 0.133575 0.5
9 1 0.733408 0.133363 0.5
14 1 0.0836533 0.172172 0.5
28 2 0.187793 0.198147 0.5
64 4 0.19225 0.210097 0.5
65 4 0.408887 0.168763 0.5
51 3 0.514875 0.162535 0.5
63 4 0.804972 0.165239 0.5
67 4 0.981803 0.16414 0.5
32 2 0.121129 0.215389 0.5
7 1 0.162108 0.254444 0.5
76 4 0.221669 0.242278 0.5
62 4 0.267045 0.229428 0.5
38 2 0.335408 0.247389 0.5
29 2 0.478735 0.231141 0.5
77 4 0.507252 0.239277 0.5
34 2 0.587321 0.255582 0.5
48 3 0.624168 0.230845 0.5
44 3 0.863048 0.242691 0.5
33 2 0.957591 0.258173 0.5
42 3 0.0308075 0.360946 0.5
75 4 0.016191 0.333723 0.5
15 1 0.348032 0.332012 0.5
79 4 0.625881 0.344161 0.5
80 4 0.614536 0.350595 0.5
39 2 0.716747 0.361605 0.5
21 2 0.977622 0.334667 0.5
8 1 0.0491241 0.372584 0.5
60 3 0.188336 0.368997 0.5
37 2 0.456143 0.393631 0.5
55 3 0.13366 0.431327 0.5
30 2 0.227253 0.444957 0.5
5 1 0.66637 0.473033 0.5
46 3 0.741226 0.470274 0.5
71 4 0.948799 0.464349 0.5
45 3 0.157406 0.514691 0.5
19 1 0.351551 0.515179 0.5
59 3 0.624019 0.487518 0.5
69 4 0.778043 0.505662 0.5
58 3 0.119868 0.616273 0.5
35 2 0.332756 0.626426 0.5
24 2 0.931135 0.580602 0.5
3 1 0.0206878 0.700495 0.5
20 1 0.598788 0.711117 0.5
72 4 0.701536 0.720023 0.5
61 4 0.761688 0.689589 0.5
49 3 0.10334 0.735651 0.5
2 1 0.116731 0.76866 0.5
17 1 0.162227 0.756978 0.5
6 1 0.484739 0.74042 0.5
18 1 0.510048 0.749277 0.5
47 3 0.0311059 0.796372 0.5
10 1 0.385126 0.816861 0.5
68 4 0.616101 0.807696 0.5
66 4 0.718893 0.827515 0.5
23 2 0.788258 0.797849 0.5
57 3 0.233823 0.857849 0.5
40 2 0.478249 0.874857 0.5
1 1 0.547746 0.884831 0.5
16 1 0.772742 0.864937 0.5
53 3 0.828 0.866864 0.5
25 2 0.909376 0.894618 0.5
78 4 0.433078 0.912249 0.5
22 2 0.603316 0.905884 0.5
4 1 0.994518 0.928647 0.5
70 4 0.222777 0.999382 0.5
31 2 0.577378 0.991873 0.5
50 3 0.687909 0.963755 0.5
56 3 0.833461 0.980319 0.5
74 4 0.987211 0.980714 0.5
ITEM: TIMESTEP
40
ITEM: NUMBER OF ATOMS
80
ITEM: BOX BOUNDS pp pp pp
-7.1093522258547290e+00 7.1093522258547290e+00
-7.1093522258547290e+00 7.1093522258547290e+00
-1.0000000000000001e-01 1.0000000000000001e-01
ITEM: ATOMS id type xs ys zs
13 1 0.094128 0.010073 0.5
12 1 0.258281 0.0283464 0.5
73 4 0.225733 0.0490474 0.5
36 2 0.734658 0.0109445 0.5
26 2 0.281649 0.0684752 0.5
54 3 0.309962 0.0979809 0.5
41 3 0.344835 0.0934062 0.5
52 3 0.417433 0.0799491 0.5
27 2 0.611358 0.102222 0.5
43 3 0.713124 0.0910638 0.5
11 1 0.479777 0.132911 0.5
9 1 0.733844 0.134276 0.5
14 1 0.0830649 0.171496 0.5
28 2 0.187699 0.195791 0.5
64 4 0.19306 0.211196 0.5
65 4 0.408887 0.168763 0.5
51 3 0.515676 0.16321 0.5
63 4 0.804973 0.16524 0.5
67 4 0.981803 0.16414 0.5
32 2 0.120817 0.215488 0.5
7 1 0.161994 0.256198 0.5
76 4 0.221966 0.242358 0.5
62 4 0.267046 0.229427 0.5
38 2 0.335395 0.2473 0.5
29 2 0.477793 0.230876 0.5
77 4 0.508193 0.239546 0.5
34 2 0.586688 0.256007 0.5
48 3 0.624801 0.23042 0.5
44 3 0.863048 0.242691 0.5
33 2 0.957578 0.258123 0.5
42 3 0.0297359 0.360564 0.5
75 4 0.0161756 0.33275 0.5
15 1 0.348045 0.332101 0.5
79 4 0.626714 0.343689 0.5
80 4 0.613704 0.351068 0.5
39 2 0.716747 0.361605 0.5
21 2 0.976604 0.334533 0.5
8 1 0.0512426 0.374122 0.5
60 3 0.188336 0.368997 0.5
37 2 0.456143 0.393631 0.5
55 3 0.13366 0.431327 0.5
30 2 0.227253 0.444957 0.5
5 1 0.667263 0.472697 0.5
46 3 0.741299 0.470242 0.5
71 4 0.948799 0.464349 0.5
45 3 0.157406 0.514691 0.5
19 1 0.351551 0.515179 0.5
59 3 0.623024 0.487858 0.5
69 4 0.778073 0.505691 0.5
58 3 0.119868 0.616273 0.5
35 2 0.332756 0.626426 0.5
24 2 0.931135 0.580602 0.5
3 1 0.0206873 0.700495 0.5
20 1 0.598852 0.711089 0.5
72 4 0.701536 0.720023 0.5
61 4 0.761688 0.689589 0.5
49 3 0.10235 0.734227 0.5
2 1 0.115735 0.770296 0.5
17 1 0.164214 0.756767 0.5
6 1 0.482573 0.739663 0.5
18 1 0.51215 0.750062 0.5
47 3 0.0311054 0.796372 0.5
10 1 0.385126 0.816861 0.5
68 4 0.616101 0.807696 0.5
66 4 0.718808 0.827456 0.5
23 2 0.788371 0.797353 0.5
57 3 0.233823 0.857849 0.5
40 2 0.477864 0.874752 0.5
1 1 0.547405 0.8846 0.5
16 1 0.772033 0.865466 0.5
53 3 0.828682 0.86689 0.5
25 2 0.909351 0.894607 0.5
78 4 0.433027 0.912292 0.5
22 2 0.604094 0.906178 0.5
4 1 0.994609 0.928189 0.5
70 4 0.222268 0.998928 0.5
31 2 0.577378 0.991873 0.5
50 3 0.687843 0.963689 0.5
56 3 0.833461 0.980319 0.5
74 4 0.987146 0.981183 0.5
ITEM: TIMESTEP
50
ITEM: NUMBER OF ATOMS
80
ITEM: BOX BOUNDS pp pp pp
-6.7550327081460129e+00 6.7550327081460129e+00
-6.7550327081460129e+00 6.7550327081460129e+00
-1.0000000000000001e-01 1.0000000000000001e-01
ITEM: ATOMS id type xs ys zs
13 1 0.094128 0.010073 0.5
12 1 0.259298 0.0266272 0.5
73 4 0.2243 0.0497666 0.5
36 2 0.734806 0.0110913 0.5
26 2 0.281773 0.0691615 0.5
54 3 0.309687 0.099023 0.5
41 3 0.346168 0.0933462 0.5
52 3 0.417363 0.079889 0.5
27 2 0.611358 0.102222 0.5
43 3 0.712495 0.0897533 0.5
11 1 0.478712 0.131966 0.5
9 1 0.73445 0.135578 0.5
14 1 0.0821952 0.170493 0.5
28 2 0.187663 0.192412 0.5
64 4 0.194176 0.212611 0.5
65 4 0.408876 0.168769 0.5
51 3 0.516836 0.164156 0.5
63 4 0.804996 0.16525 0.5
67 4 0.981803 0.16414 0.5
32 2 0.120296 0.215662 0.5
7 1 0.161747 0.258825 0.5
76 4 0.222506 0.242529 0.5
62 4 0.26706 0.229421 0.5
38 2 0.335366 0.247086 0.5
29 2 0.47645 0.230549 0.5
77 4 0.509522 0.239925 0.5
34 2 0.585765 0.256626 0.5
48 3 0.625724 0.2298 0.5
44 3 0.863048 0.242691 0.5
33 2 0.957542 0.257979 0.5
42 3 0.0283566 0.360136 0.5
75 4 0.0161647 0.331311 0.5
15 1 0.348077 0.332316 0.5
79 4 0.627868 0.343035 0.5
80 4 0.61255 0.351722 0.5
39 2 0.716747 0.361605 0.5
21 2 0.975006 0.334353 0.5
8 1 0.0542668 0.376314 0.5
60 3 0.188336 0.368997 0.5
37 2 0.456143 0.393631 0.5
55 3 0.13366 0.431327 0.5
30 2 0.227253 0.444957 0.5
5 1 0.668449 0.472217 0.5
46 3 0.741462 0.470158 0.5
71 4 0.948799 0.464349 0.5
45 3 0.157406 0.514691 0.5
19 1 0.351551 0.515179 0.5
59 3 0.621597 0.488346 0.5
69 4 0.778151 0.505766 0.5
58 3 0.119868 0.616273 0.5
35 2 0.332756 0.626426 0.5
24 2 0.931135 0.580602 0.5
3 1 0.0206651 0.700486 0.5
20 1 0.599038 0.711006 0.5
72 4 0.701536 0.720023 0.5
61 4 0.761688 0.689589 0.5
49 3 0.10095 0.732209 0.5
2 1 0.114334 0.772611 0.5
17 1 0.167057 0.756472 0.5
6 1 0.47958 0.738615 0.5
18 1 0.514956 0.751193 0.5
47 3 0.0310838 0.796378 0.5
10 1 0.385126 0.816861 0.5
68 4 0.616101 0.807696 0.5
66 4 0.718621 0.827324 0.5
23 2 0.788548 0.796565 0.5
57 3 0.233823 0.857849 0.5
40 2 0.477269 0.874547 0.5
1 1 0.546967 0.884265 0.5
16 1 0.771021 0.866344 0.5
53 3 0.829703 0.866931 0.5
25 2 0.909253 0.894569 0.5
78 4 0.432904 0.912394 0.5
22 2 0.605253 0.906603 0.5
4 1 0.994808 0.927505 0.5
70 4 0.221502 0.998259 0.5
31 2 0.577374 0.991886 0.5
50 3 0.687696 0.96354 0.5
56 3 0.833461 0.980319 0.5
74 4 0.987044 0.981906 0.5
ITEM: TIMESTEP
60
ITEM: NUMBER OF ATOMS
80
ITEM: BOX BOUNDS pp pp pp
-6.4948607745209248e+00 6.4948607745209248e+00
-6.4948607745209248e+00 6.4948607745209248e+00
-1.0000000000000001e-01 1.0000000000000001e-01
ITEM: ATOMS id type xs ys zs
13 1 0.094128 0.010073 0.5
12 1 0.260656 0.0243159 0.5
73 4 0.222384 0.0506954 0.5
36 2 0.735065 0.0113212 0.5
26 2 0.281872 0.0700459 0.5
54 3 0.309372 0.100483 0.5
41 3 0.347985 0.0932828 0.5
52 3 0.417213 0.0797482 0.5
27 2 0.611358 0.102222 0.5
43 3 0.711659 0.0880487 0.5
11 1 0.477418 0.130709 0.5
9 1 0.735198 0.137273 0.5
14 1 0.0810172 0.169131 0.5
28 2 0.18772 0.18798 0.5
64 4 0.195581 0.214297 0.5
65 4 0.408826 0.168796 0.5
51 3 0.518387 0.165362 0.5
63 4 0.805078 0.165284 0.5
67 4 0.981803 0.16414 0.5
32 2 0.119544 0.215929 0.5
7 1 0.161348 0.262394 0.5
76 4 0.223319 0.242817 0.5
62 4 0.267089 0.229398 0.5
38 2 0.335336 0.246708 0.5
29 2 0.474679 0.23022 0.5
77 4 0.51125 0.240417 0.5
34 2 0.584535 0.257452 0.5
48 3 0.626953 0.228975 0.5
44 3 0.863048 0.242691 0.5
33 2 0.957473 0.257696 0.5
42 3 0.0267019 0.359707 0.5
75 4 0.016178 0.329368 0.5
15 1 0.348135 0.332701 0.5
79 4 0.629344 0.342197 0.5
80 4 0.611074 0.352559 0.5
39 2 0.716747 0.361605 0.5
21 2 0.972775 0.334159 0.5
8 1 0.0582002 0.379159 0.5
60 3 0.188335 0.368994 0.5
37 2 0.456143 0.393631 0.5
55 3 0.133668 0.431332 0.5
30 2 0.227255 0.44496 0.5
5 1 0.669898 0.471588 0.5
46 3 0.741745 0.470003 0.5
71 4 0.948799 0.464349 0.5
45 3 0.157406 0.514691 0.5
19 1 0.351551 0.515179 0.5
59 3 0.619719 0.48899 0.5
69 4 0.778297 0.505907 0.5
58 3 0.119868 0.616273 0.5
35 2 0.332756 0.626426 0.5
24 2 0.931135 0.580602 0.5
3 1 0.0205702 0.700442 0.5
20 1 0.599405 0.710837 0.5
72 4 0.701536 0.720023 0.5
61 4 0.761688 0.689589 0.5
49 3 0.0991903 0.729599 0.5
2 1 0.112559 0.775629 0.5
17 1 0.170776 0.756079 0.5
6 1 0.475757 0.737273 0.5
18 1 0.518412 0.752704 0.5
47 3 0.0309947 0.796408 0.5
10 1 0.385124 0.81686 0.5
68 4 0.616101 0.807696 0.5
66 4 0.718303 0.827096 0.5
23 2 0.788792 0.795437 0.5
57 3 0.233823 0.857849 0.5
40 2 0.476443 0.874214 0.5
1 1 0.54645 0.883821 0.5
16 1 0.769696 0.867632 0.5
53 3 0.831093 0.866997 0.5
25 2 0.909052 0.89449 0.5
78 4 0.432684 0.912579 0.5
22 2 0.606837 0.907139 0.5
4 1 0.99516 0.926582 0.5
70 4 0.220447 0.997364 0.5
31 2 0.577355 0.991944 0.5
50 3 0.687444 0.963286 0.5
56 3 0.833461 0.980319 0.5
74 4 0.986902 0.98291 0.5
ITEM: TIMESTEP
70
ITEM: NUMBER OF ATOMS
80
ITEM: BOX BOUNDS pp pp pp
-6.3124159794017274e+00 6.3124159794017274e+00
-6.3124159794017274e+00 6.3124159794017274e+00
-1.0000000000000001e-01 1.0000000000000001e-01
ITEM: ATOMS id type xs ys zs
13 1 0.094128 0.010073 0.5
12 1 0.262372 0.0213806 0.5
73 4 0.219991 0.0518302 0.5
36 2 0.735463 0.0116162 0.5
26 2 0.281908 0.0711246 0.5
54 3 0.309033 0.102401 0.5
41 3 0.350271 0.0932178 0.5
52 3 0.416982 0.079492 0.5
27 2 0.611358 0.102222 0.5
43 3 0.710608 0.0859889 0.5
11 1 0.475961 0.129129 0.5
9 1 0.736051 0.139343 0.5
14 1 0.0795045 0.167389 0.5
28 2 0.187907 0.182548 0.5
64 4 0.197242 0.216198 0.5
65 4 0.40871 0.168859 0.5
51 3 0.520338 0.166805 0.5
63 4 0.805252 0.165356 0.5
67 4 0.981803 0.16414 0.5
32 2 0.118557 0.216307 0.5
7 1 0.160797 0.266911 0.5
76 4 0.224406 0.243231 0.5
62 4 0.267129 0.229345 0.5
38 2 0.335323 0.246143 0.5
29 2 0.472474 0.229939 0.5
77 4 0.513351 0.241015 0.5
34 2 0.583013 0.258487 0.5
48 3 0.62849 0.227943 0.5
44 3 0.863048 0.242691 0.5
33 2 0.95737 0.257241 0.5
42 3 0.0248118 0.359322 0.5
75 4 0.0162428 0.326913 0.5
15 1 0.348222 0.333285 0.5
79 4 0.631126 0.341186 0.5
80 4 0.609291 0.353571 0.5
39 2 0.716747 0.361605 0.5
21 2 0.969905 0.333994 0.5
8 1 0.0629426 0.38258 0.5
60 3 0.188323 0.368971 0.5
37 2 0.456143 0.393631 0.5
55 3 0.133724 0.431371 0.5
30 2 0.227266 0.444983 0.5
5 1 0.671564 0.470809 0.5
46 3 0.742175 0.469763 0.5
71 4 0.948799 0.464349 0.5
45 3 0.157406 0.514691 0.5
19 1 0.351551 0.515178 0.5
59 3 0.617394 0.489787 0.5
69 4 0.778525 0.506129 0.5
58 3 0.119868 0.616273 0.5
35 2 0.332756 0.626427 0.5
24 2 0.931135 0.580602 0.5
3 1 0.0203356 0.700313 0.5
20 1 0.599998 0.710553 0.5
72 4 0.701536 0.720023 0.5
61 4 0.761688 0.689589 0.5
49 3 0.0971531 0.726431 0.5
2 1 0.110479 0.779343 0.5
17 1 0.175329 0.755578 0.5
6 1 0.471161 0.735636 0.5
18 1 0.52243 0.754612 0.5
47 3 0.0307931 0.796491 0.5
10 1 0.385085 0.816858 0.5
68 4 0.616101 0.807696 0.5
66 4 0.717835 0.82675 0.5
23 2 0.789101 0.793943 0.5
57 3 0.233823 0.857849 0.5
40 2 0.475394 0.873745 0.5
1 1 0.545874 0.883264 0.5
16 1 0.768064 0.869367 0.5
53 3 0.832835 0.867083 0.5
25 2 0.908745 0.894371 0.5
78 4 0.43235 0.912864 0.5
22 2 0.608865 0.907764 0.5
4 1 0.9957 0.925421 0.5
70 4 0.219082 0.996244 0.5
31 2 0.577311 0.992075 0.5
50 3 0.68707 0.962909 0.5
56 3 0.833461 0.980319 0.5
74 4 0.986718 0.984207 0.5
ITEM: TIMESTEP
80
ITEM: NUMBER OF ATOMS
80
ITEM: BOX BOUNDS pp pp pp
-6.1974647765834048e+00 6.1974647765834048e+00
-6.1974647765834048e+00 6.1974647765834048e+00
-1.0000000000000001e-01 1.0000000000000001e-01
ITEM: ATOMS id type xs ys zs
13 1 0.094128 0.010073 0.5
12 1 0.264451 0.0178321 0.5
73 4 0.217166 0.0531494 0.5
36 2 0.736019 0.0119527 0.5
26 2 0.281843 0.072381 0.5
54 3 0.308687 0.104788 0.5
41 3 0.352972 0.0931505 0.5
52 3 0.416678 0.0790912 0.5
27 2 0.611358 0.102222 0.5
43 3 0.709345 0.0836362 0.5
11 1 0.474414 0.127243 0.5
9 1 0.736964 0.141749 0.5
14 1 0.0776538 0.165273 0.5
28 2 0.188244 0.176256 0.5
64 4 0.199102 0.218242 0.5
65 4 0.40851 0.168971 0.5
51 3 0.522672 0.168454 0.5
63 4 0.805546 0.165473 0.5
67 4 0.981803 0.16414 0.5
32 2 0.117366 0.216804 0.5
7 1 0.160114 0.2723 0.5
76 4 0.225743 0.243765 0.5
62 4 0.26718 0.229252 0.5
38 2 0.335343 0.24538 0.5
29 2 0.46986 0.229738 0.5
77 4 0.515754 0.241697 0.5
34 2 0.581256 0.259726 0.5
48 3 0.630311 0.22672 0.5
44 3 0.863048 0.242691 0.5
33 2 0.957233 0.256589 0.5
42 3 0.0227365 0.359025 0.5
75 4 0.0163913 0.323978 0.5
15 1 0.34834 0.334082 0.5
79 4 0.63318 0.340022 0.5
80 4 0.607237 0.354735 0.5
39 2 0.716747 0.361605 0.5
21 2 0.966446 0.333907 0.5
8 1 0.0683083 0.386443 0.5
60 3 0.188293 0.368914 0.5
37 2 0.456143 0.393631 0.5
55 3 0.133881 0.431479 0.5
30 2 0.227297 0.445042 0.5
5 1 0.673386 0.469891 0.5
46 3 0.742775 0.469429 0.5
71 4 0.948799 0.464349 0.5
45 3 0.157406 0.514691 0.5
19 1 0.351554 0.515164 0.5
59 3 0.614656 0.490728 0.5
69 4 0.778842 0.506439 0.5
58 3 0.119868 0.616273 0.5
35 2 0.332753 0.626441 0.5
24 2 0.931135 0.580602 0.5
3 1 0.0199052 0.700055 0.5
20 1 0.600847 0.710125 0.5
72 4 0.701536 0.720023 0.5
61 4 0.761688 0.689589 0.5
49 3 0.0949513 0.722783 0.5
2 1 0.108185 0.783705 0.5
17 1 0.180609 0.754961 0.5
6 1 0.465912 0.733705 0.5
18 1 0.526887 0.756917 0.5
47 3 0.0304399 0.796653 0.5
10 1 0.384954 0.816865 0.5
68 4 0.616101 0.807696 0.5
66 4 0.717205 0.826276 0.5
23 2 0.789477 0.792095 0.5
57 3 0.233823 0.857849 0.5
40 2 0.474147 0.873143 0.5
1 1 0.545263 0.882591 0.5
16 1 0.766153 0.871556 0.5
53 3 0.834881 0.867174 0.5
25 2 0.908343 0.894218 0.5
78 4 0.43189 0.913262 0.5
22 2 0.611332 0.908456 0.5
4 1 0.996447 0.924038 0.5
70 4 0.217402 0.994925 0.5
31 2 0.577237 0.992307 0.5
50 3 0.686568 0.962402 0.5
56 3 0.833461 0.980319 0.5
74 4 0.986492 0.985786 0.5
ITEM: TIMESTEP
90
ITEM: NUMBER OF ATOMS
80
ITEM: BOX BOUNDS pp pp pp
-6.1393970774120268e+00 6.1393970774120268e+00
-6.1393970774120268e+00 6.1393970774120268e+00
-1.0000000000000001e-01 1.0000000000000001e-01
ITEM: ATOMS id type xs ys zs
13 1 0.094128 0.010073 0.5
12 1 0.266879 0.013727 0.5
73 4 0.213986 0.0546196 0.5
36 2 0.736742 0.0123049 0.5
26 2 0.281641 0.0737865 0.5
54 3 0.308344 0.107619 0.5
41 3 0.356002 0.0930793 0.5
52 3 0.416311 0.0785239 0.5
27 2 0.611358 0.102222 0.5
43 3 0.707887 0.0810685 0.5
11 1 0.472853 0.125095 0.5
9 1 0.737892 0.144431 0.5
14 1 0.0754913 0.162807 0.5
28 2 0.188727 0.169328 0.5
64 4 0.201088 0.220353 0.5
65 4 0.408219 0.16914 0.5
51 3 0.525345 0.170276 0.5
63 4 0.805981 0.165638 0.5
67 4 0.981803 0.16414 0.5
32 2 0.116023 0.217423 0.5
7 1 0.159328 0.278387 0.5
76 4 0.22728 0.2444 0.5
62 4 0.267244 0.22911 0.5
38 2 0.335407 0.244425 0.5
29 2 0.466892 0.229635 0.5
77 4 0.518362 0.242432 0.5
34 2 0.579341 0.261154 0.5
48 3 0.632378 0.225332 0.5
44 3 0.863048 0.242691 0.5
33 2 0.957071 0.255734 0.5
42 3 0.020533 0.358847 0.5
75 4 0.0166544 0.320634 0.5
15 1 0.34849 0.335089 0.5
79 4 0.635453 0.338732 0.5
80 4 0.604964 0.356024 0.5
39 2 0.716748 0.3616 0.5
21 2 0.962494 0.333946 0.5
8 1 0.0740573 0.390571 0.5
60 3 0.188249 0.36884 0.5
37 2 0.456143 0.393631 0.5
55 3 0.134187 0.431689 0.5
30 2 0.22735 0.445147 0.5
5 1 0.675289 0.468854 0.5
46 3 0.743555 0.469 0.5
71 4 0.948799 0.464349 0.5
45 3 0.157406 0.514691 0.5
19 1 0.351561 0.515121 0.5
59 3 0.611562 0.491795 0.5
69 4 0.77925 0.506843 0.5
58 3 0.119868 0.616273 0.5
35 2 0.332746 0.626484 0.5
24 2 0.931135 0.580602 0.5
3 1 0.0192446 0.699649 0.5
20 1 0.601964 0.70953 0.5
72 4 0.701536 0.720023 0.5
61 4 0.761688 0.689589 0.5
49 3 0.0927132 0.718764 0.5
2 1 0.105774 0.788614 0.5
17 1 0.186454 0.754229 0.5
6 1 0.460162 0.731497 0.5
18 1 0.53164 0.759584 0.5
47 3 0.0299042 0.7969 0.5
10 1 0.38469 0.816895 0.5
68 4 0.616101 0.807696 0.5
66 4 0.716421 0.825668 0.5
23 2 0.789917 0.789936 0.5
57 3 0.233823 0.857849 0.5
40 2 0.472733 0.872418 0.5
1 1 0.544644 0.881822 0.5
16 1 0.764005 0.874173 0.5
53 3 0.837157 0.867247 0.5
25 2 0.907868 0.894042 0.5
78 4 0.431304 0.913779 0.5
22 2 0.614198 0.909187 0.5
4 1 0.997406 0.922463 0.5
70 4 0.215422 0.993446 0.5
31 2 0.577128 0.992654 0.5
50 3 0.685945 0.961773 0.5
56 3 0.833461 0.980319 0.5
74 4 0.986226 0.987615 0.5
ITEM: TIMESTEP
100
ITEM: NUMBER OF ATOMS
80
ITEM: BOX BOUNDS pp pp pp
-6.1256822787223504e+00 6.1256822787223504e+00
-6.1256822787223504e+00 6.1256822787223504e+00
-1.0000000000000001e-01 1.0000000000000001e-01
ITEM: ATOMS id type xs ys zs
13 1 0.094128 0.010073 0.5
12 1 0.269625 0.0091632 0.5
73 4 0.210549 0.0561986 0.5
36 2 0.737632 0.012647 0.5
26 2 0.281276 0.0753024 0.5
54 3 0.308014 0.110839 0.5
41 3 0.359259 0.0930046 0.5
52 3 0.415897 0.0777759 0.5
27 2 0.611358 0.102222 0.5
43 3 0.706255 0.0783694 0.5
11 1 0.471349 0.122749 0.5
9 1 0.73879 0.147321 0.5
14 1 0.0730698 0.160033 0.5
28 2 0.189315 0.16202 0.5
64 4 0.203124 0.22246 0.5
65 4 0.407837 0.169372 0.5
51 3 0.528288 0.172232 0.5
63 4 0.806568 0.165852 0.5
67 4 0.9818 0.16414 0.5
32 2 0.11459 0.218153 0.5
7 1 0.158475 0.284931 0.5
76 4 0.228961 0.245124 0.5
62 4 0.267322 0.228914 0.5
38 2 0.335523 0.243297 0.5
29 2 0.463644 0.229626 0.5
77 4 0.521075 0.243187 0.5
34 2 0.577351 0.262749 0.5
48 3 0.634638 0.223814 0.5
44 3 0.863048 0.242691 0.5
33 2 0.956894 0.25468 0.5
42 3 0.0182599 0.358807 0.5
75 4 0.0170545 0.31698 0.5
15 1 0.348667 0.336288 0.5
79 4 0.637884 0.337354 0.5
80 4 0.602534 0.357403 0.5
39 2 0.716758 0.361576 0.5
21 2 0.958145 0.334133 0.5
8 1 0.0799594 0.394791 0.5
60 3 0.188202 0.368787 0.5
37 2 0.456143 0.393631 0.5
55 3 0.134684 0.432031 0.5
30 2 0.227429 0.445301 0.5
5 1 0.677195 0.467735 0.5
46 3 0.744523 0.46848 0.5
71 4 0.948799 0.464349 0.5
45 3 0.157406 0.514691 0.5
19 1 0.351574 0.515043 0.5
59 3 0.608185 0.492964 0.5
69 4 0.779744 0.507337 0.5
58 3 0.119868 0.616273 0.5
35 2 0.332733 0.626562 0.5
24 2 0.931135 0.580602 0.5
3 1 0.0183417 0.699103 0.5
20 1 0.60334 0.708753 0.5
72 4 0.701536 0.720023 0.5
61 4 0.761688 0.689589 0.5
49 3 0.0905678 0.714501 0.5
2 1 0.103341 0.793938 0.5
17 1 0.192674 0.753388 0.5
6 1 0.454076 0.729045 0.5
18 1 0.536538 0.762542 0.5
47 3 0.0291665 0.797227 0.5
10 1 0.384267 0.816958 0.5
68 4 0.616101 0.807696 0.5
66 4 0.715503 0.824926 0.5
23 2 0.790412 0.787537 0.5
57 3 0.233823 0.857849 0.5
40 2 0.471184 0.871584 0.5
1 1 0.544053 0.881009 0.5
16 1 0.761673 0.877164 0.5
53 3 0.839576 0.867273 0.5
25 2 0.907344 0.893858 0.5
78 4 0.430601 0.914413 0.5
22 2 0.61739 0.909927 0.5
4 1 0.998566 0.920732 0.5
70 4 0.213175 0.991853 0.5
31 2 0.576982 0.993113 0.5
50 3 0.685233 0.96105 0.5
56 3 0.833461 0.980319 0.5
74 4 0.985924 0.989653 0.5
ITEM: TIMESTEP
110
ITEM: NUMBER OF ATOMS
80
ITEM: BOX BOUNDS pp pp pp
-6.1411872608855713e+00 6.1411872608855713e+00
-6.1411872608855713e+00 6.1411872608855713e+00
-1.0000000000000001e-01 1.0000000000000001e-01
ITEM: ATOMS id type xs ys zs
13 1 0.094128 0.010073 0.5
12 1 0.272632 0.00424847 0.5
73 4 0.206962 0.0578394 0.5
36 2 0.738682 0.0129567 0.5
26 2 0.280731 0.0768859 0.5
54 3 0.307711 0.11439 0.5
41 3 0.36263 0.0929307 0.5
52 3 0.41545 0.0768375 0.5
27 2 0.611358 0.102222 0.5
43 3 0.704475 0.075617 0.5
11 1 0.469961 0.120279 0.5
9 1 0.739618 0.150351 0.5
14 1 0.070466 0.156999 0.5
28 2 0.189957 0.154535 0.5
64 4 0.20514 0.224498 0.5
65 4 0.407372 0.169663 0.5
51 3 0.531426 0.174291 0.5
63 4 0.807311 0.166108 0.5
67 4 0.98178 0.164141 0.5
32 2 0.113131 0.218975 0.5
7 1 0.157583 0.291719 0.5
76 4 0.230738 0.245949 0.5
62 4 0.267418 0.22866 0.5
38 2 0.335696 0.242021 0.5
29 2 0.460206 0.229691 0.5
77 4 0.523794 0.243928 0.5
34 2 0.575365 0.264487 0.5
48 3 0.637035 0.222202 0.5
44 3 0.863048 0.242691 0.5
33 2 0.956714 0.253445 0.5
42 3 0.0159718 0.35891 0.5
75 4 0.0175812 0.313101 0.5
15 1 0.348867 0.337652 0.5
79 4 0.640411 0.335921 0.5
80 4 0.600006 0.358836 0.5
39 2 0.716779 0.36152 0.5
21 2 0.953486 0.334465 0.5
8 1 0.0858372 0.398974 0.5
60 3 0.18817 0.368798 0.5
37 2 0.456143 0.393631 0.5
55 3 0.135405 0.432526 0.5
30 2 0.227534 0.445503 0.5
5 1 0.679032 0.46657 0.5
46 3 0.745678 0.467878 0.5
71 4 0.948799 0.464349 0.5
45 3 0.157406 0.514691 0.5
19 1 0.351593 0.51493 0.5
59 3 0.604601 0.494208 0.5
69 4 0.780316 0.507916 0.5
58 3 0.119868 0.616273 0.5
35 2 0.332714 0.626675 0.5
24 2 0.931135 0.580602 0.5
3 1 0.0172034 0.698445 0.5
20 1 0.604954 0.707784 0.5
72 4 0.701536 0.720023 0.5
61 4 0.761688 0.689589 0.5
49 3 0.088609 0.710112 0.5
2 1 0.100967 0.79953 0.5
17 1 0.199094 0.752456 0.5
6 1 0.447809 0.726389 0.5
18 1 0.541439 0.765707 0.5
47 3 0.028217 0.797613 0.5
10 1 0.383677 0.817061 0.5
68 4 0.616117 0.807705 0.5
66 4 0.714477 0.824062 0.5
23 2 0.790955 0.784979 0.5
57 3 0.233823 0.857849 0.5
40 2 0.46953 0.870656 0.5
1 1 0.543516 0.880209 0.5
16 1 0.759214 0.880457 0.5
53 3 0.842048 0.867226 0.5
25 2 0.906803 0.893682 0.5
78 4 0.429791 0.915158 0.5
22 2 0.620823 0.910644 0.5
4 1 0.999908 0.918888 0.5
70 4 0.210701 0.990191 0.5
31 2 0.576798 0.993666 0.5
50 3 0.684472 0.960265 0.5
56 3 0.833461 0.980319 0.5
74 4 0.985594 0.99185 0.5
ITEM: TIMESTEP
120
ITEM: NUMBER OF ATOMS
80
ITEM: BOX BOUNDS pp pp pp
-6.1676215923785582e+00 6.1676215923785582e+00
-6.1676215923785582e+00 6.1676215923785582e+00
-1.0000000000000001e-01 1.0000000000000001e-01
ITEM: ATOMS id type xs ys zs
13 1 0.094128 0.010073 0.5
12 1 0.27583 -0.000926819 0.5
73 4 0.20332 0.0594971 0.5
36 2 0.739886 0.0132167 0.5
26 2 0.280002 0.0784951 0.5
54 3 0.307457 0.118234 0.5
41 3 0.366016 0.0928677 0.5
52 3 0.414985 0.0756996 0.5
27 2 0.611358 0.102222 0.5
43 3 0.702568 0.0728745 0.5
11 1 0.468733 0.11776 0.5
9 1 0.740347 0.153466 0.5
14 1 0.0677462 0.153744 0.5
28 2 0.19061 0.147015 0.5
64 4 0.207075 0.22642 0.5
65 4 0.406829 0.170004 0.5
51 3 0.534681 0.176429 0.5
63 4 0.808208 0.166399 0.5
67 4 0.981729 0.164144 0.5
32 2 0.111703 0.219866 0.5
7 1 0.156676 0.298582 0.5
76 4 0.232566 0.246893 0.5
62 4 0.267535 0.228344 0.5
38 2 0.335927 0.240624 0.5
29 2 0.456669 0.229809 0.5
77 4 0.526437 0.244622 0.5
34 2 0.573452 0.266351 0.5
48 3 0.639521 0.22053 0.5
44 3 0.863048 0.242691 0.5
33 2 0.956541 0.25205 0.5
42 3 0.0137143 0.359152 0.5
75 4 0.0181989 0.309062 0.5
15 1 0.349086 0.339151 0.5
79 4 0.642975 0.33446 0.5
80 4 0.597436 0.360294 0.5
39 2 0.716821 0.361425 0.5
21 2 0.948596 0.334927 0.5
8 1 0.0915526 0.403046 0.5
60 3 0.188175 0.368907 0.5
37 2 0.456143 0.393631 0.5