LAMMPS data file via write_data, version 23 Jun 2022, timestep = 10000

80 atoms
4 atom types

-4.825920026037993 4.825920026037993 xlo xhi
-4.825920026037993 4.825920026037993 ylo yhi
-0.1 0.1 zlo zhi

Atoms # sphere

34 2 1.3 0.4551661356395083 -3.8990416396935137 -3.987901589877425 0 0 0 0
36 2 1.3 0.4551661356395083 -2.9434002022515315 -4.602472209974469 0 0 0 0
32 2 1.3 0.4551661356395083 -1.8057025077145301 -4.611156350187747 0 1 1 0
54 3 1 1 -1.20444774714821 -3.8448784644395495 0 0 1 0
60 3 1 1 -0.6836614012141098 -4.584205762384456 0 0 1 0
22 2 1.3 0.4551661356395083 0.8455603754198764 -4.38070619856845 0 0 1 0
7 1 1.6 0.2441406249999999 2.231328858478337 -4.398941589791452 0 0 1 0
75 4 0.7 2.915451895043732 3.2663996391709453 -4.208480639330036 0 -1 1 0
49 3 1 1 3.845069740930315 -3.745369394415495 0 -1 0 0
33 2 1.3 0.4551661356395083 4.712223089634598 -4.523933062490733 0 0 0 0
55 3 1 1 -4.537714034110681 -3.169987661457238 0 1 0 0
20 1 1.6 0.2441406249999999 -2.3766673486281538 -3.433464800022632 0 0 0 0
66 4 0.7 2.915451895043732 -1.4035203072005205 -3.163630798461096 0 0 0 0
58 3 1 1 -0.8049875837111093 -2.7594998545083933 0 0 0 0
38 2 1.3 0.4551661356395083 -0.17372323853443916 -3.655035252056747 0 0 0 0
26 2 1.3 0.4551661356395083 1.2747609059024096 -3.362857771488798 0 0 0 0
1 1 1.6 0.2441406249999999 2.6523462392956114 -2.8239454256493 0 0 0 0
61 4 0.7 2.915451895043732 4.6104330182857804 -3.709666541727377 0 -1 0 0
39 2 1.3 0.4551661356395083 4.148089443275387 -2.7088881416377277 0 0 1 0
5 1 1.6 0.2441406249999999 -4.642481113739527 -1.8732860143519128 0 0 1 0
46 3 1 1 -3.4571122913198904 -2.8325825285288486 0 0 0 0
29 2 1.3 0.4551661356395083 -3.4349174427911633 -1.4044324080856967 0 0 0 0
80 4 0.7 2.915451895043732 -2.7547499894973777 -2.4064633993176714 0 1 0 0
79 4 0.7 2.915451895043732 -2.740058171204612 -1.8738701214378448 0 1 0 0
35 2 1.3 0.4551661356395083 -1.6842557859986824 -2.016449404134526 0 0 0 0
63 4 0.7 2.915451895043732 -0.7711105102451796 -2.0074110829216374 0 0 1 0
16 1 1.6 0.2441406249999999 0.31379434256275474 -2.2670621057140963 0 0 1 0
53 3 1 1 1.518916877080967 -2.4179775628829425 0 0 0 0
21 2 1.3 0.4551661356395083 3.432370854058677 -1.714028700514493 0 0 0 0
37 2 1.3 0.4551661356395083 -4.269723653110747 -0.5486834221579091 0 0 0 0
65 4 0.7 2.915451895043732 -3.077594688979928 -0.4204844152478904 0 0 1 0
14 1 1.6 0.2441406249999999 -2.1559895715615 -0.7342324537181932 0 0 0 0
18 1 1.6 0.2441406249999999 -0.31680110707126286 -1.122291386882167 0 0 0 0
68 4 0.7 2.915451895043732 1.1193204184998944 -1.429332848423985 0 0 0 0
40 2 1.3 0.4551661356395083 0.9393606944287072 -0.5481971757682 0 0 0 0
9 1 1.6 0.2441406249999999 2.133744463344148 -1.272855879476034 0 0 0 0
43 3 1 1 3.180258190418078 -0.5909476438927488 0 -1 0 0
24 2 1.3 0.4551661356395083 4.151655751572548 -0.7344286881676592 0 -1 0 0
12 1 1.6 0.2441406249999999 -3.430370773906344 0.5892408831669709 0 0 0 0
45 3 1 1 -2.3624827826221244 0.3620092925582101 0 1 0 0
70 4 0.7 2.915451895043732 -1.15105587532614 -0.4567966777137302 0 0 0 0
42 3 1 1 -1.49135477505442 0.3566086748948365 0 0 0 0
74 4 0.7 2.915451895043732 0.0950382173316422 -0.16965234496209902 0 0 0 0
56 3 1 1 -0.6554659683120763 0.026064338702799894 0 1 0 0
13 1 1.6 0.2441406249999999 0.7134478052761972 0.707435623684785 0 -1 0 0
15 1 1.6 0.2441406249999999 2.2003840658922016 0.1648508235470727 0 0 0 0
30 2 1.3 0.4551661356395083 3.5014749817289097 0.3261071887599529 0 0 0 0
47 3 1 1 4.569466788294072 0.34019116447171704 0 0 0 0
78 4 0.7 2.915451895043732 -4.489578736132594 0.8610887981162216 0 0 0 0
69 4 0.7 2.915451895043732 -4.069460546239945 1.3573689743339488 0 0 0 0
59 3 1 1 -3.200502770767502 1.6801602872798087 0 1 0 0
28 2 1.3 0.4551661356395083 -1.8930016144731048 1.2870281621642379 0 0 0 0
23 2 1.3 0.4551661356395083 -0.5549735899841393 1.2336036730984086 0 1 0 0
6 1 1.6 0.2441406249999999 4.231603538129571 1.5188176097181936 0 0 0 0
10 1 1.6 0.2441406249999999 -4.036995775620353 2.3934624782548637 0 0 0 0
17 1 1.6 0.2441406249999999 -2.590033259728505 2.609690805044691 0 0 0 0
71 4 0.7 2.915451895043732 -1.090906818908791 1.9931060932310762 0 0 -1 0
19 1 1.6 0.2441406249999999 -0.2226542328948895 2.650852733309873 0 0 0 0
44 3 1 1 1.5799910236817887 1.5449700519176144 0 -1 0 0
50 3 1 1 0.5414381868612121 1.8876602875269333 0 0 0 0
8 1 1.6 0.2441406249999999 2.756209915528377 1.6512527176913085 0 0 0 0
72 4 0.7 2.915451895043732 3.4601027750971234 2.420449202902436 0 -1 0 0
62 4 0.7 2.915451895043732 4.649318680309127 2.5410314876496 0 0 0 0
67 4 0.7 2.915451895043732 -3.776858634248116 3.5089940647577507 0 1 0 0
41 3 1 1 -3.10156755437361 3.8634482061673427 0 0 -1 0
77 4 0.7 2.915451895043732 -1.997154658783356 3.3603292549848973 0 0 0 0
52 3 1 1 -1.386963611035784 2.6541178974772768 0 0 0 0
57 3 1 1 0.9553988457784852 2.9181591481691935 0 0 -1 0
64 4 0.7 2.915451895043732 1.191756416589465 2.2216145174166595 0 0 -1 0
27 2 1.3 0.4551661356395083 1.974891950830048 2.520225770003358 0 0 0 0
11 1 1.6 0.2441406249999999 3.1211509794540397 3.417706542879438 0 0 0 0
76 4 0.7 2.915451895043732 4.074630357659823 2.6772182254931485 0 -1 0 0
2 1 1.6 0.2441406249999999 4.591733111548402 3.657612727536687 0 -1 0 0
25 2 1.3 0.4551661356395083 -3.909707470680445 4.46010848187642 0 0 -1 0
51 3 1 1 -2.3279276023668585 4.155975592776526 0 0 0 0
4 1 1.6 0.2441406249999999 -1.0553261687146374 3.8265100700875827 0 0 0 0
73 4 0.7 2.915451895043732 0.49404152399784707 3.5024744907602514 0 0 0 0
48 3 1 1 0.13649504616291797 4.310869606115668 0 -1 0 0
3 1 1.6 0.2441406249999999 1.5693990055914355 4.000056308117678 0 0 -1 0
31 2 1.3 0.4551661356395083 3.734869048083194 4.671799016628485 0 0 0 0

Velocities

34 -0.1632841635294635 -0.06378833321303934 0 0 0 0
36 0.003845766448976445 -0.09127362584560447 0 0 0 0
32 -0.04104461106398651 0.08164353559120187 0 0 0 0
54 0.15017484071567966 0.020824740975377145 0 0 0 0
60 0.015755175529252947 -0.02007547925347832 0 0 0 0
22 -0.20418433815814704 0.09272334394143895 0 0 0 0
7 -0.030058591733401467 -0.10777736607354847 0 0 0 0
75 0.031472765853051296 0.02592890493021158 0 0 0 0
49 0.09914550828301413 -0.09372580200187358 0 0 0 0
33 0.010056489041496015 0.09787729708090763 0 0 0 0
55 -0.05882711551258116 -0.09329507425385082 0 0 0 0
20 0.03461476610731851 0.08849179338999213 0 0 0 0
66 -0.12541769334295821 -0.013201928110524508 0 0 0 0
58 0.11591712590133271 -0.09782701007978353 0 0 0 0
38 -0.05684898819697053 0.08668409616453054 0 0 0 0
26 -0.1576275459363097 0.14969805121283183 0 0 0 0
1 -0.288186671624462 -0.0004943768741055449 0 0 0 0
61 0.11587777898534986 0.10574848624193835 0 0 0 0
39 -0.19212982757496047 -0.07113368741988722 0 0 0 0
5 -0.04209579841547889 -0.06272813849539745 0 0 0 0
46 -0.03831519002203663 0.06165379300304636 0 0 0 0
29 0.15494725521822278 0.08058591488936127 0 0 0 0
80 0.08217916137216232 0.06942423326727039 0 0 0 0
79 0.054588449937193737 0.08610061402221376 0 0 0 0
35 -0.05477454157420267 -0.2658449034110853 0 0 0 0
63 -0.0408036067338809 -0.14756866854727851 0 0 0 0
16 0.05641088565916953 0.057149484983015135 0 0 0 0
53 -0.20631282588710198 -0.17954850346504284 0 0 0 0
21 0.08087641867919058 0.03120247908081257 0 0 0 0
37 0.019708961021124027 0.008944924804687664 0 0 0 0
65 0.012633499999222222 -0.023031939341610703 0 0 0 0
14 -0.052631482973314235 0.0571965458041945 0 0 0 0
18 -0.10203335135094922 0.05680027171972898 0 0 0 0
68 0.0346569134521545 0.04650558489493589 0 0 0 0
40 -0.11220712986096344 0.04402113950147751 0 0 0 0
9 0.13477953373278467 -0.08185446635256412 0 0 0 0
43 -0.04708198313595758 0.00487261254659533 0 0 0 0
24 -0.20993337241880955 0.13070995371253524 0 0 0 0
12 -0.07167220223511035 0.06030321670260721 0 0 0 0
45 0.005261257053326042 -0.15186611381670914 0 0 0 0
70 0.009597851711777749 0.017315195917562608 0 0 0 0
42 0.045253568347717196 0.04979752507937019 0 0 0 0
74 0.15031399230639172 0.08105451214664823 0 0 0 0
56 -0.030063959557256978 -0.11371481484400461 0 0 0 0
13 0.08607820577185844 -0.14773462817819305 0 0 0 0
15 0.03789819188184016 0.1360729610316588 0 0 0 0
30 0.010098110320009363 -0.03000486737492015 0 0 0 0
47 0.01504057131575083 0.22906589081198905 0 0 0 0
78 0.11111926934929982 -0.08897437436294484 0 0 0 0
69 -0.06034516424255838 0.1342820387476853 0 0 0 0
59 -0.048113103716299226 0.004981915927391845 0 0 0 0
28 -0.17652048853694782 0.21861142028638028 0 0 0 0
23 -0.0957983776935722 -0.05910118308316225 0 0 0 0
6 0.0532235135865227 -0.050845267625502615 0 0 0 0
10 0.12584096156603622 0.08730982733836033 0 0 0 0
17 0.004856813688797346 0.09593354258472458 0 0 0 0
71 0.22923480341418348 -0.17867171603876258 0 0 0 0
19 0.010034686771867828 -0.013027239999875451 0 0 0 0
44 0.05013097442997675 -0.27510091768010103 0 0 0 0
50 -0.0024556222944665737 -0.1118938263910471 0 0 0 0
8 -0.1808756014675034 -0.02520233653445716 0 0 0 0
72 -0.011264849545243785 0.19029164835368972 0 0 0 0
62 -0.024809158682074648 0.06427808762368287 0 0 0 0
67 0.04198264944781973 -0.03241077417578848 0 0 0 0
41 0.07410447397381222 0.025730961286780738 0 0 0 0
77 0.05183729845417617 0.07641119292959128 0 0 0 0
52 0.16491645037408742 -0.009449350659944735 0 0 0 0
57 0.10269778718449551 -0.1378031701141112 0 0 0 0
64 0.11491592754970757 0.07970799382107163 0 0 0 0
27 -0.0872961090304966 -0.03184271215179937 0 0 0 0
11 0.024829184122162035 -0.17485269770917586 0 0 0 0
76 0.1784614044764196 0.012954097394890845 0 0 0 0
2 0.00783962833867292 -0.07999900438558784 0 0 0 0
25 -0.0008746621397726164 0.03956292970131758 0 0 0 0
51 -0.07338951609523468 0.12065886624372422 0 0 0 0
4 -0.002086457890385487 0.09227357412420457 0 0 0 0
73 0.1040888743580434 -0.08267596210598041 0 0 0 0
48 0.1213057435613204 -0.12933750812975656 0 0 0 0
3 0.009531827907824319 -0.07777898491487105 0 0 0 0
31 -0.058771215027716005 0.11407155320373445 0 0 0 0
