ITEM: TIMESTEP
0
ITEM: NUMBER OF ATOMS
80
ITEM: BOX BOUNDS pp pp pp
-1.0000000000000000e+01 1.0000000000000000e+01
-1.0000000000000000e+01 1.0000000000000000e+01
-1.0000000000000001e-01 1.0000000000000001e-01
ITEM: ATOMS id type xs ys zs
71 4 0.0540858 0.0205177 0.5
41 3 0.21527 0.0414446 0.5
35 2 0.287856 0.00307294 0.5
33 2 0.754272 0.042739 0.5
49 3 0.145362 0.102899 0.5
47 3 0.880054 0.0738823 0.5
12 1 0.00619504 0.120029 0.5
45 3 0.848701 0.122108 0.5
80 4 0.860542 0.126079 0.5
6 1 0.998224 0.145031 0.5
57 3 0.573285 0.195661 0.5
61 4 0.129068 0.248519 0.5
25 2 0.170656 0.2133 0.5
64 4 0.329519 0.223337 0.5
36 2 0.360047 0.303671 0.5
66 4 0.317384 0.269947 0.5
74 4 0.401158 0.265066 0.5
68 4 0.0633275 0.344614 0.5
34 2 0.724184 0.354396 0.5
26 2 0.912972 0.319698 0.5
10 1 0.0644618 0.408938 0.5
58 3 0.101587 0.374178 0.5
73 4 0.164004 0.407354 0.5
46 3 0.487677 0.390645 0.5
29 2 0.665757 0.380933 0.5
40 2 0.641721 0.408514 0.5
1 1 0.820991 0.396607 0.5
20 1 0.794989 0.384936 0.5
55 3 0.894532 0.403185 0.5
48 3 0.0014548 0.450791 0.5
37 2 0.61257 0.471702 0.5
18 1 0.714014 0.430068 0.5
51 3 0.262776 0.484318 0.5
53 3 0.434433 0.507509 0.5
38 2 0.758762 0.515274 0.5
56 3 0.827186 0.521817 0.5
59 3 0.832421 0.497822 0.5
52 3 0.255878 0.540884 0.5
42 3 0.662197 0.549709 0.5
79 4 0.938213 0.542886 0.5
8 1 0.274445 0.596133 0.5
14 1 0.399276 0.624785 0.5
3 1 0.75133 0.605857 0.5
21 2 0.802322 0.624268 0.5
23 2 0.806249 0.624596 0.5
67 4 0.797857 0.581033 0.5
77 4 0.257669 0.639441 0.5
78 4 0.315266 0.681059 0.5
72 4 0.383808 0.659502 0.5
9 1 0.455326 0.658799 0.5
50 3 0.436763 0.67297 0.5
28 2 0.677079 0.658807 0.5
22 2 0.762458 0.638364 0.5
2 1 0.0798305 0.711297 0.5
43 3 0.0839358 0.708224 0.5
19 1 0.362749 0.724975 0.5
70 4 0.353586 0.71599 0.5
30 2 0.541185 0.703006 0.5
69 4 0.0206317 0.757488 0.5
24 2 0.092507 0.765034 0.5
11 1 0.825415 0.741691 0.5
32 2 0.994451 0.740319 0.5
17 1 0.0133771 0.828282 0.5
76 4 0.0825779 0.885976 0.5
4 1 0.296237 0.855524 0.5
13 1 0.282731 0.857976 0.5
7 1 0.579214 0.853156 0.5
31 2 0.686788 0.846441 0.5
15 1 0.841963 0.875601 0.5
5 1 0.262863 0.946519 0.5
54 3 0.326942 0.922384 0.5
63 4 0.385847 0.93356 0.5
16 1 0.482234 0.899481 0.5
60 3 0.598735 0.945059 0.5
62 4 0.751348 0.913504 0.5
44 3 0.0251674 0.988289 0.5
75 4 0.170822 0.997289 0.5
27 2 0.314867 0.975605 0.5
65 4 0.460641 0.988077 0.5
39 2 0.642053 0.983832 0.5
ITEM: TIMESTEP
10
ITEM: NUMBER OF ATOMS
80
ITEM: BOX BOUNDS pp pp pp
-9.2532533490973510e+00 9.2532533490973510e+00
-9.2532533490973510e+00 9.2532533490973510e+00
-1.0000000000000001e-01 1.0000000000000001e-01
ITEM: ATOMS id type xs ys zs
71 4 0.0540863 0.0205183 0.5
41 3 0.21527 0.0414446 0.5
35 2 0.287804 0.00318252 0.5
33 2 0.754272 0.042739 0.5
49 3 0.145362 0.102899 0.5
47 3 0.880054 0.0738823 0.5
12 1 0.00625551 0.119839 0.5
45 3 0.848596 0.122073 0.5
80 4 0.860647 0.126114 0.5
6 1 0.998163 0.145221 0.5
57 3 0.573285 0.195661 0.5
61 4 0.129068 0.248519 0.5
25 2 0.170656 0.2133 0.5
64 4 0.329519 0.223337 0.5
36 2 0.360047 0.303671 0.5
66 4 0.317384 0.269947 0.5
74 4 0.401158 0.265066 0.5
68 4 0.0633275 0.344614 0.5
34 2 0.724189 0.354393 0.5
26 2 0.912972 0.319698 0.5
10 1 0.0644219 0.408975 0.5
58 3 0.101627 0.374141 0.5
73 4 0.164004 0.407354 0.5
46 3 0.487677 0.390645 0.5
29 2 0.665809 0.380843 0.5
40 2 0.641651 0.408594 0.5
1 1 0.821165 0.396685 0.5
20 1 0.794815 0.384858 0.5
55 3 0.894532 0.403185 0.5
48 3 0.0014548 0.450791 0.5
37 2 0.61257 0.471702 0.5
18 1 0.714026 0.43008 0.5
51 3 0.262776 0.484318 0.5
53 3 0.434433 0.507509 0.5
38 2 0.758762 0.515274 0.5
56 3 0.827166 0.521909 0.5
59 3 0.832441 0.49773 0.5
52 3 0.255869 0.540857 0.5
42 3 0.662197 0.549709 0.5
79 4 0.938213 0.542886 0.5
8 1 0.274469 0.596119 0.5
14 1 0.399247 0.624675 0.5
3 1 0.751148 0.605691 0.5
21 2 0.802247 0.624271 0.5
23 2 0.806599 0.624633 0.5
67 4 0.797868 0.580974 0.5
77 4 0.257653 0.639481 0.5
78 4 0.315266 0.681059 0.5
72 4 0.383778 0.659569 0.5
9 1 0.455497 0.658734 0.5
50 3 0.436651 0.673077 0.5
28 2 0.677079 0.658807 0.5
22 2 0.762354 0.638549 0.5
2 1 0.0796385 0.711365 0.5
43 3 0.084112 0.70809 0.5
19 1 0.362867 0.725091 0.5
70 4 0.353468 0.715875 0.5
30 2 0.541185 0.703006 0.5
69 4 0.0206906 0.757526 0.5
24 2 0.0925227 0.765101 0.5
11 1 0.825415 0.741691 0.5
32 2 0.994392 0.74028 0.5
17 1 0.0133771 0.828282 0.5
76 4 0.0825779 0.885976 0.5
4 1 0.296478 0.85548 0.5
13 1 0.28249 0.85802 0.5
7 1 0.579214 0.853156 0.5
31 2 0.686788 0.846441 0.5
15 1 0.841963 0.875601 0.5
5 1 0.262802 0.946455 0.5
54 3 0.326946 0.922371 0.5
63 4 0.385847 0.93356 0.5
16 1 0.482234 0.899481 0.5
60 3 0.598734 0.945058 0.5
62 4 0.751348 0.913504 0.5
44 3 0.0251669 0.988288 0.5
75 4 0.170822 0.997289 0.5
27 2 0.314978 0.975573 0.5
65 4 0.460641 0.988077 0.5
39 2 0.642054 0.983833 0.5
ITEM: TIMESTEP
20
ITEM: NUMBER OF ATOMS
80
ITEM: BOX BOUNDS pp pp pp
-8.3308593458413718e+00 8.3308593458413718e+00
-8.3308593458413718e+00 8.3308593458413718e+00
-1.0000000000000001e-01 1.0000000000000001e-01
ITEM: ATOMS id type xs ys zs
71 4 0.0541007 0.0205343 0.5
41 3 0.21527 0.0414446 0.5
35 2 0.287619 0.00360655 0.5
33 2 0.754272 0.042739 0.5
49 3 0.145362 0.102899 0.5
47 3 0.880055 0.0738819 0.5
12 1 0.00647054 0.119165 0.5
45 3 0.848222 0.121948 0.5
80 4 0.86102 0.12624 0.5
6 1 0.997948 0.145895 0.5
57 3 0.573285 0.195661 0.5
61 4 0.129063 0.248523 0.5
25 2 0.170661 0.213296 0.5
64 4 0.329519 0.223337 0.5
36 2 0.36005 0.303676 0.5
66 4 0.317379 0.269943 0.5
74 4 0.401159 0.265065 0.5
68 4 0.0633266 0.344611 0.5
34 2 0.724226 0.354343 0.5
26 2 0.912972 0.319698 0.5
10 1 0.0642644 0.409125 0.5
58 3 0.101786 0.373994 0.5
73 4 0.164004 0.407354 0.5
46 3 0.487677 0.390645 0.5
29 2 0.66595 0.380505 0.5
40 2 0.641377 0.408869 0.5
1 1 0.821784 0.396964 0.5
20 1 0.794212 0.384586 0.5
55 3 0.894535 0.403185 0.5
48 3 0.00145447 0.450791 0.5
37 2 0.612565 0.471714 0.5
18 1 0.714112 0.430174 0.5
51 3 0.262777 0.484317 0.5
53 3 0.434433 0.507509 0.5
38 2 0.758762 0.515274 0.5
56 3 0.827093 0.522245 0.5
59 3 0.832514 0.497394 0.5
52 3 0.255829 0.540739 0.5
42 3 0.662197 0.549709 0.5
79 4 0.938213 0.542886 0.5
8 1 0.274572 0.596077 0.5
14 1 0.399106 0.624231 0.5
3 1 0.750433 0.605087 0.5
21 2 0.802032 0.624303 0.5
23 2 0.807873 0.624788 0.5
67 4 0.797921 0.580717 0.5
77 4 0.25759 0.639643 0.5
78 4 0.315265 0.681057 0.5
72 4 0.383666 0.659821 0.5
9 1 0.45613 0.65852 0.5
50 3 0.436269 0.673483 0.5
28 2 0.677079 0.658807 0.5
22 2 0.761957 0.639223 0.5
2 1 0.0789557 0.711569 0.5
43 3 0.0847286 0.707594 0.5
19 1 0.363284 0.725499 0.5
70 4 0.353052 0.715467 0.5
30 2 0.541185 0.703006 0.5
69 4 0.020909 0.75767 0.5
24 2 0.0925889 0.765392 0.5
11 1 0.825415 0.741691 0.5
32 2 0.994174 0.740137 0.5
17 1 0.0133771 0.828282 0.5
76 4 0.0825779 0.885976 0.5
4 1 0.297323 0.855325 0.5
13 1 0.281645 0.858171 0.5
7 1 0.579214 0.853156 0.5
31 2 0.686788 0.846441 0.5
15 1 0.841963 0.875601 0.5
5 1 0.262534 0.946201 0.5
54 3 0.326979 0.922293 0.5
63 4 0.385847 0.93356 0.5
16 1 0.482234 0.899481 0.5
60 3 0.59871 0.945036 0.5
62 4 0.751348 0.913504 0.5
44 3 0.0251526 0.988272 0.5
75 4 0.170822 0.997289 0.5
27 2 0.315398 0.975486 0.5
65 4 0.460641 0.988077 0.5
39 2 0.642079 0.983855 0.5
ITEM: TIMESTEP
30
ITEM: NUMBER OF ATOMS
80
ITEM: BOX BOUNDS pp pp pp
-7.6507815611429146e+00 7.6507815611429146e+00
-7.6507815611429146e+00 7.6507815611429146e+00
-1.0000000000000001e-01 1.0000000000000001e-01
ITEM: ATOMS id type xs ys zs
71 4 0.0541559 0.0205958 0.5
41 3 0.21527 0.0414446 0.5
35 2 0.287267 0.00448864 0.5
33 2 0.754272 0.042739 0.5
49 3 0.145362 0.102899 0.5
47 3 0.880065 0.0738661 0.5
12 1 0.00688419 0.117867 0.5
45 3 0.847496 0.121723 0.5
80 4 0.861736 0.12648 0.5
6 1 0.997535 0.147192 0.5
57 3 0.573285 0.195661 0.5
61 4 0.129027 0.248554 0.5
25 2 0.170697 0.213265 0.5
64 4 0.329519 0.223337 0.5
36 2 0.360068 0.303726 0.5
66 4 0.31734 0.269912 0.5
74 4 0.401181 0.265045 0.5
68 4 0.0633097 0.344562 0.5
34 2 0.724303 0.354132 0.5
26 2 0.912972 0.319698 0.5
10 1 0.0639482 0.409463 0.5
58 3 0.102137 0.373693 0.5
73 4 0.164004 0.407354 0.5
46 3 0.487677 0.390645 0.5
29 2 0.666129 0.379817 0.5
40 2 0.640796 0.409346 0.5
1 1 0.822941 0.397498 0.5
20 1 0.793135 0.384073 0.5
55 3 0.894575 0.403188 0.5
48 3 0.00143598 0.450803 0.5
37 2 0.612531 0.471788 0.5
18 1 0.714351 0.430498 0.5
51 3 0.26278 0.484292 0.5
53 3 0.434433 0.507509 0.5
38 2 0.758754 0.515271 0.5
56 3 0.826958 0.522903 0.5
59 3 0.832658 0.496737 0.5
52 3 0.25573 0.540481 0.5
42 3 0.662197 0.549709 0.5
79 4 0.938213 0.542886 0.5
8 1 0.274804 0.596009 0.5
14 1 0.398766 0.623279 0.5
3 1 0.748939 0.603906 0.5
21 2 0.801717 0.624409 0.5
23 2 0.810368 0.625122 0.5
67 4 0.798054 0.580126 0.5
77 4 0.257454 0.639993 0.5
78 4 0.315244 0.681038 0.5
72 4 0.383444 0.660324 0.5
9 1 0.457401 0.658135 0.5
50 3 0.435564 0.674308 0.5
28 2 0.677077 0.658808 0.5
22 2 0.76114 0.640557 0.5
2 1 0.0776407 0.711887 0.5
43 3 0.0858992 0.706618 0.5
19 1 0.364095 0.726304 0.5
70 4 0.352259 0.71469 0.5
30 2 0.541185 0.703006 0.5
69 4 0.0213477 0.757955 0.5
24 2 0.0927372 0.766049 0.5
11 1 0.825415 0.741691 0.5
32 2 0.993731 0.739849 0.5
17 1 0.0133771 0.828286 0.5
76 4 0.0825779 0.885976 0.5
4 1 0.298919 0.854992 0.5
13 1 0.280042 0.858411 0.5
7 1 0.579214 0.853156 0.5
31 2 0.686788 0.846441 0.5
15 1 0.841963 0.875601 0.5
5 1 0.261888 0.945704 0.5
54 3 0.327125 0.922107 0.5
63 4 0.385847 0.93356 0.5
16 1 0.482234 0.899481 0.5
60 3 0.59862 0.944956 0.5
62 4 0.751348 0.913504 0.5
44 3 0.0250973 0.988211 0.5
75 4 0.170822 0.997289 0.5
27 2 0.316257 0.975378 0.5
65 4 0.460641 0.988077 0.5
39 2 0.642168 0.983935 0.5
ITEM: TIMESTEP
40
ITEM: NUMBER OF ATOMS
80
ITEM: BOX BOUNDS pp pp pp
-7.1808824862105753e+00 7.1808824862105753e+00
-7.1808824862105753e+00 7.1808824862105753e+00
-1.0000000000000001e-01 1.0000000000000001e-01
ITEM: ATOMS id type xs ys zs
71 4 0.0542786 0.0207326 0.5
41 3 0.21527 0.0414446 0.5
35 2 0.286719 0.00594801 0.5
33 2 0.754272 0.042739 0.5
49 3 0.145362 0.102899 0.5
47 3 0.880109 0.0737997 0.5
12 1 0.00752959 0.115843 0.5
45 3 0.846339 0.121413 0.5
80 4 0.86285 0.126857 0.5
6 1 0.996889 0.149217 0.5
57 3 0.573285 0.195661 0.5
61 4 0.128925 0.24864 0.5
25 2 0.170799 0.213179 0.5
64 4 0.329519 0.223337 0.5
36 2 0.360103 0.303878 0.5
66 4 0.317233 0.269828 0.5
74 4 0.401252 0.264978 0.5
68 4 0.0632488 0.344401 0.5
34 2 0.72442 0.353638 0.5
26 2 0.912972 0.319698 0.5
10 1 0.0634673 0.410053 0.5
58 3 0.102761 0.373209 0.5
73 4 0.164004 0.407354 0.5
46 3 0.487677 0.390645 0.5
29 2 0.666289 0.378692 0.5
40 2 0.639823 0.410011 0.5
1 1 0.824673 0.398328 0.5
20 1 0.791615 0.383269 0.5
55 3 0.894716 0.4032 0.5
48 3 0.00135415 0.450857 0.5
37 2 0.612442 0.471984 0.5
18 1 0.714779 0.431213 0.5
51 3 0.262791 0.4842 0.5
53 3 0.434433 0.507509 0.5
38 2 0.758702 0.515227 0.5
56 3 0.826788 0.523949 0.5
59 3 0.832887 0.495697 0.5
52 3 0.255545 0.540063 0.5
42 3 0.662197 0.549709 0.5
79 4 0.938213 0.542886 0.5
8 1 0.275211 0.595922 0.5
14 1 0.398146 0.62167 0.5
3 1 0.746492 0.602056 0.5
21 2 0.801344 0.624627 0.5
23 2 0.8143 0.625687 0.5
67 4 0.798294 0.57909 0.5
77 4 0.257221 0.64059 0.5
78 4 0.315175 0.680974 0.5
72 4 0.383079 0.6611 0.5
9 1 0.459448 0.657567 0.5
50 3 0.434511 0.675652 0.5
28 2 0.677046 0.65883 0.5
22 2 0.759813 0.642682 0.5
2 1 0.0756287 0.712256 0.5
43 3 0.0877128 0.705075 0.5
19 1 0.365377 0.727628 0.5
70 4 0.35103 0.713484 0.5
30 2 0.541193 0.70301 0.5
69 4 0.0220441 0.758398 0.5
24 2 0.0929982 0.767195 0.5
11 1 0.825415 0.741691 0.5
32 2 0.992969 0.739369 0.5
17 1 0.0133801 0.82835 0.5
76 4 0.0825779 0.885976 0.5
4 1 0.301376 0.85437 0.5
13 1 0.277559 0.858661 0.5
7 1 0.579216 0.853156 0.5
31 2 0.686788 0.846441 0.5
15 1 0.841963 0.875601 0.5
5 1 0.260692 0.944996 0.5
54 3 0.327489 0.921817 0.5
63 4 0.385847 0.93356 0.5
16 1 0.482232 0.899482 0.5
60 3 0.598426 0.944782 0.5
62 4 0.751348 0.913504 0.5
44 3 0.0249746 0.988074 0.5
75 4 0.170822 0.997289 0.5
27 2 0.317662 0.975289 0.5
65 4 0.460641 0.988077 0.5
39 2 0.642362 0.984109 0.5
ITEM: TIMESTEP
50
ITEM: NUMBER OF ATOMS
80
ITEM: BOX BOUNDS pp pp pp
-6.8788462235469989e+00 6.8788462235469989e+00
-6.8788462235469989e+00 6.8788462235469989e+00
-1.0000000000000001e-01 1.0000000000000001e-01
ITEM: ATOMS id type xs ys zs
71 4 0.054488 0.020966 0.5
41 3 0.215263 0.0414477 0.5
35 2 0.285976 0.00803186 0.5
33 2 0.754272 0.042739 0.5
49 3 0.145362 0.102899 0.5
47 3 0.880211 0.0736382 0.5
12 1 0.00841338 0.113071 0.5
45 3 0.844721 0.121039 0.5
80 4 0.864365 0.127392 0.5
6 1 0.996005 0.151989 0.5
57 3 0.573285 0.195661 0.5
61 4 0.128731 0.248804 0.5
25 2 0.170993 0.213015 0.5
64 4 0.32952 0.223332 0.5
36 2 0.360158 0.304176 0.5
66 4 0.31703 0.269673 0.5
74 4 0.401399 0.26484 0.5
68 4 0.0631217 0.344077 0.5
34 2 0.724568 0.352771 0.5
26 2 0.912972 0.319698 0.5
10 1 0.0628382 0.410928 0.5
58 3 0.103705 0.372536 0.5
73 4 0.164004 0.407354 0.5
46 3 0.487677 0.390645 0.5
29 2 0.666375 0.377093 0.5
40 2 0.63842 0.410828 0.5
1 1 0.826943 0.399465 0.5
20 1 0.789742 0.382152 0.5
55 3 0.895018 0.403222 0.5
48 3 0.00116664 0.450981 0.5
37 2 0.612277 0.47235 0.5
18 1 0.71539 0.432409 0.5
51 3 0.262816 0.484004 0.5
53 3 0.434433 0.507509 0.5
38 2 0.758576 0.515119 0.5
56 3 0.826618 0.525408 0.5
59 3 0.833226 0.494248 0.5
52 3 0.255253 0.539481 0.5
42 3 0.662197 0.549709 0.5
79 4 0.938213 0.542886 0.5
8 1 0.275822 0.595825 0.5
14 1 0.397205 0.619326 0.5
3 1 0.743066 0.599532 0.5
21 2 0.80096 0.624979 0.5
23 2 0.819697 0.626493 0.5
67 4 0.798655 0.577564 0.5
77 4 0.256876 0.641465 0.5
78 4 0.315034 0.680843 0.5
72 4 0.382533 0.662128 0.5
9 1 0.462298 0.656803 0.5
50 3 0.433157 0.677542 0.5
28 2 0.676906 0.658912 0.5
22 2 0.757985 0.645632 0.5
2 1 0.0729715 0.712576 0.5
43 3 0.0901897 0.702954 0.5
19 1 0.367122 0.729556 0.5
70 4 0.349363 0.711847 0.5
30 2 0.541247 0.70304 0.5
69 4 0.0229852 0.759004 0.5
24 2 0.0933998 0.768885 0.5
11 1 0.825415 0.741691 0.5
32 2 0.991803 0.738664 0.5
17 1 0.0133836 0.828561 0.5
76 4 0.0825779 0.885976 0.5
4 1 0.304711 0.853369 0.5
13 1 0.274172 0.858831 0.5
7 1 0.579242 0.853143 0.5
31 2 0.686788 0.846441 0.5
15 1 0.841963 0.875601 0.5
5 1 0.258834 0.944146 0.5
54 3 0.328148 0.921444 0.5
63 4 0.38585 0.93356 0.5
16 1 0.482206 0.899494 0.5
60 3 0.598098 0.944488 0.5
62 4 0.751348 0.913504 0.5
44 3 0.0247652 0.987841 0.5
75 4 0.170822 0.997289 0.5
27 2 0.31966 0.975257 0.5
65 4 0.460641 0.988077 0.5
39 2 0.642691 0.984403 0.5
ITEM: TIMESTEP
60
ITEM: NUMBER OF ATOMS
80
ITEM: BOX BOUNDS pp pp pp
-6.6893054193646169e+00 6.6893054193646169e+00
-6.6893054193646169e+00 6.6893054193646169e+00
-1.0000000000000001e-01 1.0000000000000001e-01
ITEM: ATOMS id type xs ys zs
71 4 0.0547942 0.0213072 0.5
41 3 0.215223 0.0414673 0.5
35 2 0.28507 0.0107207 0.5
33 2 0.754272 0.042739 0.5
49 3 0.145362 0.102899 0.5
47 3 0.880389 0.0733509 0.5
12 1 0.00952417 0.109587 0.5
45 3 0.842651 0.120623 0.5
80 4 0.866257 0.128095 0.5
6 1 0.994895 0.155473 0.5
57 3 0.573285 0.195661 0.5
61 4 0.12843 0.249059 0.5
25 2 0.171294 0.21276 0.5
64 4 0.329527 0.223307 0.5
36 2 0.360233 0.304649 0.5
66 4 0.316711 0.26945 0.5
74 4 0.401636 0.264615 0.5
68 4 0.0629154 0.343561 0.5
34 2 0.724735 0.35148 0.5
26 2 0.912972 0.319698 0.5
10 1 0.0620886 0.41209 0.5
58 3 0.104986 0.371676 0.5
73 4 0.164004 0.407354 0.5
46 3 0.487677 0.390645 0.5
29 2 0.666345 0.375019 0.5
40 2 0.636588 0.411753 0.5
1 1 0.829679 0.400893 0.5
20 1 0.787621 0.380723 0.5
55 3 0.895528 0.403256 0.5
48 3 0.000841418 0.451194 0.5
37 2 0.612025 0.472923 0.5
18 1 0.71615 0.434115 0.5
51 3 0.262859 0.483677 0.5
53 3 0.434433 0.507509 0.5
38 2 0.758361 0.514939 0.5
56 3 0.826488 0.527255 0.5
59 3 0.83369 0.492406 0.5
52 3 0.25484 0.538744 0.5
42 3 0.662191 0.549705 0.5
79 4 0.938213 0.542886 0.5
8 1 0.276655 0.595727 0.5
14 1 0.395937 0.616241 0.5
3 1 0.738743 0.596387 0.5
21 2 0.800593 0.625469 0.5
23 2 0.826439 0.627522 0.5
67 4 0.799128 0.575578 0.5
77 4 0.256414 0.642627 0.5
78 4 0.314795 0.680622 0.5
72 4 0.381799 0.663373 0.5
9 1 0.465887 0.655836 0.5
50 3 0.431578 0.679941 0.5
28 2 0.676585 0.659092 0.5
22 2 0.755734 0.649374 0.5
2 1 0.0697618 0.712759 0.5
43 3 0.0933041 0.700295 0.5
19 1 0.369269 0.732132 0.5
70 4 0.347304 0.709819 0.5
30 2 0.541389 0.703122 0.5
69 4 0.0241282 0.75977 0.5
24 2 0.0939885 0.771102 0.5
11 1 0.825415 0.741691 0.5
32 2 0.990186 0.737726 0.5
17 1 0.0133646 0.828991 0.5
76 4 0.0825779 0.885976 0.5
4 1 0.30888 0.851947 0.5
13 1 0.269926 0.85885 0.5
7 1 0.579323 0.853094 0.5
31 2 0.686788 0.846441 0.5
15 1 0.841963 0.875601 0.5
5 1 0.256281 0.943225 0.5
54 3 0.329117 0.921001 0.5
63 4 0.385872 0.933565 0.5
16 1 0.482122 0.899534 0.5
60 3 0.597622 0.94407 0.5
62 4 0.751348 0.913504 0.5
44 3 0.024459 0.987499 0.5
75 4 0.170821 0.997288 0.5
27 2 0.322247 0.97531 0.5
65 4 0.460641 0.988077 0.5
39 2 0.643168 0.98483 0.5
ITEM: TIMESTEP
70
ITEM: NUMBER OF ATOMS
80
ITEM: BOX BOUNDS pp pp pp
-6.5917523586345981e+00 6.5917523586345981e+00
-6.5917523586345981e+00 6.5917523586345981e+00
-1.0000000000000001e-01 1.0000000000000001e-01
ITEM: ATOMS id type xs ys zs
71 4 0.0551979 0.0217571 0.5
41 3 0.215123 0.0415187 0.5
35 2 0.284051 0.0139448 0.5
33 2 0.754272 0.042739 0.5
49 3 0.145362 0.102899 0.5
47 3 0.880648 0.0729269 0.5
12 1 0.0108349 0.105476 0.5
45 3 0.840172 0.120185 0.5
80 4 0.868478 0.128957 0.5
6 1 0.993584 0.159584 0.5
57 3 0.573285 0.195661 0.5
61 4 0.128018 0.249408 0.5
25 2 0.171706 0.212411 0.5
64 4 0.329542 0.223251 0.5
36 2 0.360328 0.305308 0.5
66 4 0.316268 0.269165 0.5
74 4 0.401969 0.264298 0.5
68 4 0.0626269 0.342852 0.5
34 2 0.724901 0.349754 0.5
26 2 0.912973 0.319694 0.5
10 1 0.0612546 0.413515 0.5
58 3 0.106591 0.370646 0.5
73 4 0.164004 0.407354 0.5
46 3 0.487677 0.390645 0.5
29 2 0.666171 0.372509 0.5
40 2 0.634366 0.412738 0.5
1 1 0.832782 0.402556 0.5
20 1 0.785364 0.378998 0.5
55 3 0.896276 0.403304 0.5
48 3 0.00035814 0.451508 0.5
37 2 0.61168 0.473723 0.5
18 1 0.717004 0.436306 0.5
51 3 0.262923 0.483204 0.5
53 3 0.434433 0.507509 0.5
38 2 0.758064 0.514674 0.5
56 3 0.826438 0.529422 0.5
59 3 0.83428 0.490239 0.5
52 3 0.254299 0.537871 0.5
42 3 0.662139 0.549674 0.5
79 4 0.938213 0.542886 0.5
8 1 0.277709 0.595636 0.5
14 1 0.394372 0.61249 0.5
3 1 0.733724 0.592746 0.5
21 2 0.800257 0.626079 0.5
23 2 0.834275 0.628721 0.5
67 4 0.799688 0.573241 0.5
77 4 0.255835 0.644064 0.5
78 4 0.314446 0.680299 0.5
72 4 0.380894 0.664784 0.5
9 1 0.470084 0.654667 0.5
50 3 0.429855 0.682766 0.5
28 2 0.676032 0.659394 0.5
22 2 0.753178 0.653814 0.5
2 1 0.0661208 0.712735 0.5
43 3 0.0969884 0.697185 0.5
19 1 0.371726 0.735331 0.5
70 4 0.344933 0.70747 0.5
30 2 0.541651 0.703279 0.5
69 4 0.0254132 0.760689 0.5
24 2 0.0948026 0.773781 0.5
11 1 0.825415 0.741691 0.5
32 2 0.988107 0.736573 0.5
17 1 0.0133008 0.829681 0.5
76 4 0.0825779 0.885976 0.5
4 1 0.31378 0.850113 0.5
13 1 0.264927 0.858678 0.5
7 1 0.579471 0.852978 0.5
31 2 0.686794 0.84644 0.5
15 1 0.841963 0.875601 0.5
5 1 0.253075 0.942295 0.5
54 3 0.330362 0.920497 0.5
63 4 0.385932 0.933577 0.5
16 1 0.481961 0.899611 0.5
60 3 0.597003 0.943548 0.5
62 4 0.751348 0.913504 0.5
44 3 0.0240553 0.987049 0.5
75 4 0.170817 0.997284 0.5
27 2 0.325369 0.975468 0.5
65 4 0.460641 0.988077 0.5
39 2 0.643795 0.985391 0.5
ITEM: TIMESTEP
80
ITEM: NUMBER OF ATOMS
80
ITEM: BOX BOUNDS pp pp pp
-6.5716748918695576e+00 6.5716748918695576e+00
-6.5716748918695576e+00 6.5716748918695576e+00
-1.0000000000000001e-01 1.0000000000000001e-01
ITEM: ATOMS id type xs ys zs
71 4 0.0556908 0.0223064 0.5
41 3 0.214948 0.0416127 0.5
35 2 0.28297 0.0175926 0.5
33 2 0.754272 0.042739 0.5
49 3 0.145362 0.102899 0.5
47 3 0.880983 0.0723769 0.5
12 1 0.012304 0.100868 0.5
45 3 0.837358 0.11974 0.5
80 4 0.870957 0.129953 0.5
6 1 0.992115 0.164192 0.5
57 3 0.573285 0.195661 0.5
61 4 0.1275 0.249847 0.5
25 2 0.172224 0.211972 0.5
64 4 0.329568 0.223159 0.5
36 2 0.360439 0.306145 0.5
66 4 0.315707 0.268826 0.5
74 4 0.402394 0.263891 0.5
68 4 0.0622633 0.341972 0.5
34 2 0.725048 0.347622 0.5
26 2 0.912976 0.319676 0.5
10 1 0.0603792 0.415152 0.5
58 3 0.108479 0.369472 0.5
73 4 0.164004 0.407354 0.5
46 3 0.487677 0.390645 0.5
29 2 0.665846 0.369634 0.5
40 2 0.631824 0.413735 0.5
1 1 0.836124 0.40438 0.5
20 1 0.783079 0.37702 0.5
55 3 0.897278 0.403369 0.5
48 3 0.99971 0.451925 0.5
37 2 0.611249 0.474754 0.5
18 1 0.717897 0.438903 0.5
51 3 0.26301 0.482584 0.5
53 3 0.434433 0.507509 0.5
38 2 0.75771 0.514319 0.5
56 3 0.826502 0.531818 0.5
59 3 0.834977 0.487851 0.5
52 3 0.253633 0.53689 0.5
42 3 0.661998 0.549589 0.5
79 4 0.938213 0.542886 0.5
8 1 0.278949 0.595558 0.5
14 1 0.392589 0.608217 0.5
3 1 0.728282 0.588781 0.5
21 2 0.799953 0.626781 0.5
23 2 0.842847 0.630019 0.5
67 4 0.800309 0.570707 0.5
77 4 0.255149 0.64574 0.5
78 4 0.31399 0.679877 0.5
72 4 0.379851 0.666303 0.5
9 1 0.47471 0.653307 0.5
50 3 0.428065 0.685893 0.5
28 2 0.675225 0.659824 0.5
22 2 0.750467 0.658805 0.5
2 1 0.0621914 0.71246 0.5
43 3 0.101134 0.693748 0.5
19 1 0.37438 0.739067 0.5
70 4 0.34235 0.704895 0.5
30 2 0.542051 0.70353 0.5
69 4 0.0267803 0.761746 0.5
24 2 0.0958513 0.776807 0.5
11 1 0.825415 0.741691 0.5
32 2 0.985599 0.73525 0.5
17 1 0.0131768 0.830632 0.5
76 4 0.0825779 0.885976 0.5
4 1 0.319253 0.847922 0.5
13 1 0.259347 0.858295 0.5
7 1 0.579678 0.85278 0.5
31 2 0.686816 0.846439 0.5
15 1 0.841963 0.875601 0.5
5 1 0.249339 0.941407 0.5
54 3 0.331804 0.919934 0.5
63 4 0.386055 0.933593 0.5
16 1 0.481716 0.899728 0.5
60 3 0.596256 0.942947 0.5
62 4 0.751348 0.913504 0.5
44 3 0.0235625 0.9865 0.5
75 4 0.170803 0.99727 0.5
27 2 0.328916 0.975746 0.5
65 4 0.460641 0.988077 0.5
39 2 0.644559 0.986074 0.5
ITEM: TIMESTEP
90
ITEM: NUMBER OF ATOMS
80
ITEM: BOX BOUNDS pp pp pp
-6.6090164049522340e+00 6.6090164049522340e+00
-6.6090164049522340e+00 6.6090164049522340e+00
-1.0000000000000001e-01 1.0000000000000001e-01
ITEM: ATOMS id type xs ys zs
71 4 0.0562579 0.0229371 0.5
41 3 0.214684 0.0417511 0.5
35 2 0.281881 0.0215317 0.5
33 2 0.754272 0.042739 0.5
49 3 0.145362 0.102899 0.5
47 3 0.881378 0.0717286 0.5
12 1 0.0138825 0.0959164 0.5
45 3 0.834306 0.119295 0.5
80 4 0.873613 0.131046 0.5
6 1 0.990536 0.169144 0.5
57 3 0.573285 0.195661 0.5
61 4 0.126893 0.25036 0.5
25 2 0.172831 0.211458 0.5
64 4 0.329605 0.223032 0.5
36 2 0.360563 0.307137 0.5
66 4 0.315043 0.268448 0.5
74 4 0.402896 0.263405 0.5
68 4 0.0618397 0.340959 0.5
34 2 0.725157 0.345145 0.5
26 2 0.912983 0.319644 0.5
10 1 0.0595062 0.416935 0.5
58 3 0.110585 0.368186 0.5
73 4 0.164004 0.407354 0.5
46 3 0.487677 0.390645 0.5
29 2 0.665377 0.366491 0.5
40 2 0.62905 0.414699 0.5
1 1 0.839576 0.406291 0.5
20 1 0.780858 0.374845 0.5
55 3 0.898531 0.403444 0.5
48 3 0.9989 0.45244 0.5
37 2 0.610744 0.476005 0.5
18 1 0.718771 0.441786 0.5
51 3 0.263121 0.481824 0.5
53 3 0.434433 0.507509 0.5
38 2 0.757345 0.513881 0.5
56 3 0.826703 0.534344 0.5
59 3 0.835747 0.485353 0.5
52 3 0.25285 0.535834 0.5
42 3 0.661729 0.549428 0.5
79 4 0.938213 0.542886 0.5
8 1 0.280323 0.595497 0.5
14 1 0.390698 0.603601 0.5
3 1 0.722659 0.584668 0.5
21 2 0.799674 0.627533 0.5
23 2 0.851807 0.631353 0.5
67 4 0.800957 0.568132 0.5
77 4 0.254371 0.647608 0.5
78 4 0.313442 0.679373 0.5
72 4 0.378698 0.667872 0.5
9 1 0.47958 0.651772 0.5
50 3 0.426277 0.689178 0.5
28 2 0.674172 0.660373 0.5
22 2 0.747752 0.664173 0.5
2 1 0.0581182 0.711915 0.5
43 3 0.105611 0.690129 0.5
19 1 0.377112 0.743213 0.5
70 4 0.339665 0.702196 0.5
30 2 0.542593 0.703887 0.5
69 4 0.0281796 0.762925 0.5
24 2 0.0971157 0.780046 0.5
11 1 0.825415 0.741691 0.5
32 2 0.982724 0.733819 0.5
17 1 0.0129847 0.83181 0.5
76 4 0.0825779 0.885976 0.5
4 1 0.325105 0.845473 0.5
13 1 0.253387 0.857711 0.5
7 1 0.579937 0.852496 0.5
31 2 0.686857 0.846437 0.5
15 1 0.841963 0.875601 0.5
5 1 0.245252 0.940598 0.5
54 3 0.333333 0.91931 0.5
63 4 0.386263 0.933603 0.5
16 1 0.481391 0.899884 0.5
60 3 0.595404 0.942293 0.5
62 4 0.751348 0.913504 0.5
44 3 0.0229958 0.985869 0.5
75 4 0.17078 0.997247 0.5
27 2 0.332747 0.976155 0.5
65 4 0.460641 0.988077 0.5
39 2 0.645435 0.986859 0.5
ITEM: TIMESTEP
100
ITEM: NUMBER OF ATOMS
80
ITEM: BOX BOUNDS pp pp pp
-6.6770651278448963e+00 6.6770651278448963e+00
-6.6770651278448963e+00 6.6770651278448963e+00
-1.0000000000000001e-01 1.0000000000000001e-01
ITEM: ATOMS id type xs ys zs
71 4 0.0568904 0.0236149 0.5
41 3 0.214325 0.0419286 0.5
35 2 0.280825 0.0256373 0.5
33 2 0.754272 0.042739 0.5
49 3 0.145362 0.102899 0.5
47 3 0.881812 0.0710192 0.5
12 1 0.0155164 0.0907778 0.5
45 3 0.831113 0.118855 0.5
80 4 0.876372 0.132195 0.5
6 1 0.988892 0.174299 0.5
57 3 0.573285 0.195661 0.5
61 4 0.126217 0.250933 0.5
25 2 0.173508 0.210885 0.5
64 4 0.329651 0.222873 0.5
36 2 0.360698 0.308254 0.5
66 4 0.314298 0.268039 0.5
74 4 0.40346 0.262855 0.5
68 4 0.0613754 0.339861 0.5
34 2 0.725214 0.342395 0.5
26 2 0.912991 0.319599 0.5
10 1 0.0586742 0.418797 0.5
58 3 0.112843 0.366821 0.5
73 4 0.164004 0.407354 0.5
46 3 0.487677 0.390645 0.5
29 2 0.66478 0.363179 0.5
40 2 0.62613 0.415598 0.5
1 1 0.843037 0.408227 0.5
20 1 0.778764 0.372533 0.5
55 3 0.900028 0.403517 0.5
48 3 0.997939 0.453043 0.5
37 2 0.61018 0.477458 0.5
18 1 0.71957 0.444814 0.5
51 3 0.263256 0.480939 0.5
53 3 0.434433 0.507509 0.5
38 2 0.757024 0.513377 0.5
56 3 0.827054 0.536911 0.5
59 3 0.836553 0.482847 0.5
52 3 0.251961 0.534732 0.5
42 3 0.6613 0.549175 0.5
79 4 0.938213 0.542886 0.5
8 1 0.281784 0.595458 0.5
14 1 0.388801 0.598823 0.5
3 1 0.717048 0.580563 0.5
21 2 0.799406 0.628294 0.5
23 2 0.860929 0.632689 0.5
67 4 0.801578 0.56563 0.5
77 4 0.25352 0.649619 0.5
78 4 0.312809 0.678796 0.5
72 4 0.377469 0.669443 0.5
9 1 0.484526 0.650076 0.5
50 3 0.424539 0.69248 0.5
28 2 0.672897 0.661016 0.5
22 2 0.745109 0.669765 0.5
2 1 0.0540226 0.711105 0.5
43 3 0.110297 0.686437 0.5
19 1 0.379845 0.747614 0.5
70 4 0.336969 0.69947 0.5
30 2 0.543272 0.704359 0.5
69 4 0.0295777 0.76421 0.5
24 2 0.0985567 0.783384 0.5
11 1 0.825415 0.741692 0.5
32 2 0.979556 0.732346 0.5
17 1 0.012723 0.833162 0.5
76 4 0.0825779 0.885976 0.5
4 1 0.331146 0.842885 0.5
13 1 0.247227 0.856935 0.5
7 1 0.580236 0.852136 0.5
31 2 0.686916 0.846433 0.5
15 1 0.841963 0.875601 0.5
5 1 0.241002 0.939904 0.5
54 3 0.334847 0.918626 0.5
63 4 0.386568 0.933598 0.5
16 1 0.480999 0.900071 0.5
60 3 0.594474 0.941608 0.5
62 4 0.751348 0.913504 0.5
44 3 0.0223729 0.985174 0.5
75 4 0.170749 0.997216 0.5
27 2 0.336721 0.976695 0.5
65 4 0.460641 0.988077 0.5
39 2 0.646399 0.98772 0.5
ITEM: TIMESTEP
110
ITEM: NUMBER OF ATOMS
80
ITEM: BOX BOUNDS pp pp pp
-6.7415310195861435e+00 6.7415310195861435e+00
-6.7415310195861435e+00 6.7415310195861435e+00
-1.0000000000000001e-01 1.0000000000000001e-01
ITEM: ATOMS id type xs ys zs
71 4 0.0575901 0.0242971 0.5
41 3 0.213861 0.0421367 0.5
35 2 0.27983 0.0298181 0.5
33 2 0.754272 0.042739 0.5
49 3 0.145362 0.102899 0.5
47 3 0.882263 0.0702854 0.5
12 1 0.0171563 0.085581 0.5
45 3 0.827855 0.118416 0.5
80 4 0.87918 0.133368 0.5
6 1 0.987217 0.179554 0.5
57 3 0.573285 0.195661 0.5
61 4 0.125487 0.251551 0.5
25 2 0.174237 0.210268 0.5
64 4 0.329707 0.222687 0.5
36 2 0.360841 0.30947 0.5
66 4 0.313488 0.267609 0.5
74 4 0.404071 0.262255 0.5
68 4 0.0608892 0.33872 0.5
34 2 0.725208 0.33943 0.5
26 2 0.913001 0.319547 0.5
10 1 0.0579123 0.42068 0.5
58 3 0.115195 0.365396 0.5
73 4 0.164004 0.407354 0.5
46 3 0.487677 0.390645 0.5
29 2 0.664071 0.359776 0.5
40 2 0.623129 0.416413 0.5
1 1 0.846441 0.410146 0.5
20 1 0.776833 0.370135 0.5
55 3 0.901764 0.403575 0.5
48 3 0.996835 0.453725 0.5
37 2 0.609572 0.479101 0.5
18 1 0.720245 0.447855 0.5
51 3 0.263417 0.47994 0.5
53 3 0.434433 0.507509 0.5
38 2 0.756801 0.512833 0.5
56 3 0.827568 0.539456 0.5
59 3 0.837358 0.480409 0.5
52 3 0.250973 0.533605 0.5
42 3 0.660682 0.548815 0.5
79 4 0.938213 0.542886 0.5
8 1 0.283295 0.595449 0.5
14 1 0.386979 0.594012 0.5
3 1 0.711584 0.576592 0.5
21 2 0.799135 0.629031 0.5
23 2 0.8701 0.634013 0.5
67 4 0.80211 0.563257 0.5
77 4 0.252608 0.651739 0.5
78 4 0.312082 0.67814 0.5
72 4 0.376191 0.670984 0.5
9 1 0.489425 0.648227 0.5
50 3 0.422889 0.695703 0.5
28 2 0.671428 0.661726 0.5
22 2 0.742558 0.675473 0.5
2 1 0.0499877 0.710044 0.5
43 3 0.115109 0.682726 0.5
19 1 0.382547 0.752148 0.5
70 4 0.334327 0.696791 0.5
30 2 0.54408 0.704953 0.5
69 4 0.0309601 0.76559 0.5
24 2 0.100128 0.786763 0.5
11 1 0.82542 0.741696 0.5
32 2 0.976156 0.730888 0.5
17 1 0.0123928 0.834634 0.5
76 4 0.0825779 0.885976 0.5
4 1 0.337245 0.840244 0.5
13 1 0.240983 0.855967 0.5
7 1 0.580569 0.851711 0.5
31 2 0.686985 0.846429 0.5
15 1 0.841963 0.875601 0.5
5 1 0.236733 0.939373 0.5
54 3 0.336279 0.91789 0.5
63 4 0.386977 0.933572 0.5
16 1 0.480558 0.900283 0.5
60 3 0.593485 0.940907 0.5
62 4 0.751348 0.913504 0.5
44 3 0.0217087 0.984434 0.5
75 4 0.170712 0.997179 0.5
27 2 0.340728 0.977365 0.5
65 4 0.460641 0.988077 0.5
39 2 0.647426 0.988639 0.5
ITEM: TIMESTEP
120
ITEM: NUMBER OF ATOMS
80
ITEM: BOX BOUNDS pp pp pp
-6.7697205304673718e+00 6.7697205304673718e+00
-6.7697205304673718e+00 6.7697205304673718e+00
-1.0000000000000001e-01 1.0000000000000001e-01
ITEM: ATOMS id type xs ys zs
71 4 0.0583673 0.0249492 0.5
41 3 0.213287 0.0423681 0.5
35 2 0.278911 0.0340309 0.5
33 2 0.754272 0.042739 0.5
49 3 0.145362 0.102899 0.5
47 3 0.882716 0.069553 0.5
12 1 0.0187682 0.0803994 0.5
45 3 0.824574 0.117973 0.5
80 4 0.882007 0.134543 0.5
6 1 0.985525 0.18486 0.5
57 3 0.573285 0.195661 0.5
61 4 0.124715 0.252205 0.5
25 2 0.175009 0.209614 0.5
64 4 0.329772 0.222477 0.5
36 2 0.360991 0.310768 0.5
66 4 0.312625 0.267163 0.5
74 4 0.404719 0.261613 0.5
68 4 0.0603955 0.337565 0.5
34 2 0.725132 0.33627 0.5
26 2 0.913011 0.319491 0.5
10 1 0.0572405 0.42255 0.5
58 3 0.11761 0.363921 0.5
73 4 0.164004 0.407354 0.5
46 3 0.487677 0.390645 0.5
29 2 0.663259 0.356327 0.5
40 2 0.620077 0.417136 0.5
1 1 0.849768 0.412026 0.5
20 1 0.775072 0.367684 0.5
55 3 0.903749 0.403603 0.5
48 3 0.995585 0.454485 0.5
37 2 0.608926 0.480935 0.5
18 1 0.720756 0.450814 0.5
51 3 0.263605 0.478829 0.5
53 3 0.434433 0.507509 0.5
38 2 0.756718 0.512273 0.5
56 3 0.82826 0.541951 0.5
59 3 0.838145 0.478084 0.5
52 3 0.249887 0.53246 0.5