LAMMPS data file via write_data, version 23 Jun 2022, timestep = 10000

80 atoms
4 atom types

-4.806892692967121 4.806892692967121 xlo xhi
-4.806892692967121 4.806892692967121 ylo yhi
-0.1 0.1 zlo zhi

Atoms # sphere

23 2 1.3 0.4551661356395083 -3.8514855853933367 4.710421420816672 0 1 -1 0
24 2 1.3 0.4551661356395083 -2.686911436878482 4.7419486935873625 0 0 -1 0
21 2 1.3 0.4551661356395083 -1.1690159245219158 -4.735553286997471 0 0 0 0
48 3 1 1 -0.791196385569843 -3.54882389729086 0 0 1 0
51 3 1 1 -0.29170110599446986 -4.158778847293128 0 0 1 0
50 3 1 1 0.5031678347898234 -3.9567144636409664 0 0 1 0
56 3 1 1 1.4349439256752792 -4.135656986132944 0 0 1 0
77 4 0.7 2.915451895043732 2.2899440330336756 4.746642029489484 0 0 0 0
22 2 1.3 0.4551661356395083 3.077294352623829 -4.5199061720762295 0 0 0 0
68 4 0.7 2.915451895043732 3.2517768456841196 4.240777788516002 0 -1 0 0
5 1 1.6 0.2441406249999999 4.519627360921829 -4.296567174881977 0 -1 0 0
44 3 1 1 -4.616499242387921 -3.1672856951021138 0 1 0 0
3 1 1.6 0.2441406249999999 -3.6224168542935935 -3.618044053169799 0 0 1 0
14 1 1.6 0.2441406249999999 -2.167924213958883 -3.57850907694817 0 0 0 0
41 3 1 1 -1.3162623609202373 -2.8828355367354774 0 0 1 0
70 4 0.7 2.915451895043732 0.047630648210642335 -3.380388483844844 0 0 0 0
65 4 0.7 2.915451895043732 -0.32539675503456245 -2.745327951998391 0 -1 0 0
11 1 1.6 0.2441406249999999 1.008403280100823 -2.88188410739261 0 0 0 0
8 1 1.6 0.2441406249999999 2.3548686493890303 -3.376221253029594 0 0 0 0
18 1 1.6 0.2441406249999999 3.766407448712121 -2.9212113891451885 0 -1 0 0
61 4 0.7 2.915451895043732 -3.9781381123677635 -2.4732553442118723 0 0 0 0
38 2 1.3 0.4551661356395083 4.744495602794766 -2.051330732465049 0 0 0 0
28 2 1.3 0.4551661356395083 -2.9618338814986873 -2.640964007308112 0 0 0 0
17 1 1.6 0.2441406249999999 -1.7685621920280585 -1.8402893813396863 0 0 0 0
73 4 0.7 2.915451895043732 -0.7469623617997172 -2.2550265649337398 0 0 0 0
60 3 1 1 0.05431362549397534 -2.23476060968539 0 0 0 0
76 4 0.7 2.915451895043732 -0.25946709299746207 -1.2825127299540204 0 0 0 0
33 2 1.3 0.4551661356395083 1.9235666781375311 -1.6489939072439692 0 0 0 0
46 3 1 1 2.7674227384148793 -2.3171329386472572 0 0 1 0
47 3 1 1 3.6556039938257374 -1.7137586984808633 0 0 0 0
54 3 1 1 -4.4883521526325625 -1.187201624043853 0 1 0 0
36 2 1.3 0.4551661356395083 -3.541839160499933 -1.6148292048206248 0 1 0 0
1 1 1.6 0.2441406249999999 -2.5928987446409013 -0.5001233698043341 0 0 0 0
43 3 1 1 -0.9504695941956958 -0.9389292072392554 0 0 0 0
78 4 0.7 2.915451895043732 -1.6494508873144325 -0.8972289411561998 0 0 0 0
27 2 1.3 0.4551661356395083 -0.10903196284731731 -0.20359138643047991 0 0 0 0
26 2 1.3 0.4551661356395083 0.7883040128035743 -1.430112998066516 0 0 0 0
42 3 1 1 1.0218255139770553 -0.2009338203786033 0 1 0 0
45 3 1 1 2.919944051039292 -1.2653385955090184 0 0 0 0
58 3 1 1 3.2804276513043114 -0.43501924341220555 0 0 0 0
35 2 1.3 0.4551661356395083 4.268763400798898 -0.6905336889497464 0 0 0 0
30 2 1.3 0.4551661356395083 -3.898548725371347 -0.3156196868072634 0 1 0 0
72 4 0.7 2.915451895043732 -2.212333332862129 0.5217955053500232 0 0 0 0
7 1 1.6 0.2441406249999999 -1.2447636000324507 0.40714611256821875 0 0 0 0
79 4 0.7 2.915451895043732 1.2773586483081454 0.46912709670068153 0 0 0 0
10 1 1.6 0.2441406249999999 2.1498773006158505 -0.3563679219145328 0 0 0 0
13 1 1.6 0.2441406249999999 3.5084436721973606 0.6432886930244459 0 0 0 0
74 4 0.7 2.915451895043732 -4.779636241429026 0.09781445595926641 0 1 0 0
49 3 1 1 -4.272834166277207 0.7588968952590385 0 1 0 0
25 2 1.3 0.4551661356395083 -3.2452518692633223 0.6910434080608576 0 1 0 0
69 4 0.7 2.915451895043732 -1.9840682264794687 1.1099583458615232 0 0 0 0
66 4 0.7 2.915451895043732 -1.5488114197200202 1.5504936431311416 0 0 0 0
53 3 1 1 -0.7522873994488188 1.453648295578331 0 0 0 0
16 1 1.6 0.2441406249999999 0.4546718337347464 1.0811398940678094 0 0 0 0
15 1 1.6 0.2441406249999999 1.951151419416095 1.3429219686435383 0 0 0 0
62 4 0.7 2.915451895043732 2.954587920617765 1.619750116269894 0 -1 0 0
63 4 0.7 2.915451895043732 3.5580262910488756 1.610237391636443 0 0 0 0
59 3 1 1 4.60329722922066 1.2912346103978933 0 -1 -1 0
19 1 1.6 0.2441406249999999 -4.123529115525328 2.0853096723538442 0 0 0 0
20 1 1.6 0.2441406249999999 -2.6023140116121746 2.066874245123951 0 0 0 0
37 2 1.3 0.4551661356395083 -1.3719062307239693 2.444439373854536 0 1 0 0
29 2 1.3 0.4551661356395083 -0.25991820160081147 2.512666896318323 0 0 0 0
75 4 0.7 2.915451895043732 1.0175536744383908 2.0877244629975626 0 0 0 0
52 3 1 1 1.650637502877995 2.484596897221758 0 0 0 0
9 1 1.6 0.2441406249999999 2.909913085488699 2.527937471026357 0 0 0 0
32 2 1.3 0.4551661356395083 4.224435739986145 2.158552172302283 0 0 -1 0
57 3 1 1 -4.733025540173415 3.1158158434403393 0 1 0 0
12 1 1.6 0.2441406249999999 -3.5752296990505616 3.4566978146928466 0 0 0 0
4 1 1.6 0.2441406249999999 -2.2105201562040295 3.506445641641749 0 0 0 0
80 4 0.7 2.915451895043732 0.37336350453920275 3.7187539068768043 0 0 0 0
40 2 1.3 0.4551661356395083 0.8130798518123585 3.0848121082290936 0 0 0 0
64 4 0.7 2.915451895043732 -1.6412912644614486 4.131972860940486 0 0 -1 0
2 1 1.6 0.2441406249999999 -0.5973720327074439 3.6327983592740605 0 0 0 0
34 2 1.3 0.4551661356395083 0.41146523104454946 4.560499137925403 0 0 -1 0
67 4 0.7 2.915451895043732 1.2382446651687191 3.850734249265656 0 0 -1 0
55 3 1 1 1.4834485396319383 4.619974154912397 0 0 -1 0
6 1 1.6 0.2441406249999999 2.3106517271369125 3.7287808391401747 0 0 0 0
39 2 1.3 0.4551661356395083 3.631111249672534 3.457216558805264 0 0 -1 0
31 2 1.3 0.4551661356395083 4.731107832761472 4.080143875259321 0 -1 0 0
71 4 0.7 2.915451895043732 3.748008089760324 4.390206698395451 0 0 -1 0

Velocities

23 -0.09539911003225122 -0.04695186069384932 0 0 0 0
24 -0.21015597615607715 -0.26628411630960414 0 0 0 0
21 0.04236636420399598 -0.1457756862126766 0 0 0 0
48 -0.3006543012298171 0.14025558057811086 0 0 0 0
51 -0.07372721801130701 -0.10612390314668013 0 0 0 0
50 0.030277237569372274 0.12549789938631462 0 0 0 0
56 0.07260911001952447 -0.08883635704056085 0 0 0 0
77 -0.05046076520871625 -0.1137520900467846 0 0 0 0
22 0.06606524251716618 0.08898214185273588 0 0 0 0
68 -0.09578110415202654 0.11989527986043859 0 0 0 0
5 -0.12991930028822216 -0.016135374534129672 0 0 0 0
44 0.07559797711369738 -0.04772578750315383 0 0 0 0
3 -0.07014017915415119 -0.11154423208110564 0 0 0 0
14 0.06262923016664783 0.12144961708035931 0 0 0 0
41 0.024124548103652606 0.0981033733877288 0 0 0 0
70 -0.016610544166876098 -0.07025853570514262 0 0 0 0
65 -0.07474836987292541 -0.017085083774022784 0 0 0 0
11 0.09551063899858708 -0.005670333300167172 0 0 0 0
8 -0.05305368900599135 -0.05634022702813725 0 0 0 0
18 0.015703246238059486 0.08436855225281141 0 0 0 0
61 0.1501015402367116 0.07209317994584834 0 0 0 0
38 0.00122972032577161 0.046523074114593894 0 0 0 0
28 -0.07426738655606463 0.06835492860534557 0 0 0 0
17 0.08180444206041856 -0.0347141905106472 0 0 0 0
73 -0.041619948671962524 0.0680840930805394 0 0 0 0
60 0.05331984088596761 0.03469424376758807 0 0 0 0
76 0.07454893528202318 0.15697346859409939 0 0 0 0
33 0.15230343684030834 0.09383363565474008 0 0 0 0
46 -0.004572292574312641 0.10276496404957462 0 0 0 0
47 -0.10191710516500811 0.02755321603018581 0 0 0 0
54 0.20208514650604226 -0.05205719164974544 0 0 0 0
36 0.058793044046501534 -0.044368011584955194 0 0 0 0
1 0.03419408155063543 0.001088381027363593 0 0 0 0
43 0.15193710427018423 -0.03447095804448453 0 0 0 0
78 -0.1521204295097991 0.06394750288947527 0 0 0 0
27 -0.13231733710481627 -0.1114246215860557 0 0 0 0
26 -0.060510694223327645 0.032301228493120594 0 0 0 0
42 -0.16558060709890657 -0.012978271797438806 0 0 0 0
45 -0.08497758156110162 -0.03297801407614109 0 0 0 0
58 -0.010443009003649275 -0.028199495819025623 0 0 0 0
35 0.03601456799406388 0.09537176286888877 0 0 0 0
30 -0.10011149702630376 -0.215495538353444 0 0 0 0
72 -0.06265728328389403 0.012885064451667047 0 0 0 0
7 0.05201579881980182 -0.06411597359164264 0 0 0 0
79 0.08158934848064632 -0.039876654147393976 0 0 0 0
10 -0.0461819586761039 0.10657251383913209 0 0 0 0
13 -0.015692883996398406 0.07757773144656772 0 0 0 0
74 -0.17011357455295695 -0.1097102411904339 0 0 0 0
49 0.10348600294376889 -0.03751294963914223 0 0 0 0
25 0.056673946741050134 -0.07748216759332706 0 0 0 0
69 -0.15983177072422436 0.19340194812142442 0 0 0 0
66 0.28809169810388546 0.23340144920019218 0 0 0 0
53 -0.018556010455868768 0.18680552718286145 0 0 0 0
16 0.13476834912067068 0.004505905575458216 0 0 0 0
15 -0.1379995906849647 -0.024783820196089896 0 0 0 0
62 0.01564863000036216 -0.029798123181978674 0 0 0 0
63 0.21562125699809798 -0.14812387712641517 0 0 0 0
59 -0.14254541808892304 -0.09893483726530077 0 0 0 0
19 -0.0011466058945422454 -0.024295803094674672 0 0 0 0
20 -0.049771012843039586 0.0168011084532208 0 0 0 0
37 0.11108343257245595 0.0012628883638708145 0 0 0 0
29 0.1351638389978807 -0.07189143769779412 0 0 0 0
75 -0.010092705348487278 0.14374821460532222 0 0 0 0
52 0.11317086571228142 0.022591996978748204 0 0 0 0
9 -0.039913776759489594 0.06190706369687121 0 0 0 0
32 0.06731982171079491 -0.17272933987992192 0 0 0 0
57 -0.07770836338052092 -0.0844667603741697 0 0 0 0
12 0.06762390945285822 -0.24647545624315323 0 0 0 0
4 -0.012480766032811756 -0.0412506597508558 0 0 0 0
80 -0.007785462818285025 0.026772691194056224 0 0 0 0
40 0.08432215367101066 -0.06536997078652158 0 0 0 0
64 0.04294976360329299 0.10703763906448699 0 0 0 0
2 0.013859835359554283 0.07730730296070344 0 0 0 0
34 0.24718065629519428 0.09154992797137669 0 0 0 0
67 -0.24869558564577773 -0.08663426780085091 0 0 0 0
55 -0.07236536577011463 0.17255496861621752 0 0 0 0
6 -0.052935222803870516 -0.16828611071687988 0 0 0 0
39 0.041598105560901794 0.05939473950230576 0 0 0 0
31 0.0941747288349643 0.007105012332385137 0 0 0 0
71 -0.02199579437492157 0.005588513997775188 0 0 0 0
