LAMMPS data file.

     63 atoms
    135 bonds
      0 angles
      0 dihedrals
      0 impropers
      1 atom types
    135 bond types
      0 angle types
      0 dihedral types
      0 improper types
  -4.806893   4.806893 xlo xhi
  -4.806893   4.806893 ylo yhi
  -0.100000   0.100000 zlo zhi

Masses # ['atom_id', 'mass']

1 10000.0

Atoms # ['atomID', 'moleculeID', 'atomType', 'charge', 'x', 'y', 'z']

     23      1      1   0.000000  -3.851486   4.710421   0.000000
     51      1      1   0.000000  -0.291701  -4.158779   0.000000
     50      1      1   0.000000   0.503168  -3.956714   0.000000
     56      1      1   0.000000   1.434944  -4.135657   0.000000
     77      1      1   0.000000   2.289944   4.746642   0.000000
     22      1      1   0.000000   3.077294  -4.519906   0.000000
     68      1      1   0.000000   3.251777   4.240778   0.000000
      5      1      1   0.000000   4.519627  -4.296567   0.000000
     70      1      1   0.000000   0.047631  -3.380388   0.000000
     11      1      1   0.000000   1.008403  -2.881884   0.000000
      8      1      1   0.000000   2.354869  -3.376221   0.000000
     18      1      1   0.000000   3.766407  -2.921211   0.000000
     38      1      1   0.000000   4.744496  -2.051331   0.000000
     17      1      1   0.000000  -1.768562  -1.840289   0.000000
     33      1      1   0.000000   1.923567  -1.648994   0.000000
     46      1      1   0.000000   2.767423  -2.317133   0.000000
     47      1      1   0.000000   3.655604  -1.713759   0.000000
     54      1      1   0.000000  -4.488352  -1.187202   0.000000
      1      1      1   0.000000  -2.592899  -0.500123   0.000000
     43      1      1   0.000000  -0.950470  -0.938929   0.000000
     78      1      1   0.000000  -1.649451  -0.897229   0.000000
     27      1      1   0.000000  -0.109032  -0.203591   0.000000
     42      1      1   0.000000   1.021826  -0.200934   0.000000
     45      1      1   0.000000   2.919944  -1.265339   0.000000
     58      1      1   0.000000   3.280428  -0.435019   0.000000
     35      1      1   0.000000   4.268763  -0.690534   0.000000
     30      1      1   0.000000  -3.898549  -0.315620   0.000000
     72      1      1   0.000000  -2.212333   0.521796   0.000000
      7      1      1   0.000000  -1.244764   0.407146   0.000000
     79      1      1   0.000000   1.277359   0.469127   0.000000
     10      1      1   0.000000   2.149877  -0.356368   0.000000
     13      1      1   0.000000   3.508444   0.643289   0.000000
     74      1      1   0.000000  -4.779636   0.097814   0.000000
     49      1      1   0.000000  -4.272834   0.758897   0.000000
     25      1      1   0.000000  -3.245252   0.691043   0.000000
     69      1      1   0.000000  -1.984068   1.109958   0.000000
     66      1      1   0.000000  -1.548811   1.550494   0.000000
     53      1      1   0.000000  -0.752287   1.453648   0.000000
     16      1      1   0.000000   0.454672   1.081140   0.000000
     15      1      1   0.000000   1.951151   1.342922   0.000000
     62      1      1   0.000000   2.954588   1.619750   0.000000
     63      1      1   0.000000   3.558026   1.610237   0.000000
     59      1      1   0.000000   4.603297   1.291235   0.000000
     19      1      1   0.000000  -4.123529   2.085310   0.000000
     20      1      1   0.000000  -2.602314   2.066874   0.000000
     37      1      1   0.000000  -1.371906   2.444439   0.000000
     29      1      1   0.000000  -0.259918   2.512667   0.000000
     52      1      1   0.000000   1.650638   2.484597   0.000000
      9      1      1   0.000000   2.909913   2.527937   0.000000
     32      1      1   0.000000   4.224436   2.158552   0.000000
     57      1      1   0.000000  -4.733026   3.115816   0.000000
     12      1      1   0.000000  -3.575230   3.456698   0.000000
      4      1      1   0.000000  -2.210520   3.506446   0.000000
     80      1      1   0.000000   0.373364   3.718754   0.000000
     40      1      1   0.000000   0.813080   3.084812   0.000000
      2      1      1   0.000000  -0.597372   3.632798   0.000000
     34      1      1   0.000000   0.411465   4.560499   0.000000
     67      1      1   0.000000   1.238245   3.850734   0.000000
     55      1      1   0.000000   1.483449   4.619974   0.000000
      6      1      1   0.000000   2.310652   3.728781   0.000000
     39      1      1   0.000000   3.631111   3.457217   0.000000
     31      1      1   0.000000   4.731108   4.080144   0.000000
     71      1      1   0.000000   3.748008   4.390207   0.000000

Bond Coeffs # ['bondID', 'bondCoeff', 'd']

      1   0.771212   1.138710
      2   0.676281   1.216008
      3   0.580687   1.312287
      4   1.318868   0.870762
      5   0.871188   1.071381
      6   1.318868   0.870762
      7   1.500421   0.816382
      8   1.386890   0.849139
      9   1.055695   0.973264
     10   0.951137   1.025365
     11   1.852999   0.734619
     12   1.553206   0.802390
     13   0.964813   1.018072
     14   0.772447   1.137799
     15   0.772447   1.137799
     16   0.601364   1.289530
     17   0.770466   1.139261
     18   1.053368   0.974339
     19   0.622020   1.267938
     20   1.121287   0.944369
     21   1.350449   0.860520
     22   0.536361   1.365436
     23   1.350449   0.860520
     24   1.121287   0.944369
     25   0.622020   1.267938
     26   0.546111   1.353193
     27   1.342731   0.862989
     28   0.583652   1.308950
     29   0.522893   1.382909
     30   0.522893   1.382909
     31   0.432071   1.521327
     32   0.778616   1.133283
     33   0.954393   1.023615
     34   0.626758   1.263136
     35   0.486065   1.434342
     36   0.840938   1.090481
     37   1.116351   0.946454
     38   1.106745   0.950553
     39   1.110831   0.948803
     40   0.606745   1.283799
     41   0.430388   1.524298
     42   0.433279   1.519204
     43   2.607427   0.619290
     44   1.353580   0.859524
     45   0.853540   1.082400
     46   1.353580   0.859524
     47   0.532373   1.370541
     48   0.772394   1.137838
     49   0.717499   1.180564
     50   1.534084   0.807375
     51   0.781955   1.130861
     52   0.686487   1.206935
     53   0.942925   1.029820
     54   0.458434   1.476935
     55   0.680171   1.212526
     56   1.441175   0.832994
     57   0.922919   1.040922
     58   1.019823   0.990233
     59   1.019823   0.990233
     60   0.902916   1.052389
     61   0.825846   1.100399
     62   0.406679   1.568102
     63   0.730690   1.169859
     64   0.454654   1.483063
     65   1.204189   0.911282
     66   0.722707   1.176302
     67   1.208435   0.909680
     68   0.697628   1.197259
     69   0.684647   1.208556
     70   0.508054   1.402960
     71   0.684647   1.208556
     72   1.486665   0.820150
     73   2.039510   0.700224
     74   0.496993   1.418485
     75   0.821346   1.103410
     76   0.403946   1.573396
     77   2.745530   0.603513
     78   0.702739   1.192897
     79   0.774072   1.136604
     80   0.542169   1.358103
     81   0.575121   1.318622
     82   0.800808   1.117470
     83   2.512307   0.630904
     84   0.863183   1.076338
     85   0.769444   1.140017
     86   0.625770   1.264132
     87   0.705591   1.190484
     88   0.705591   1.190484
     89   0.674889   1.217262
     90   0.629860   1.260021
     91   1.347208   0.861554
     92   0.805690   1.114079
     93   0.823222   1.102152
     94   1.303098   0.876015
     95   0.617841   1.272218
     96   1.062526   0.970131
     97   1.062526   0.970131
     98   0.825846   1.100399
     99   1.944471   0.717132
    100   0.959605   1.020831
    101   0.747552   1.156590
    102   0.704607   1.191315
    103   0.941831   1.030418
    104   0.449263   1.491934
    105   0.546474   1.352743
    106   1.319500   0.870553
    107   0.733740   1.167425
    108   1.408477   0.842607
    109   0.867539   1.073632
    110   0.676365   1.215932
    111   1.220437   0.905195
    112   1.209482   0.909285
    113   0.858421   1.079319
    114   0.793504   1.122601
    115   1.680015   0.771513
    116   1.131048   0.940285
    117   0.536220   1.365616
    118   1.052947   0.974534
    119   0.694364   1.200070
    120   0.550249   1.348095
    121   0.961061   1.020057
    122   1.066726   0.968219
    123   0.603698   1.287035
    124   0.555204   1.342065
    125   0.708957   1.187654
    126   1.050062   0.975871
    127   0.634890   1.255021
    128   3.723362   0.518242
    129   0.792252   1.123488
    130   1.208435   0.909680
    131   1.058188   0.972117
    132   0.634890   1.255021
    133   1.050062   0.975871
    134   1.058188   0.972117
    135   0.877224   1.067689

Bonds # ['ID', 'type', 'atom1', 'atom2']

         1         1        42        10
         2         2        29        40
         3         3        33        10
         4         4        22        68
         5         5        68         6
         6         6        68        22
         7         7        77        55
         8         8        51        70
         9         9        30        74
        10        10        79        16
        11        11        50        70
        12        12        66        53
        13        13        77         6
        14        14        51        34
        15        15        34        51
        16        16        27         7
        17        17        69        20
        18        18        72         7
        19        19        19        32
        20        20        38        54
        21        21        77        22
        22        22         9        32
        23        23        22        77
        24        24        54        38
        25        25        32        19
        26        26        37         4
        27        27        63        32
        28        28        18        38
        29        29         5        23
        30        30        23         5
        31        31        19        20
        32        32        58        10
        33        33         1        78
        34        34        53        16
        35        35        11         8
        36        36         1        72
        37        37        59        32
        38        38        17        78
        39        39        50        56
        40        40        23        12
        41        41        15         9
        42        42        16        15
        43        43        69        66
        44        44        56        55
        45        45        70        11
        46        46        55        56
        47        47         2        34
        48        48        30        49
        49        49        15        52
        50        50        67        55
        51        51        27        42
        52        52        57        12
        53        53        49        25
        54        54        19        12
        55        55        18        47
        56        56        74        49
        57        57        15        62
        58        58        54        35
        59        59        35        54
        60        60        54        30
        61        61        34        50
        62        62         5        18
        63        63        29         2
        64        64         8        18
        65        65        66        37
        66        66         9        39
        67        67        49        59
        68        68        19        57
        69        69        23        31
        70        70        27        16
        71        71        31        23
        72        72        51        50
        73        73        43        78
        74        74        37         2
        75        75        79        15
        76        76        17         1
        77        77        62        63
        78        78        56         8
        79        79         8        46
        80        80         1        25
        81        81         1        30
        82        82        43        27
        83        83        72        69
        84        84        33        46
        85        85        38        47
        86        86        39        31
        87        87        59        19
        88        88        19        59
        89        89        17        43
        90        90        52         9
        91        91        47        45
        92        92        37        29
        93        93        58        13
        94        94        40        67
        95        95        13        59
        96        96        74        35
        97        97        35        74
        98        98        50        34
        99        99        42        79
       100       100        58        35
       101       101         7        53
       102       102        45        10
       103       103        52        40
       104       104        20         4
       105       105        22         8
       106       106        68        39
       107       107        18        46
       108       108        80        34
       109       109        34        55
       110       110        55         6
       111       111        45        58
       112       112        62         9
       113       113        67         6
       114       114        13        62
       115       115        80        40
       116       116        39        71
       117       117        12         4
       118       118        80         2
       119       119        30        25
       120       120         6        39
       121       121         7        69
       122       122        13        63
       123       123        20        37
       124       124         9         6
       125       125        50        11
       126       126        57        31
       127       127         5        31
       128       128        68        71
       129       129        63         9
       130       130        59        49
       131       131        22        71
       132       132        31         5
       133       133        31        57
       134       134        71        22
       135       135        33        45
