ITEM: TIMESTEP
0
ITEM: NUMBER OF ATOMS
80
ITEM: BOX BOUNDS pp pp pp
-1.0000000000000000e+01 1.0000000000000000e+01
-1.0000000000000000e+01 1.0000000000000000e+01
-1.0000000000000001e-01 1.0000000000000001e-01
ITEM: ATOMS id type xs ys zs
65 4 0.156662 0.0245725 0.5
11 1 0.545608 0.0333925 0.5
8 1 0.780985 0.0105901 0.5
47 3 0.794135 0.0338165 0.5
42 3 0.971502 0.0273518 0.5
55 3 0.687812 0.0563763 0.5
60 3 0.784737 0.0784085 0.5
24 2 0.248773 0.121837 0.5
21 2 0.403888 0.144354 0.5
27 2 0.721254 0.115827 0.5
72 4 0.715841 0.134761 0.5
58 3 0.783133 0.122397 0.5
32 2 0.822106 0.137889 0.5
23 2 0.925038 0.106561 0.5
59 3 0.26871 0.208283 0.5
67 4 0.627726 0.199266 0.5
34 2 0.644565 0.196317 0.5
45 3 0.819371 0.168277 0.5
22 2 0.865485 0.198943 0.5
39 2 0.965919 0.196651 0.5
28 2 0.143169 0.239894 0.5
17 1 0.337016 0.224204 0.5
64 4 0.670688 0.253112 0.5
61 4 0.370398 0.278443 0.5
29 2 0.541876 0.310647 0.5
76 4 0.575966 0.267964 0.5
26 2 0.634396 0.293645 0.5
79 4 0.658137 0.308262 0.5
35 2 0.886435 0.30901 0.5
70 4 0.157635 0.365828 0.5
5 1 0.322801 0.324431 0.5
43 3 0.355646 0.347854 0.5
71 4 0.96331 0.357995 0.5
44 3 0.983721 0.403232 0.5
14 1 0.13866 0.458741 0.5
7 1 0.304008 0.463931 0.5
73 4 0.364576 0.433942 0.5
33 2 0.519334 0.452656 0.5
9 1 0.639463 0.461572 0.5
62 4 0.0460831 0.518469 0.5
19 1 0.306449 0.48003 0.5
74 4 0.357322 0.516875 0.5
69 4 0.47727 0.479291 0.5
30 2 0.942375 0.496352 0.5
18 1 0.0134793 0.546483 0.5
1 1 0.154434 0.565394 0.5
48 3 0.135511 0.535901 0.5
10 1 0.823917 0.573841 0.5
25 2 0.845454 0.537048 0.5
3 1 0.0913065 0.58766 0.5
75 4 0.661605 0.597307 0.5
38 2 0.909956 0.623171 0.5
51 3 0.204476 0.633398 0.5
13 1 0.3205 0.642648 0.5
54 3 0.611272 0.643152 0.5
57 3 0.998313 0.648367 0.5
41 3 0.0165845 0.736032 0.5
31 2 0.216858 0.727634 0.5
50 3 0.296822 0.687408 0.5
77 4 0.575873 0.70208 0.5
15 1 0.839337 0.730558 0.5
56 3 0.918588 0.703614 0.5
37 2 0.993735 0.708098 0.5
53 3 0.368343 0.738375 0.5
2 1 0.566001 0.77132 0.5
63 4 0.951079 0.778848 0.5
40 2 0.390005 0.818318 0.5
80 4 0.39185 0.823028 0.5
66 4 0.696306 0.807442 0.5
78 4 0.574219 0.900985 0.5
12 1 0.586357 0.910224 0.5
20 1 0.662516 0.900019 0.5
4 1 0.688161 0.924635 0.5
68 4 0.130896 0.969233 0.5
16 1 0.370916 0.98056 0.5
46 3 0.383648 0.969829 0.5
49 3 0.73362 0.959126 0.5
52 3 0.695008 0.991195 0.5
36 2 0.848158 0.986176 0.5
6 1 0.909977 0.983872 0.5
ITEM: TIMESTEP
10
ITEM: NUMBER OF ATOMS
80
ITEM: BOX BOUNDS pp pp pp
-9.2364488200888086e+00 9.2364488200888086e+00
-9.2364488200888086e+00 9.2364488200888086e+00
-1.0000000000000001e-01 1.0000000000000001e-01
ITEM: ATOMS id type xs ys zs
65 4 0.156662 0.0245725 0.5
11 1 0.545608 0.0333925 0.5
8 1 0.780907 0.0104684 0.5
47 3 0.79421 0.0339221 0.5
42 3 0.971502 0.0273518 0.5
55 3 0.687812 0.0563763 0.5
60 3 0.784734 0.0784027 0.5
24 2 0.248773 0.121837 0.5
21 2 0.403888 0.144354 0.5
27 2 0.721285 0.115718 0.5
72 4 0.71581 0.13487 0.5
58 3 0.783077 0.122399 0.5
32 2 0.822171 0.13781 0.5
23 2 0.925038 0.106561 0.5
59 3 0.26871 0.208283 0.5
67 4 0.627606 0.199287 0.5
34 2 0.644685 0.196296 0.5
45 3 0.819353 0.168372 0.5
22 2 0.865494 0.198948 0.5
39 2 0.965919 0.196651 0.5
28 2 0.143169 0.239894 0.5
17 1 0.337016 0.224204 0.5
64 4 0.670688 0.253112 0.5
61 4 0.370398 0.278443 0.5
29 2 0.541876 0.310647 0.5
76 4 0.575966 0.267964 0.5
26 2 0.634325 0.293601 0.5
79 4 0.658208 0.308305 0.5
35 2 0.886435 0.30901 0.5
70 4 0.157635 0.365828 0.5
5 1 0.322726 0.324377 0.5
43 3 0.355722 0.347908 0.5
71 4 0.96331 0.357995 0.5
44 3 0.983721 0.403232 0.5
14 1 0.13866 0.458741 0.5
7 1 0.303973 0.463698 0.5
73 4 0.364576 0.433942 0.5
33 2 0.519337 0.452654 0.5
9 1 0.639463 0.461572 0.5
62 4 0.0461254 0.518432 0.5
19 1 0.306484 0.480263 0.5
74 4 0.357322 0.516875 0.5
69 4 0.477267 0.479293 0.5
30 2 0.942375 0.496352 0.5
18 1 0.013437 0.546519 0.5
1 1 0.154543 0.565471 0.5
48 3 0.135451 0.535807 0.5
10 1 0.82386 0.573938 0.5
25 2 0.84551 0.536952 0.5
3 1 0.0912577 0.587677 0.5
75 4 0.661605 0.597307 0.5
38 2 0.909956 0.623171 0.5
51 3 0.204476 0.633398 0.5
13 1 0.320526 0.642599 0.5
54 3 0.611272 0.643152 0.5
57 3 0.998313 0.648367 0.5
41 3 0.0166357 0.736094 0.5
31 2 0.216858 0.727634 0.5
50 3 0.296796 0.687457 0.5
77 4 0.575873 0.70208 0.5
15 1 0.839337 0.730558 0.5
56 3 0.918588 0.703614 0.5
37 2 0.993684 0.708035 0.5
53 3 0.368343 0.738375 0.5
2 1 0.566001 0.77132 0.5
63 4 0.951079 0.778848 0.5
40 2 0.389945 0.818164 0.5
80 4 0.39191 0.823182 0.5
66 4 0.696306 0.807442 0.5
78 4 0.574095 0.90089 0.5
12 1 0.586466 0.910321 0.5
20 1 0.662412 0.899902 0.5
4 1 0.688255 0.924729 0.5
68 4 0.130896 0.969233 0.5
16 1 0.370779 0.980675 0.5
46 3 0.383785 0.969714 0.5
49 3 0.733648 0.959145 0.5
52 3 0.695006 0.991197 0.5
36 2 0.848122 0.986175 0.5
6 1 0.910019 0.983871 0.5
ITEM: TIMESTEP
20
ITEM: NUMBER OF ATOMS
80
ITEM: BOX BOUNDS pp pp pp
-8.3022041470490109e+00 8.3022041470490109e+00
-8.3022041470490109e+00 8.3022041470490109e+00
-1.0000000000000001e-01 1.0000000000000001e-01
ITEM: ATOMS id type xs ys zs
65 4 0.156662 0.0245725 0.5
11 1 0.545608 0.0333925 0.5
8 1 0.780603 0.010033 0.5
47 3 0.794481 0.0342797 0.5
42 3 0.971502 0.0273522 0.5
55 3 0.687812 0.0563762 0.5
60 3 0.784721 0.0784036 0.5
24 2 0.248773 0.121837 0.5
21 2 0.403888 0.144354 0.5
27 2 0.721387 0.115329 0.5
72 4 0.715699 0.135259 0.5
58 3 0.782868 0.122424 0.5
32 2 0.822418 0.137526 0.5
23 2 0.925038 0.106561 0.5
59 3 0.268699 0.20828 0.5
67 4 0.627177 0.199362 0.5
34 2 0.645114 0.196221 0.5
45 3 0.819264 0.168703 0.5
22 2 0.865549 0.198986 0.5
39 2 0.965919 0.196651 0.5
28 2 0.143169 0.239894 0.5
17 1 0.337024 0.224203 0.5
64 4 0.670693 0.253107 0.5
61 4 0.370401 0.278447 0.5
29 2 0.541872 0.310651 0.5
76 4 0.57597 0.267959 0.5
26 2 0.634061 0.293446 0.5
79 4 0.658467 0.308465 0.5
35 2 0.886435 0.30901 0.5
70 4 0.157635 0.365828 0.5
5 1 0.322444 0.324177 0.5
43 3 0.356004 0.348109 0.5
71 4 0.96331 0.357994 0.5
44 3 0.983721 0.403232 0.5
14 1 0.13866 0.458741 0.5
7 1 0.303848 0.462875 0.5
73 4 0.364576 0.433942 0.5
33 2 0.519369 0.452634 0.5
9 1 0.639463 0.461572 0.5
62 4 0.04629 0.518291 0.5
19 1 0.306602 0.481082 0.5
74 4 0.357329 0.516879 0.5
69 4 0.477236 0.479313 0.5
30 2 0.942375 0.496352 0.5
18 1 0.0132653 0.546657 0.5
1 1 0.154968 0.565745 0.5
48 3 0.135242 0.535446 0.5
10 1 0.823651 0.574296 0.5
25 2 0.84572 0.536594 0.5
3 1 0.0910488 0.587768 0.5
75 4 0.661605 0.597307 0.5
38 2 0.909956 0.623171 0.5
51 3 0.204476 0.633398 0.5
13 1 0.320629 0.642404 0.5
54 3 0.611272 0.643152 0.5
57 3 0.998315 0.648346 0.5
41 3 0.0168264 0.736327 0.5
31 2 0.216858 0.727634 0.5
50 3 0.296693 0.687652 0.5
77 4 0.575873 0.70208 0.5
15 1 0.839337 0.730558 0.5
56 3 0.918588 0.703614 0.5
37 2 0.993492 0.707823 0.5
53 3 0.368343 0.738375 0.5
2 1 0.566001 0.77132 0.5
63 4 0.951079 0.778848 0.5
40 2 0.389732 0.817621 0.5
80 4 0.392123 0.823725 0.5
66 4 0.696306 0.807442 0.5
78 4 0.573653 0.900553 0.5
12 1 0.586812 0.910671 0.5
20 1 0.662076 0.899474 0.5
4 1 0.688569 0.925028 0.5
68 4 0.130896 0.969233 0.5
16 1 0.370293 0.981084 0.5
46 3 0.38427 0.969305 0.5
49 3 0.733779 0.959201 0.5
52 3 0.694984 0.991247 0.5
36 2 0.848002 0.98616 0.5
6 1 0.910199 0.983864 0.5
ITEM: TIMESTEP
30
ITEM: NUMBER OF ATOMS
80
ITEM: BOX BOUNDS pp pp pp
-7.6025374544317739e+00 7.6025374544317739e+00
-7.6025374544317739e+00 7.6025374544317739e+00
-1.0000000000000001e-01 1.0000000000000001e-01
ITEM: ATOMS id type xs ys zs
65 4 0.156662 0.0245725 0.5
11 1 0.545608 0.0333925 0.5
8 1 0.779977 0.00919496 0.5
47 3 0.795021 0.0349318 0.5
42 3 0.971523 0.0273669 0.5
55 3 0.687805 0.0563636 0.5
60 3 0.784687 0.0784614 0.5
24 2 0.248773 0.121837 0.5
21 2 0.403888 0.144354 0.5
27 2 0.721543 0.114578 0.5
72 4 0.715483 0.136014 0.5
58 3 0.782469 0.1225 0.5
32 2 0.822924 0.136955 0.5
23 2 0.925038 0.106561 0.5
59 3 0.268627 0.208264 0.5
67 4 0.626346 0.199507 0.5
34 2 0.645944 0.196074 0.5
45 3 0.819047 0.16934 0.5
22 2 0.865718 0.199108 0.5
39 2 0.965919 0.196651 0.5
28 2 0.143169 0.239894 0.5
17 1 0.337072 0.224178 0.5
64 4 0.670727 0.253071 0.5
61 4 0.370443 0.27847 0.5
29 2 0.541842 0.310689 0.5
76 4 0.576 0.267921 0.5
26 2 0.633512 0.293167 0.5
79 4 0.658983 0.308782 0.5
35 2 0.886435 0.30901 0.5
70 4 0.157635 0.365828 0.5
5 1 0.321859 0.32379 0.5
43 3 0.356571 0.348514 0.5
71 4 0.963305 0.357982 0.5
44 3 0.983727 0.403244 0.5
14 1 0.138661 0.458725 0.5
7 1 0.303593 0.461307 0.5
73 4 0.364592 0.433934 0.5
33 2 0.519473 0.452568 0.5
9 1 0.639463 0.461572 0.5
62 4 0.0466356 0.517994 0.5
19 1 0.306789 0.482621 0.5
74 4 0.357381 0.516916 0.5
69 4 0.477132 0.479379 0.5
30 2 0.942366 0.496346 0.5
18 1 0.0128657 0.546927 0.5
1 1 0.155858 0.566271 0.5
48 3 0.134862 0.534705 0.5
10 1 0.823232 0.575012 0.5
25 2 0.846139 0.535878 0.5
3 1 0.0906005 0.588031 0.5
75 4 0.661605 0.597307 0.5
38 2 0.909956 0.623171 0.5
51 3 0.204476 0.633398 0.5
13 1 0.320849 0.641989 0.5
54 3 0.611272 0.643152 0.5
57 3 0.998323 0.648249 0.5
41 3 0.0172113 0.736798 0.5
31 2 0.216858 0.727634 0.5
50 3 0.296473 0.688068 0.5
77 4 0.575874 0.702074 0.5
15 1 0.839336 0.730558 0.5
56 3 0.918588 0.703614 0.5
37 2 0.993099 0.707449 0.5
53 3 0.368343 0.738375 0.5
2 1 0.566 0.771325 0.5
63 4 0.951079 0.778848 0.5
40 2 0.389328 0.816589 0.5
80 4 0.392527 0.824757 0.5
66 4 0.696306 0.807442 0.5
78 4 0.572805 0.899905 0.5
12 1 0.587394 0.911358 0.5
20 1 0.661498 0.898624 0.5
4 1 0.689133 0.925514 0.5
68 4 0.130896 0.969233 0.5
16 1 0.369361 0.98187 0.5
46 3 0.385202 0.968519 0.5
49 3 0.734077 0.959269 0.5
52 3 0.694908 0.991442 0.5
36 2 0.84778 0.986109 0.5
6 1 0.910584 0.983834 0.5
ITEM: TIMESTEP
40
ITEM: NUMBER OF ATOMS
80
ITEM: BOX BOUNDS pp pp pp
-7.1124605926887821e+00 7.1124605926887821e+00
-7.1124605926887821e+00 7.1124605926887821e+00
-1.0000000000000001e-01 1.0000000000000001e-01
ITEM: ATOMS id type xs ys zs
65 4 0.156662 0.0245725 0.5
11 1 0.545608 0.0333925 0.5
8 1 0.778957 0.00789638 0.5
47 3 0.795876 0.0359165 0.5
42 3 0.97161 0.0274289 0.5
55 3 0.687765 0.0563045 0.5
60 3 0.784625 0.0785918 0.5
24 2 0.248773 0.121837 0.5
21 2 0.403888 0.144354 0.5
27 2 0.721722 0.113441 0.5
72 4 0.715143 0.137206 0.5
58 3 0.781842 0.122645 0.5
32 2 0.823761 0.136028 0.5
23 2 0.925038 0.106561 0.5
59 3 0.268435 0.208219 0.5
67 4 0.625042 0.199736 0.5
34 2 0.647237 0.19582 0.5
45 3 0.818659 0.170355 0.5
22 2 0.866082 0.199391 0.5
39 2 0.965919 0.196651 0.5
28 2 0.143169 0.239894 0.5
17 1 0.337195 0.224069 0.5
64 4 0.670833 0.252994 0.5
61 4 0.370586 0.278526 0.5
29 2 0.541756 0.310797 0.5
76 4 0.576065 0.267804 0.5
26 2 0.632611 0.29277 0.5
79 4 0.659811 0.309291 0.5
35 2 0.886435 0.30901 0.5
70 4 0.157635 0.365828 0.5
5 1 0.320864 0.323232 0.5
43 3 0.357491 0.34917 0.5
71 4 0.96328 0.357927 0.5
44 3 0.983752 0.4033 0.5
14 1 0.138665 0.458638 0.5
7 1 0.303146 0.458889 0.5
73 4 0.364673 0.433896 0.5
33 2 0.51969 0.45243 0.5
9 1 0.639463 0.461572 0.5
62 4 0.0472135 0.517498 0.5
19 1 0.307007 0.484974 0.5
74 4 0.357529 0.517018 0.5
69 4 0.476914 0.479516 0.5
30 2 0.942305 0.496302 0.5
18 1 0.0121635 0.547369 0.5
1 1 0.157334 0.567077 0.5
48 3 0.134296 0.533524 0.5
10 1 0.822555 0.576166 0.5
25 2 0.846815 0.534723 0.5
3 1 0.0898587 0.588574 0.5
75 4 0.661605 0.597307 0.5
38 2 0.909956 0.623171 0.5
51 3 0.204489 0.633415 0.5
13 1 0.32122 0.641286 0.5
54 3 0.611272 0.643152 0.5
57 3 0.998342 0.648018 0.5
41 3 0.0178372 0.737562 0.5
31 2 0.216858 0.727634 0.5
50 3 0.296102 0.68877 0.5
77 4 0.575881 0.702028 0.5
15 1 0.839322 0.730564 0.5
56 3 0.918591 0.703608 0.5
37 2 0.992465 0.706917 0.5
53 3 0.368343 0.738375 0.5
2 1 0.565993 0.771372 0.5
63 4 0.951079 0.778848 0.5
40 2 0.388702 0.81499 0.5
80 4 0.393153 0.826355 0.5
66 4 0.696306 0.807442 0.5
78 4 0.571483 0.898886 0.5
12 1 0.588168 0.912457 0.5
20 1 0.660686 0.897248 0.5
4 1 0.689981 0.926159 0.5
68 4 0.130896 0.969233 0.5
16 1 0.367906 0.983096 0.5
46 3 0.386657 0.967293 0.5
49 3 0.734595 0.959313 0.5
52 3 0.694744 0.991872 0.5
36 2 0.847467 0.985983 0.5
6 1 0.911211 0.983746 0.5
ITEM: TIMESTEP
50
ITEM: NUMBER OF ATOMS
80
ITEM: BOX BOUNDS pp pp pp
-6.7765614689888212e+00 6.7765614689888212e+00
-6.7765614689888212e+00 6.7765614689888212e+00
-1.0000000000000001e-01 1.0000000000000001e-01
ITEM: ATOMS id type xs ys zs
65 4 0.156662 0.0245725 0.5
11 1 0.545608 0.0333925 0.5
8 1 0.777541 0.0061413 0.5
47 3 0.797055 0.0372451 0.5
42 3 0.971805 0.0275693 0.5
55 3 0.687664 0.0561885 0.5
60 3 0.78454 0.0787809 0.5
24 2 0.248773 0.121837 0.5
21 2 0.403889 0.144353 0.5
27 2 0.721865 0.111948 0.5
72 4 0.714675 0.13886 0.5
58 3 0.780972 0.12288 0.5
32 2 0.824988 0.134717 0.5
23 2 0.925038 0.106561 0.5
59 3 0.268075 0.208135 0.5
67 4 0.623241 0.200052 0.5
34 2 0.649003 0.195419 0.5
45 3 0.818063 0.171784 0.5
22 2 0.866706 0.199893 0.5
39 2 0.965919 0.196651 0.5
28 2 0.143169 0.239894 0.5
17 1 0.337428 0.223794 0.5
64 4 0.67105 0.252886 0.5
61 4 0.370884 0.278626 0.5
29 2 0.541589 0.311003 0.5
76 4 0.57615 0.267563 0.5
26 2 0.631346 0.292282 0.5
79 4 0.660976 0.310006 0.5
35 2 0.886435 0.30901 0.5
70 4 0.157635 0.365828 0.5
5 1 0.319387 0.322564 0.5
43 3 0.358797 0.350099 0.5
71 4 0.963222 0.3578 0.5
44 3 0.983809 0.403427 0.5
14 1 0.138674 0.458405 0.5
7 1 0.302452 0.455597 0.5
73 4 0.364879 0.433798 0.5
33 2 0.520054 0.4522 0.5
9 1 0.639463 0.461572 0.5
62 4 0.0480518 0.516779 0.5
19 1 0.307195 0.488164 0.5
74 4 0.357829 0.517219 0.5
69 4 0.476551 0.479747 0.5
30 2 0.942147 0.496188 0.5
18 1 0.0111189 0.548009 0.5
1 1 0.159443 0.56815 0.5
48 3 0.133541 0.531901 0.5
10 1 0.821584 0.577786 0.5
25 2 0.847768 0.533094 0.5
3 1 0.0888045 0.589472 0.5
75 4 0.661605 0.597307 0.5
38 2 0.909974 0.623176 0.5
51 3 0.204545 0.633493 0.5
13 1 0.321764 0.640259 0.5
54 3 0.611272 0.643152 0.5
57 3 0.99838 0.647605 0.5
41 3 0.0187277 0.738646 0.5
31 2 0.216858 0.727634 0.5
50 3 0.295558 0.689797 0.5
77 4 0.575899 0.701899 0.5
15 1 0.839254 0.730587 0.5
56 3 0.918598 0.703587 0.5
37 2 0.991599 0.706249 0.5
53 3 0.368339 0.738361 0.5
2 1 0.565975 0.7715 0.5
63 4 0.951079 0.778848 0.5
40 2 0.387851 0.812822 0.5
80 4 0.394008 0.828537 0.5
66 4 0.696306 0.807442 0.5
78 4 0.569668 0.897474 0.5
12 1 0.589029 0.914007 0.5
20 1 0.659681 0.895288 0.5
4 1 0.691146 0.926916 0.5
68 4 0.130896 0.969233 0.5
16 1 0.365906 0.984782 0.5
46 3 0.388657 0.965607 0.5
49 3 0.735363 0.959294 0.5
52 3 0.694432 0.992576 0.5
36 2 0.847093 0.985741 0.5
6 1 0.91209 0.983566 0.5
ITEM: TIMESTEP
60
ITEM: NUMBER OF ATOMS
80
ITEM: BOX BOUNDS pp pp pp
-6.5377645334203898e+00 6.5377645334203898e+00
-6.5377645334203898e+00 6.5377645334203898e+00
-1.0000000000000001e-01 1.0000000000000001e-01
ITEM: ATOMS id type xs ys zs
65 4 0.156662 0.0245725 0.5
11 1 0.545608 0.0333925 0.5
8 1 0.775773 0.00397736 0.5
47 3 0.798561 0.0389073 0.5
42 3 0.972142 0.0278137 0.5
55 3 0.687473 0.0560138 0.5
60 3 0.784439 0.0790094 0.5
24 2 0.248773 0.121837 0.5
21 2 0.403906 0.144333 0.5
27 2 0.721917 0.110137 0.5
72 4 0.714081 0.140976 0.5
58 3 0.779859 0.123235 0.5
32 2 0.826649 0.133013 0.5
23 2 0.925038 0.106561 0.5
59 3 0.26751 0.208006 0.5
67 4 0.620947 0.200456 0.5
34 2 0.651228 0.194842 0.5
45 3 0.81723 0.173637 0.5
22 2 0.867631 0.200652 0.5
39 2 0.965919 0.196651 0.5
28 2 0.143169 0.239894 0.5
17 1 0.337785 0.223303 0.5
64 4 0.671406 0.252759 0.5
61 4 0.371378 0.27878 0.5
29 2 0.541297 0.311336 0.5
76 4 0.576238 0.267161 0.5
26 2 0.629755 0.291731 0.5
79 4 0.662485 0.310927 0.5
35 2 0.886435 0.30901 0.5
70 4 0.157635 0.365828 0.5
5 1 0.317385 0.321843 0.5
43 3 0.360497 0.351305 0.5
71 4 0.963123 0.35758 0.5
44 3 0.983909 0.403647 0.5
14 1 0.138686 0.457951 0.5
7 1 0.301476 0.451447 0.5
73 4 0.365257 0.433621 0.5
33 2 0.520583 0.451865 0.5
9 1 0.639463 0.461572 0.5
62 4 0.0491573 0.51582 0.5
19 1 0.307295 0.492169 0.5
74 4 0.358328 0.517541 0.5
69 4 0.476021 0.480082 0.5
30 2 0.941858 0.495975 0.5
18 1 0.00971339 0.548862 0.5
1 1 0.162194 0.56947 0.5
48 3 0.132595 0.529867 0.5
10 1 0.82028 0.579863 0.5
25 2 0.849005 0.530981 0.5
3 1 0.0874489 0.590778 0.5
75 4 0.661605 0.597307 0.5
38 2 0.910037 0.623178 0.5
51 3 0.204671 0.633675 0.5
13 1 0.322488 0.638891 0.5
54 3 0.611272 0.643152 0.5
57 3 0.998442 0.646973 0.5
41 3 0.0198914 0.740058 0.5
31 2 0.216857 0.727634 0.5
50 3 0.294835 0.691165 0.5
77 4 0.575933 0.701658 0.5
15 1 0.839099 0.730639 0.5
56 3 0.918605 0.703561 0.5
37 2 0.990524 0.705475 0.5
53 3 0.368321 0.738292 0.5
2 1 0.56594 0.771742 0.5
63 4 0.951079 0.778848 0.5
40 2 0.386791 0.810139 0.5
80 4 0.395086 0.831289 0.5
66 4 0.696306 0.807442 0.5
78 4 0.567372 0.895662 0.5
12 1 0.589873 0.916038 0.5
20 1 0.658527 0.892701 0.5
4 1 0.692633 0.927727 0.5
68 4 0.130896 0.969233 0.5
16 1 0.363369 0.98692 0.5
46 3 0.391194 0.963469 0.5
49 3 0.736395 0.959179 0.5
52 3 0.693913 0.993569 0.5
36 2 0.846688 0.985353 0.5
6 1 0.91322 0.983269 0.5
ITEM: TIMESTEP
70
ITEM: NUMBER OF ATOMS
80
ITEM: BOX BOUNDS pp pp pp
-6.3771088481876914e+00 6.3771088481876914e+00
-6.3771088481876914e+00 6.3771088481876914e+00
-1.0000000000000001e-01 1.0000000000000001e-01
ITEM: ATOMS id type xs ys zs
65 4 0.156662 0.0245725 0.5
11 1 0.545608 0.0333929 0.5
8 1 0.773749 0.00150679 0.5
47 3 0.80039 0.040873 0.5
42 3 0.972643 0.0281821 0.5
55 3 0.687171 0.0557826 0.5
60 3 0.784324 0.0792566 0.5
24 2 0.248772 0.121835 0.5
21 2 0.403959 0.14427 0.5
27 2 0.72183 0.108061 0.5
72 4 0.713372 0.14353 0.5
58 3 0.778514 0.123746 0.5
32 2 0.828775 0.130927 0.5
23 2 0.925036 0.106556 0.5
59 3 0.266721 0.207829 0.5
67 4 0.618191 0.200944 0.5
34 2 0.653875 0.194067 0.5
45 3 0.816137 0.1759 0.5
22 2 0.868871 0.201683 0.5
39 2 0.96593 0.196655 0.5
28 2 0.143169 0.239894 0.5
17 1 0.338265 0.222577 0.5
64 4 0.67192 0.252632 0.5
61 4 0.37209 0.279001 0.5
29 2 0.540838 0.311814 0.5
76 4 0.576306 0.26657 0.5
26 2 0.627901 0.291141 0.5
79 4 0.664322 0.312044 0.5
35 2 0.886435 0.30901 0.5
70 4 0.157635 0.365828 0.5
5 1 0.314848 0.321121 0.5
43 3 0.362578 0.352775 0.5
71 4 0.962976 0.357253 0.5
44 3 0.984056 0.403974 0.5
14 1 0.138703 0.45722 0.5
7 1 0.300206 0.446505 0.5
73 4 0.365832 0.433364 0.5
33 2 0.521287 0.451419 0.5
9 1 0.639463 0.461572 0.5
62 4 0.0505179 0.514612 0.5
19 1 0.30726 0.496925 0.5
74 4 0.359057 0.517983 0.5
69 4 0.475317 0.480528 0.5
30 2 0.94142 0.495639 0.5
18 1 0.00794986 0.549919 0.5
1 1 0.165557 0.570995 0.5
48 3 0.131462 0.527479 0.5
10 1 0.818629 0.582368 0.5
25 2 0.850507 0.528409 0.5
3 1 0.0858293 0.592523 0.5
75 4 0.661605 0.597307 0.5
38 2 0.91017 0.623164 0.5
51 3 0.204893 0.634 0.5
13 1 0.32339 0.637185 0.5
54 3 0.611272 0.643152 0.5
57 3 0.998534 0.646107 0.5
41 3 0.021323 0.741789 0.5
31 2 0.216845 0.72764 0.5
50 3 0.293945 0.692865 0.5
77 4 0.575987 0.701281 0.5
15 1 0.838831 0.73073 0.5
56 3 0.918609 0.703545 0.5
37 2 0.989272 0.704628 0.5
53 3 0.368278 0.738125 0.5
2 1 0.565887 0.772118 0.5
63 4 0.951079 0.778848 0.5
40 2 0.38555 0.807028 0.5
80 4 0.396371 0.834568 0.5
66 4 0.696306 0.807442 0.5
78 4 0.56463 0.893464 0.5
12 1 0.590607 0.918568 0.5
20 1 0.65727 0.889466 0.5
4 1 0.694392 0.928507 0.5
68 4 0.130896 0.969233 0.5
16 1 0.360333 0.989479 0.5
46 3 0.394231 0.96091 0.5
49 3 0.737687 0.958936 0.5
52 3 0.693139 0.994846 0.5
36 2 0.846275 0.9848 0.5
6 1 0.914591 0.982835 0.5
ITEM: TIMESTEP
80
ITEM: NUMBER OF ATOMS
80
ITEM: BOX BOUNDS pp pp pp
-6.2871991293438549e+00 6.2871991293438549e+00
-6.2871991293438549e+00 6.2871991293438549e+00
-1.0000000000000001e-01 1.0000000000000001e-01
ITEM: ATOMS id type xs ys zs
65 4 0.156662 0.0245725 0.5
11 1 0.545602 0.0334076 0.5
8 1 0.771586 0.998862 0.5
47 3 0.802526 0.0430909 0.5
42 3 0.97332 0.0286866 0.5
55 3 0.686739 0.0555026 0.5
60 3 0.784193 0.0795024 0.5
24 2 0.248768 0.121817 0.5
21 2 0.404065 0.144143 0.5
27 2 0.721568 0.105779 0.5
72 4 0.712573 0.146466 0.5
58 3 0.776966 0.12445 0.5
32 2 0.831352 0.1285 0.5
23 2 0.925045 0.106528 0.5
59 3 0.265706 0.20762 0.5
67 4 0.615037 0.201507 0.5
34 2 0.656878 0.193089 0.5
45 3 0.814779 0.178529 0.5
22 2 0.870395 0.202978 0.5
39 2 0.965983 0.196676 0.5
28 2 0.143169 0.239894 0.5
17 1 0.338861 0.221614 0.5
64 4 0.672594 0.252522 0.5
61 4 0.373025 0.279297 0.5
29 2 0.540188 0.312446 0.5
76 4 0.576334 0.265778 0.5
26 2 0.625863 0.290544 0.5
79 4 0.666454 0.313332 0.5
35 2 0.886435 0.30901 0.5
70 4 0.157635 0.365828 0.5
5 1 0.311804 0.320435 0.5
43 3 0.365003 0.354476 0.5
71 4 0.962778 0.356815 0.5
44 3 0.984253 0.404411 0.5
14 1 0.13873 0.456186 0.5
7 1 0.298653 0.440886 0.5
73 4 0.366606 0.433047 0.5
33 2 0.522161 0.450866 0.5
9 1 0.639463 0.461572 0.5
62 4 0.0521073 0.513172 0.5
19 1 0.307058 0.502316 0.5
74 4 0.360037 0.518533 0.5
69 4 0.474444 0.481081 0.5
30 2 0.940848 0.495154 0.5
18 1 0.00585766 0.551137 0.5
1 1 0.169455 0.572653 0.5
48 3 0.130149 0.524829 0.5
10 1 0.816646 0.585241 0.5
25 2 0.852216 0.525438 0.5
3 1 0.0840071 0.594693 0.5
75 4 0.661605 0.597307 0.5
38 2 0.910387 0.623124 0.5
51 3 0.205226 0.634501 0.5
13 1 0.324455 0.635171 0.5
54 3 0.611272 0.643152 0.5
57 3 0.998658 0.645031 0.5
41 3 0.0229994 0.743806 0.5
31 2 0.216796 0.727662 0.5
50 3 0.292928 0.694857 0.5
77 4 0.576061 0.700762 0.5
15 1 0.838437 0.730865 0.5
56 3 0.918599 0.703551 0.5
37 2 0.987885 0.703744 0.5
53 3 0.3682 0.737821 0.5
2 1 0.565813 0.772638 0.5
63 4 0.951079 0.778848 0.5
40 2 0.384166 0.803603 0.5
80 4 0.397832 0.838296 0.5
66 4 0.696307 0.807439 0.5
78 4 0.561505 0.890915 0.5
12 1 0.591166 0.92158 0.5
20 1 0.655953 0.885594 0.5
4 1 0.696348 0.929167 0.5
68 4 0.130896 0.969233 0.5
16 1 0.356866 0.992401 0.5
46 3 0.397697 0.957988 0.5
49 3 0.739218 0.958541 0.5
52 3 0.69208 0.996384 0.5
36 2 0.845874 0.984076 0.5
6 1 0.916178 0.982254 0.5
ITEM: TIMESTEP
90
ITEM: NUMBER OF ATOMS
80
ITEM: BOX BOUNDS pp pp pp
-6.2620942946268112e+00 6.2620942946268112e+00
-6.2620942946268112e+00 6.2620942946268112e+00
-1.0000000000000001e-01 1.0000000000000001e-01
ITEM: ATOMS id type xs ys zs
65 4 0.156662 0.0245725 0.5
11 1 0.545579 0.0334637 0.5
8 1 0.769416 0.996187 0.5
47 3 0.80494 0.0454812 0.5
42 3 0.974168 0.0293294 0.5
55 3 0.686159 0.0551891 0.5
60 3 0.784037 0.0797291 0.5
24 2 0.248759 0.121772 0.5
21 2 0.404235 0.14394 0.5
27 2 0.721111 0.103362 0.5
72 4 0.711739 0.149682 0.5
58 3 0.77526 0.125376 0.5
32 2 0.834319 0.125815 0.5
23 2 0.925088 0.106462 0.5
59 3 0.264482 0.207396 0.5
67 4 0.611575 0.202131 0.5
34 2 0.66012 0.191945 0.5
45 3 0.813171 0.181452 0.5
22 2 0.872151 0.204504 0.5
39 2 0.9661 0.196721 0.5
28 2 0.143169 0.239894 0.5
17 1 0.339562 0.220435 0.5
64 4 0.673415 0.252446 0.5
61 4 0.374164 0.279676 0.5
29 2 0.539339 0.313227 0.5
76 4 0.576299 0.264784 0.5
26 2 0.623732 0.289965 0.5
79 4 0.668824 0.314756 0.5
35 2 0.886435 0.30901 0.5
70 4 0.157635 0.365828 0.5
5 1 0.308328 0.319777 0.5
43 3 0.367707 0.356358 0.5
71 4 0.962534 0.356273 0.5
44 3 0.984498 0.404954 0.5
14 1 0.138776 0.454855 0.5
7 1 0.29685 0.434777 0.5
73 4 0.367555 0.432703 0.5
33 2 0.523185 0.450218 0.5
9 1 0.639463 0.461572 0.5
62 4 0.0538851 0.511543 0.5
19 1 0.306673 0.508185 0.5
74 4 0.361272 0.519166 0.5
69 4 0.47342 0.481729 0.5
30 2 0.940175 0.494506 0.5
18 1 0.00348959 0.552459 0.5
1 1 0.17377 0.574349 0.5
48 3 0.128676 0.522029 0.5
10 1 0.814375 0.588402 0.5
25 2 0.854055 0.522164 0.5
3 1 0.0820786 0.59722 0.5
75 4 0.661605 0.597307 0.5
38 2 0.910687 0.623046 0.5
51 3 0.205675 0.635203 0.5
13 1 0.325656 0.6329 0.5
54 3 0.611272 0.643151 0.5
57 3 0.998796 0.643799 0.5
41 3 0.0248805 0.746059 0.5
31 2 0.216693 0.727708 0.5
50 3 0.291831 0.697082 0.5
77 4 0.576154 0.700105 0.5
15 1 0.837914 0.731043 0.5
56 3 0.918566 0.703588 0.5
37 2 0.986411 0.702862 0.5
53 3 0.368083 0.737353 0.5
2 1 0.565719 0.773295 0.5
63 4 0.951079 0.778848 0.5
40 2 0.382689 0.800003 0.5
80 4 0.399426 0.842365 0.5
66 4 0.696319 0.807415 0.5
78 4 0.558089 0.888077 0.5
12 1 0.591517 0.925017 0.5
20 1 0.654602 0.88115 0.5
4 1 0.698406 0.929629 0.5
68 4 0.130896 0.969233 0.5
16 1 0.353072 0.995599 0.5
46 3 0.401492 0.95479 0.5
49 3 0.740949 0.957979 0.5
52 3 0.690732 0.998137 0.5
36 2 0.845497 0.983193 0.5
6 1 0.917946 0.981524 0.5
ITEM: TIMESTEP
100
ITEM: NUMBER OF ATOMS
80
ITEM: BOX BOUNDS pp pp pp
-6.2904201286134382e+00 6.2904201286134382e+00
-6.2904201286134382e+00 6.2904201286134382e+00
-1.0000000000000001e-01 1.0000000000000001e-01
ITEM: ATOMS id type xs ys zs
65 4 0.156662 0.0245725 0.5
11 1 0.54553 0.0335822 0.5
8 1 0.767353 0.993632 0.5
47 3 0.807586 0.047937 0.5
42 3 0.975173 0.0301026 0.5
55 3 0.685428 0.0548578 0.5
60 3 0.783842 0.0799232 0.5
24 2 0.248745 0.121696 0.5
21 2 0.404474 0.143656 0.5
27 2 0.720461 0.100879 0.5
72 4 0.710931 0.153057 0.5
58 3 0.773453 0.12654 0.5
32 2 0.837598 0.12299 0.5
23 2 0.925191 0.106353 0.5
59 3 0.263079 0.207172 0.5
67 4 0.607913 0.202797 0.5
34 2 0.663466 0.190698 0.5
45 3 0.811353 0.184576 0.5
22 2 0.874071 0.206206 0.5
39 2 0.966295 0.196789 0.5
28 2 0.143169 0.239894 0.5
17 1 0.340347 0.219081 0.5
64 4 0.674358 0.252417 0.5
61 4 0.375468 0.280139 0.5
29 2 0.538306 0.314139 0.5
76 4 0.576185 0.263605 0.5
26 2 0.621601 0.28942 0.5
79 4 0.671362 0.316272 0.5
35 2 0.886435 0.30901 0.5
70 4 0.157636 0.365822 0.5
5 1 0.304531 0.31912 0.5
43 3 0.370606 0.358361 0.5
71 4 0.962249 0.355641 0.5
44 3 0.984783 0.405585 0.5
14 1 0.13885 0.453266 0.5
7 1 0.294847 0.428395 0.5
73 4 0.368647 0.432354 0.5
33 2 0.524329 0.449493 0.5
9 1 0.639463 0.461572 0.5
62 4 0.0558006 0.509788 0.5
19 1 0.306092 0.51435 0.5
74 4 0.362748 0.519847 0.5
69 4 0.472276 0.482454 0.5
30 2 0.939438 0.493693 0.5
18 1 0.000915048 0.553824 0.5
1 1 0.178351 0.575978 0.5
48 3 0.127067 0.519205 0.5
10 1 0.811884 0.591756 0.5
25 2 0.855941 0.518693 0.5
3 1 0.0801508 0.599998 0.5
75 4 0.661605 0.597307 0.5
38 2 0.911057 0.622924 0.5
51 3 0.206234 0.636116 0.5
13 1 0.326958 0.630458 0.5
54 3 0.611277 0.643144 0.5
57 3 0.998933 0.642471 0.5
41 3 0.0269147 0.748484 0.5
31 2 0.216522 0.72778 0.5
50 3 0.290702 0.699467 0.5
77 4 0.576261 0.699334 0.5
15 1 0.837271 0.731262 0.5
56 3 0.918496 0.703659 0.5
37 2 0.984904 0.702016 0.5
53 3 0.367923 0.736703 0.5
2 1 0.565608 0.774073 0.5
63 4 0.951079 0.778848 0.5
40 2 0.381169 0.79637 0.5
80 4 0.401106 0.846648 0.5
66 4 0.696356 0.80735 0.5
78 4 0.554482 0.885028 0.5
12 1 0.59166 0.928792 0.5
20 1 0.653227 0.876236 0.5
4 1 0.700466 0.929836 0.5
68 4 0.130896 0.969233 0.5
16 1 0.349069 0.998973 0.5
46 3 0.405495 0.951416 0.5
49 3 0.742832 0.957243 0.5
52 3 0.689117 1.00004 0.5
36 2 0.845149 0.982173 0.5
6 1 0.919853 0.980655 0.5
ITEM: TIMESTEP
110
ITEM: NUMBER OF ATOMS
80
ITEM: BOX BOUNDS pp pp pp
-6.3523221869445861e+00 6.3523221869445861e+00
-6.3523221869445861e+00 6.3523221869445861e+00
-1.0000000000000001e-01 1.0000000000000001e-01
ITEM: ATOMS id type xs ys zs
65 4 0.156662 0.0245725 0.5
11 1 0.545447 0.0337778 0.5
8 1 0.76548 0.991333 0.5
47 3 0.810419 0.0503612 0.5
42 3 0.976312 0.0309951 0.5
55 3 0.684553 0.0545204 0.5
60 3 0.783597 0.0800754 0.5
24 2 0.248725 0.121589 0.5
21 2 0.404781 0.143292 0.5
27 2 0.719632 0.0983952 0.5
72 4 0.710204 0.156479 0.5
58 3 0.771604 0.127946 0.5
32 2 0.841095 0.120148 0.5
23 2 0.925375 0.106206 0.5
59 3 0.261534 0.206957 0.5
67 4 0.604155 0.203485 0.5
34 2 0.666792 0.189403 0.5
45 3 0.809373 0.18781 0.5
22 2 0.876086 0.208022 0.5
39 2 0.96657 0.196874 0.5
28 2 0.143169 0.239894 0.5
17 1 0.341195 0.217599 0.5
64 4 0.67539 0.252442 0.5
61 4 0.376885 0.280685 0.5
29 2 0.537115 0.315158 0.5
76 4 0.575979 0.262262 0.5
26 2 0.619549 0.288928 0.5
79 4 0.674 0.31784 0.5
35 2 0.886435 0.30901 0.5
70 4 0.15764 0.365804 0.5
5 1 0.300537 0.318431 0.5
43 3 0.373619 0.360425 0.5
71 4 0.961932 0.35494 0.5
44 3 0.985099 0.406287 0.5
14 1 0.138964 0.451469 0.5
7 1 0.292708 0.421948 0.5
73 4 0.369841 0.432016 0.5
33 2 0.525558 0.448715 0.5
9 1 0.639463 0.461572 0.5
62 4 0.0577991 0.50797 0.5
19 1 0.305312 0.520611 0.5
74 4 0.364434 0.52054 0.5
69 4 0.471046 0.483232 0.5
30 2 0.938675 0.492721 0.5
18 1 0.998213 0.555168 0.5
1 1 0.183053 0.577448 0.5
48 3 0.125351 0.516473 0.5
10 1 0.809253 0.595212 0.5
25 2 0.857799 0.515131 0.5
3 1 0.0783244 0.602919 0.5
75 4 0.661605 0.597307 0.5
38 2 0.911468 0.622763 0.5
51 3 0.206891 0.637244 0.5
13 1 0.328332 0.62796 0.5
54 3 0.611285 0.64313 0.5
57 3 0.999051 0.641101 0.5
41 3 0.0290498 0.751018 0.5
31 2 0.216278 0.727881 0.5
50 3 0.289585 0.70194 0.5
77 4 0.576377 0.698475 0.5
15 1 0.836524 0.731516 0.5
56 3 0.918377 0.703765 0.5
37 2 0.98341 0.701233 0.5
53 3 0.367721 0.735861 0.5
2 1 0.565483 0.774947 0.5
63 4 0.951079 0.778848 0.5
40 2 0.379652 0.792831 0.5
80 4 0.402825 0.851029 0.5
66 4 0.696428 0.807227 0.5
78 4 0.550779 0.881849 0.5
12 1 0.591622 0.932811 0.5
20 1 0.651824 0.870967 0.5
4 1 0.702432 0.929751 0.5
68 4 0.130896 0.969233 0.5
16 1 0.344972 0.0024258 0.5
46 3 0.409592 0.947963 0.5
49 3 0.744822 0.956332 0.5
52 3 0.687277 0.00202572 0.5
36 2 0.84483 0.981045 0.5
6 1 0.921859 0.979661 0.5
ITEM: TIMESTEP
120
ITEM: NUMBER OF ATOMS
80
ITEM: BOX BOUNDS pp pp pp
-6.4185787396081029e+00 6.4185787396081029e+00
-6.4185787396081029e+00 6.4185787396081029e+00
-1.0000000000000001e-01 1.0000000000000001e-01
ITEM: ATOMS id type xs ys zs
65 4 0.156662 0.0245725 0.5
11 1 0.545323 0.0340615 0.5
8 1 0.763838 0.9894 0.5
47 3 0.813404 0.0526831 0.5
42 3 0.977563 0.0319968 0.5
55 3 0.683541 0.0541857 0.5
60 3 0.783288 0.08018 0.5
24 2 0.248701 0.121456 0.5
21 2 0.405154 0.142851 0.5
27 2 0.718651 0.0959541 0.5
72 4 0.709601 0.159863 0.5
58 3 0.769758 0.129588 0.5
32 2 0.844722 0.117391 0.5
23 2 0.925661 0.106026 0.5
59 3 0.259877 0.206755 0.5
67 4 0.60038 0.204181 0.5
34 2 0.669999 0.188112 0.5
45 3 0.807284 0.191077 0.5
22 2 0.878138 0.209894 0.5
39 2 0.966922 0.196964 0.5
28 2 0.143169 0.239894 0.5
17 1 0.342084 0.216038 0.5
64 4 0.676482 0.252524 0.5
61 4 0.378365 0.281309 0.5
29 2 0.535794 0.316259 0.5
76 4 0.575669 0.260779 0.5
26 2 0.617632 0.288501 0.5
79 4 0.676685 0.319429 0.5
35 2 0.886435 0.309016 0.5
70 4 0.157648 0.365766 0.5
5 1 0.296457 0.31767 0.5
43 3 0.376677 0.362504 0.5
71 4 0.961593 0.354188 0.5
44 3 0.985439 0.407039 0.5
14 1 0.139121 0.449491 0.5
7 1 0.290491 0.415599 0.5
73 4 0.371095 0.431696 0.5
33 2 0.526843 0.447901 0.5
9 1 0.639463 0.461572 0.5
62 4 0.0598319 0.506128 0.5
19 1 0.304335 0.526813 0.5