ITEM: TIMESTEP
250
ITEM: NUMBER OF ATOMS
59
ITEM: BOX BOUNDS pp pp pp
-4.8054580918061038e+00 4.8054580918061038e+00
-4.8073954482087249e+00 4.8073954482087249e+00
-1.0000000000000001e-01 1.0000000000000001e-01
ITEM: ATOMS id type xs ys zs
24 1 0.0437971 0.109263 0.499925
40 1 0.164381 0.078649 0.500545
11 1 0.31749 0.0880927 0.499763
6 1 0.56484 0.0508045 0.500387
29 1 0.703426 0.0112276 0.499937
42 1 0.0400169 0.219338 0.500104
30 1 0.142511 0.202886 0.499901
80 1 0.367673 0.193172 0.500863
22 1 0.443565 0.135565 0.499672
21 1 0.658608 0.125264 0.499955
33 1 0.790179 0.10534 0.499961
8 1 0.907048 0.220345 0.500059
37 1 0.00940111 0.320377 0.500947
69 1 0.0939 0.291205 0.500376
38 1 0.266715 0.216581 0.499764
9 1 0.634946 0.255735 0.501077
36 1 0.77003 0.221776 0.499242
55 1 0.0978716 0.378928 0.500542
14 1 0.20698 0.331641 0.499973
23 1 0.564968 0.395064 0.498431
61 1 0.653107 0.357367 0.500958
46 1 0.676081 0.428014 0.500043
16 1 0.768128 0.350889 0.501086
35 1 0.53681 0.505327 0.500736
68 1 0.637452 0.493205 0.499474
63 1 0.628085 0.560437 0.499836
12 1 0.742082 0.540899 0.501043
75 1 0.8463 0.569457 0.500407
64 1 0.816464 0.627568 0.50023
4 1 0.955523 0.537774 0.500043
43 1 0.565332 0.606273 0.500341
62 1 0.653479 0.613339 0.500344
74 1 0.689585 0.654625 0.500527
77 1 0.751461 0.636079 0.499868
58 1 0.895243 0.647241 0.499472
65 1 0.093593 0.68874 0.498874
10 1 0.201649 0.70366 0.501039
18 1 0.480195 0.707677 0.498914
71 1 0.688816 0.721427 0.500227
19 1 0.794245 0.746669 0.498983
27 1 0.930625 0.750152 0.500569
25 1 0.997889 0.662564 0.50056
56 1 0.0494903 0.760038 0.500097
66 1 0.120969 0.778796 0.498987
54 1 0.153563 0.859983 0.499205
45 1 0.234286 0.829776 0.500976
5 1 0.37106 0.806848 0.500987
34 1 0.513318 0.839018 0.500233
76 1 0.546089 0.93675 0.499844
72 1 0.435782 0.8879 0.499962
7 1 0.658594 0.820457 0.498478
70 1 0.894309 0.836505 0.499768
50 1 0.824442 0.859973 0.499279
17 1 0.99979 0.875053 0.500285
15 1 0.104768 0.975558 0.500216
13 1 0.269456 0.941324 0.499654
3 1 0.417615 0.994649 0.499743
52 1 0.632982 0.942318 0.50036
49 1 0.753388 0.911548 0.499606
ITEM: TIMESTEP
500
ITEM: NUMBER OF ATOMS
59
ITEM: BOX BOUNDS pp pp pp
-4.8042566431817493e+00 4.8042566431817493e+00
-4.8079983728255220e+00 4.8079983728255220e+00
-1.0000000000000001e-01 1.0000000000000001e-01
ITEM: ATOMS id type xs ys zs
24 1 0.0444487 0.108678 0.499071
40 1 0.164578 0.0785889 0.500743
11 1 0.317103 0.0884084 0.498942
6 1 0.565646 0.0510782 0.500049
29 1 0.703109 0.0117046 0.499202
42 1 0.040172 0.219049 0.49928
30 1 0.142206 0.203223 0.500053
80 1 0.367668 0.193067 0.50038
22 1 0.443583 0.13515 0.500385
21 1 0.658363 0.12562 0.501531
33 1 0.789734 0.10531 0.499775
8 1 0.907162 0.220458 0.499233
37 1 0.00925718 0.320677 0.503081
69 1 0.0930933 0.291573 0.499477
38 1 0.266482 0.216108 0.500501
9 1 0.634504 0.256059 0.499769
36 1 0.77005 0.221717 0.499889
55 1 0.0974938 0.379522 0.49959
14 1 0.206588 0.331554 0.50046
23 1 0.56651 0.396828 0.49766
61 1 0.653806 0.357115 0.501535
46 1 0.677002 0.427982 0.501695
16 1 0.769185 0.350162 0.502757
35 1 0.537609 0.505621 0.501243
68 1 0.637902 0.49287 0.498677
63 1 0.628041 0.560558 0.49962
12 1 0.742604 0.540683 0.500263
75 1 0.846742 0.569309 0.50061
64 1 0.816374 0.627526 0.499289
4 1 0.956027 0.537762 0.498633
43 1 0.565148 0.606797 0.500355
62 1 0.653601 0.613147 0.499072
74 1 0.689745 0.654335 0.501169
77 1 0.751538 0.635724 0.501492
58 1 0.895206 0.647588 0.500329
65 1 0.0934148 0.690516 0.500718
10 1 0.201674 0.703784 0.501248
18 1 0.481573 0.708665 0.498383
71 1 0.689155 0.720693 0.498605
19 1 0.794135 0.747042 0.497593
27 1 0.930275 0.750785 0.50489
25 1 0.99774 0.663762 0.501037
56 1 0.0492393 0.761624 0.500871
66 1 0.120914 0.779431 0.500337
54 1 0.152731 0.860635 0.49832
45 1 0.234098 0.8296 0.500086
5 1 0.371292 0.807348 0.500845
34 1 0.513333 0.839884 0.500411
76 1 0.546328 0.937174 0.499318
72 1 0.435547 0.888052 0.50069
7 1 0.659419 0.820629 0.498203
70 1 0.894069 0.836853 0.500639
50 1 0.824412 0.860372 0.500692
17 1 0.99914 0.876711 0.498843
15 1 0.104947 0.975751 0.499922
13 1 0.269233 0.941639 0.500745
3 1 0.417428 0.995451 0.499209
52 1 0.633424 0.942109 0.500783
49 1 0.75345 0.912267 0.499554
ITEM: TIMESTEP
750
ITEM: NUMBER OF ATOMS
59
ITEM: BOX BOUNDS pp pp pp
-4.8030551945573938e+00 4.8030551945573938e+00
-4.8069838717796243e+00 4.8069838717796243e+00
-1.0000000000000001e-01 1.0000000000000001e-01
ITEM: ATOMS id type xs ys zs
24 1 0.0455307 0.109426 0.498371
40 1 0.165919 0.0782229 0.501753
11 1 0.317675 0.0884571 0.499564
6 1 0.56607 0.0517873 0.500003
29 1 0.704575 0.0123323 0.498008
42 1 0.0401268 0.219265 0.500017
30 1 0.142115 0.203011 0.498963
80 1 0.367249 0.193695 0.500413
22 1 0.443701 0.136579 0.500457
21 1 0.65974 0.126592 0.498485
33 1 0.791104 0.106158 0.501703
8 1 0.906653 0.219611 0.497834
37 1 0.00885265 0.320091 0.504258
69 1 0.0930212 0.291353 0.499195
38 1 0.266231 0.216227 0.499859
9 1 0.634464 0.256203 0.499499
36 1 0.769672 0.221938 0.497985
55 1 0.0969279 0.379148 0.50044
14 1 0.206391 0.332105 0.500769
23 1 0.565942 0.395194 0.49868
61 1 0.653872 0.357519 0.503756
46 1 0.676889 0.428249 0.503376
16 1 0.769172 0.350499 0.503802
35 1 0.53786 0.505553 0.503508
68 1 0.638279 0.493058 0.499521
63 1 0.628705 0.560622 0.499347
12 1 0.742922 0.540536 0.500069
75 1 0.847171 0.569595 0.50046
64 1 0.816345 0.627326 0.500213
4 1 0.95663 0.538803 0.498018
43 1 0.566263 0.606026 0.500015
62 1 0.654398 0.613293 0.499409
74 1 0.690276 0.655058 0.502572
77 1 0.751419 0.635523 0.499857
58 1 0.895429 0.647849 0.501994
65 1 0.0944921 0.690141 0.500507
10 1 0.202594 0.704039 0.50283
18 1 0.482821 0.708051 0.498349
71 1 0.689341 0.721111 0.500242
19 1 0.794588 0.746219 0.49992
27 1 0.931203 0.751331 0.505561
25 1 0.998165 0.663677 0.501054
56 1 0.0500016 0.760898 0.500684
66 1 0.121325 0.778772 0.500579
54 1 0.153039 0.860455 0.499049
45 1 0.234582 0.8297 0.500305
5 1 0.37152 0.806539 0.500106
34 1 0.513231 0.840243 0.499567
76 1 0.547525 0.937772 0.498725
72 1 0.435274 0.888676 0.499302
7 1 0.658168 0.82029 0.495855
70 1 0.894248 0.837853 0.502057
50 1 0.824285 0.860223 0.499443
17 1 0.999738 0.876182 0.500475
15 1 0.10591 0.975605 0.498323
13 1 0.270027 0.941557 0.499144
3 1 0.418097 0.995851 0.499652
52 1 0.634019 0.943216 0.500788
49 1 0.753179 0.911591 0.498172
ITEM: TIMESTEP
1000
ITEM: NUMBER OF ATOMS
59
ITEM: BOX BOUNDS pp pp pp
-4.8018537459330384e+00 4.8018537459330384e+00
-4.8063207192698849e+00 4.8063207192698849e+00
-1.0000000000000001e-01 1.0000000000000001e-01
ITEM: ATOMS id type xs ys zs
24 1 0.0444513 0.109011 0.498088
40 1 0.165352 0.0782062 0.500365
11 1 0.318247 0.0881877 0.499861
6 1 0.565538 0.0522308 0.500704
29 1 0.70376 0.0118823 0.498342
42 1 0.0401323 0.21947 0.500577
30 1 0.142681 0.203188 0.499623
80 1 0.367674 0.193795 0.500824
22 1 0.444621 0.137152 0.498439
21 1 0.659089 0.126682 0.499315
33 1 0.790764 0.105513 0.501857
8 1 0.906886 0.219153 0.498108
37 1 0.00807312 0.320143 0.503277
69 1 0.0923922 0.290769 0.498951
38 1 0.266964 0.216754 0.500008
9 1 0.6347 0.256678 0.499001
36 1 0.769945 0.222468 0.496978
55 1 0.096653 0.378795 0.50012
14 1 0.205882 0.331448 0.500795
23 1 0.566279 0.395175 0.499842
61 1 0.653905 0.357705 0.503298
46 1 0.676794 0.427948 0.503459
16 1 0.768824 0.35106 0.503556
35 1 0.538429 0.505111 0.504238
68 1 0.639319 0.49337 0.501242
63 1 0.628745 0.560588 0.498655
12 1 0.74365 0.540733 0.50006
75 1 0.847483 0.570463 0.49968
64 1 0.816743 0.628223 0.501155
4 1 0.956357 0.537661 0.499155
43 1 0.565796 0.605861 0.499859
62 1 0.655131 0.612789 0.499543
74 1 0.69037 0.654977 0.503795
77 1 0.751721 0.635838 0.499978
58 1 0.896268 0.647037 0.50225
65 1 0.0945997 0.690317 0.501049
10 1 0.203048 0.70328 0.501957
18 1 0.482733 0.708123 0.495842
71 1 0.689087 0.721532 0.500945
19 1 0.793911 0.746738 0.499813
27 1 0.931018 0.750474 0.505842
25 1 0.998991 0.663073 0.501669
56 1 0.050135 0.760991 0.501891
66 1 0.121961 0.778597 0.498716
54 1 0.154373 0.86056 0.498573
45 1 0.236028 0.829394 0.501543
5 1 0.371717 0.805504 0.500824
34 1 0.513245 0.840266 0.500101
76 1 0.54623 0.938396 0.500648
72 1 0.435015 0.887773 0.499026
7 1 0.659186 0.821322 0.496267
70 1 0.894876 0.836841 0.501349
50 1 0.824615 0.859975 0.499582
17 1 1.00038 0.876026 0.498387
15 1 0.105588 0.975976 0.497448
13 1 0.271032 0.940838 0.50137
3 1 0.418653 0.994645 0.498672
52 1 0.633002 0.943188 0.500853
49 1 0.754535 0.912402 0.497309
ITEM: TIMESTEP
1250
ITEM: NUMBER OF ATOMS
59
ITEM: BOX BOUNDS pp pp pp
-4.8006522973086829e+00 4.8006522973086829e+00
-4.8081157604420142e+00 4.8081157604420142e+00
-1.0000000000000001e-01 1.0000000000000001e-01
ITEM: ATOMS id type xs ys zs
24 1 0.0443794 0.108409 0.497985
40 1 0.165104 0.0779406 0.499235
11 1 0.317719 0.0883408 0.498548
6 1 0.5659 0.0516854 0.501386
29 1 0.703759 0.0118249 0.498052
42 1 0.0401581 0.21835 0.498935
30 1 0.142739 0.202765 0.498817
80 1 0.36807 0.19308 0.499847
22 1 0.444625 0.136039 0.497008
21 1 0.659661 0.125794 0.497748
33 1 0.791287 0.105057 0.503947
8 1 0.906744 0.217335 0.497316
37 1 0.00735832 0.319287 0.503102
69 1 0.0914048 0.290081 0.499596
38 1 0.267658 0.217626 0.500639
9 1 0.634865 0.256307 0.49952
36 1 0.770272 0.221728 0.498301
55 1 0.0962028 0.37809 0.50018
14 1 0.20614 0.332511 0.50222
23 1 0.566312 0.396193 0.498952
61 1 0.653723 0.357787 0.502662
46 1 0.677296 0.428371 0.504412
16 1 0.76932 0.350733 0.502218
35 1 0.537901 0.506348 0.504487
68 1 0.638541 0.493149 0.506255
63 1 0.629198 0.560449 0.497282
12 1 0.744005 0.54016 0.499396
75 1 0.847149 0.570029 0.498969
64 1 0.816181 0.6279 0.499977
4 1 0.956434 0.538902 0.498189
43 1 0.566712 0.606836 0.497765
62 1 0.654821 0.612924 0.501281
74 1 0.689669 0.655183 0.502812
77 1 0.751146 0.635631 0.499294
58 1 0.895102 0.648498 0.503185
65 1 0.0940372 0.689733 0.49898
10 1 0.202497 0.703747 0.503009
18 1 0.482881 0.708743 0.497833
71 1 0.689161 0.721796 0.502552
19 1 0.794572 0.746484 0.502403
27 1 0.930995 0.751633 0.506621
25 1 0.998035 0.663782 0.502944
56 1 0.0501419 0.760782 0.500221
66 1 0.121536 0.779078 0.499021
54 1 0.154959 0.860311 0.498966
45 1 0.236181 0.829301 0.500884
5 1 0.370432 0.807124 0.500353
34 1 0.513163 0.840644 0.499542
76 1 0.547081 0.938182 0.499054
72 1 0.435341 0.887679 0.500488
7 1 0.658657 0.821094 0.495905
70 1 0.894473 0.837815 0.5019
50 1 0.824089 0.860709 0.499203
17 1 1.00014 0.875567 0.497245
15 1 0.106125 0.974777 0.49839
13 1 0.268943 0.942151 0.502747
3 1 0.418058 0.99477 0.497179
52 1 0.633995 0.942665 0.501093
49 1 0.753384 0.912121 0.497572
ITEM: TIMESTEP
1500
ITEM: NUMBER OF ATOMS
59
ITEM: BOX BOUNDS pp pp pp
-4.7994508486843284e+00 4.7994508486843284e+00
-4.8136002059028664e+00 4.8136002059028664e+00
-1.0000000000000001e-01 1.0000000000000001e-01
ITEM: ATOMS id type xs ys zs
24 1 0.0450018 0.108894 0.498787
40 1 0.165535 0.0775935 0.501552
11 1 0.31776 0.088616 0.500671
6 1 0.565411 0.0515981 0.502746
29 1 0.703884 0.0124614 0.499189
42 1 0.0407154 0.218368 0.502211
30 1 0.142955 0.201955 0.500796
80 1 0.368087 0.193394 0.500424
22 1 0.444429 0.135922 0.497385
21 1 0.65883 0.126677 0.498568
33 1 0.790517 0.106019 0.503722
8 1 0.906908 0.216834 0.498611
37 1 0.00740343 0.318369 0.503247
69 1 0.0917568 0.288955 0.499083
38 1 0.267072 0.217279 0.499341
9 1 0.633671 0.256627 0.499739
36 1 0.768904 0.221159 0.498116
55 1 0.0962937 0.37689 0.499803
14 1 0.205751 0.331986 0.500282
23 1 0.565466 0.396427 0.495877
61 1 0.653134 0.357735 0.502951
46 1 0.676458 0.428233 0.502227
16 1 0.768437 0.349891 0.501666
35 1 0.538555 0.506478 0.50552
68 1 0.63853 0.493506 0.506612
63 1 0.628196 0.560333 0.49649
12 1 0.742962 0.540307 0.503094
75 1 0.847077 0.570088 0.500112
64 1 0.816082 0.627576 0.501647
4 1 0.956161 0.538242 0.498539
43 1 0.566454 0.607338 0.49717
62 1 0.654215 0.612794 0.501903
74 1 0.689303 0.655007 0.504441
77 1 0.751212 0.635493 0.49967
58 1 0.895179 0.647272 0.503114
65 1 0.093913 0.689337 0.497587
10 1 0.20161 0.704209 0.502436
18 1 0.483468 0.708889 0.499382
71 1 0.688684 0.721247 0.501304
19 1 0.793793 0.746446 0.501541
27 1 0.930728 0.750912 0.507634
25 1 0.997909 0.663017 0.502287
56 1 0.0497181 0.760133 0.50143
66 1 0.121201 0.779497 0.499022
54 1 0.155044 0.859971 0.500527
45 1 0.236462 0.829453 0.501396
5 1 0.371373 0.805667 0.502088
34 1 0.513031 0.8407 0.500115
76 1 0.546695 0.937913 0.499034
72 1 0.434145 0.887781 0.500249
7 1 0.658346 0.821044 0.496362
70 1 0.893881 0.837193 0.501596
50 1 0.82334 0.85945 0.500415
17 1 0.99999 0.875353 0.497008
15 1 0.105918 0.974873 0.498643
13 1 0.270804 0.941714 0.504916
3 1 0.418215 0.994866 0.499081
52 1 0.633765 0.943348 0.502168
49 1 0.753652 0.912519 0.49784
ITEM: TIMESTEP
1750
ITEM: NUMBER OF ATOMS
59
ITEM: BOX BOUNDS pp pp pp
-4.7982494000599729e+00 4.7982494000599729e+00
-4.8128016573179666e+00 4.8128016573179666e+00
-1.0000000000000001e-01 1.0000000000000001e-01
ITEM: ATOMS id type xs ys zs
24 1 0.0455609 0.107509 0.499533
40 1 0.166791 0.077844 0.500608
11 1 0.318879 0.0885722 0.499325
6 1 0.565904 0.0517646 0.501596
29 1 0.704379 0.0119879 0.499042
42 1 0.0405915 0.217402 0.502593
30 1 0.142699 0.201425 0.500244
80 1 0.368039 0.194235 0.499544
22 1 0.44414 0.136035 0.496409
21 1 0.659407 0.126476 0.498552
33 1 0.790523 0.105773 0.50472
8 1 0.906884 0.216678 0.497305
37 1 0.00807677 0.317356 0.50312
69 1 0.0924828 0.288752 0.498567
38 1 0.26634 0.216295 0.499491
9 1 0.634628 0.256813 0.501992
36 1 0.769279 0.221311 0.499314
55 1 0.0951621 0.377122 0.498902
14 1 0.205291 0.331106 0.502214
23 1 0.565698 0.396663 0.495455
61 1 0.653499 0.358504 0.501594
46 1 0.676982 0.428813 0.499186
16 1 0.768544 0.350456 0.499968
35 1 0.5378 0.506809 0.505961
68 1 0.638072 0.493956 0.506194
63 1 0.628168 0.561351 0.49664
12 1 0.742947 0.541305 0.504705
75 1 0.847143 0.570111 0.499843
64 1 0.816412 0.627619 0.502893
4 1 0.956803 0.537582 0.499058
43 1 0.565793 0.607548 0.49591
62 1 0.65413 0.613893 0.500947
74 1 0.689756 0.655785 0.504604
77 1 0.751245 0.636404 0.500113
58 1 0.895228 0.64724 0.505365
65 1 0.093916 0.689989 0.497727
10 1 0.202106 0.705246 0.501544
18 1 0.481899 0.70831 0.499271
71 1 0.687996 0.722124 0.502378
19 1 0.793528 0.747268 0.500618
27 1 0.930268 0.750986 0.507877
25 1 0.998247 0.662649 0.502838
56 1 0.0490176 0.76031 0.501567
66 1 0.120067 0.779475 0.49868
54 1 0.153963 0.860505 0.501569
45 1 0.235651 0.830473 0.501738
5 1 0.371188 0.807196 0.503205
34 1 0.512341 0.840193 0.499441
76 1 0.546729 0.937796 0.499619
72 1 0.434611 0.888653 0.501261
7 1 0.657637 0.821461 0.495081
70 1 0.894718 0.837351 0.502437
50 1 0.824492 0.860462 0.5008
17 1 1.00008 0.875749 0.497407
15 1 0.107461 0.974817 0.498958
13 1 0.271617 0.941664 0.503597
3 1 0.418864 0.995661 0.498853
52 1 0.633862 0.943209 0.50163
49 1 0.754188 0.912533 0.494557
ITEM: TIMESTEP
2000
ITEM: NUMBER OF ATOMS
59
ITEM: BOX BOUNDS pp pp pp
-4.7970479514356175e+00 4.7970479514356175e+00
-4.8123321299214670e+00 4.8123321299214670e+00
-1.0000000000000001e-01 1.0000000000000001e-01
ITEM: ATOMS id type xs ys zs
24 1 0.0449498 0.108424 0.498788
40 1 0.166024 0.0767621 0.500556
11 1 0.317278 0.0889177 0.49822
6 1 0.56608 0.0519063 0.500551
29 1 0.705153 0.012191 0.49789
42 1 0.0405614 0.218154 0.503405
30 1 0.142863 0.200976 0.50036
80 1 0.367891 0.193328 0.498165
22 1 0.4437 0.135782 0.495473
21 1 0.660049 0.126521 0.497104
33 1 0.79155 0.1068 0.503034
8 1 0.907356 0.215866 0.497728
37 1 0.0077078 0.318166 0.502687
69 1 0.0924901 0.288837 0.497331
38 1 0.267096 0.2172 0.498595
9 1 0.634169 0.25684 0.502693
36 1 0.769396 0.222495 0.498432
55 1 0.0958462 0.377436 0.499588
14 1 0.205142 0.331395 0.502684
23 1 0.566267 0.39699 0.496002
61 1 0.654213 0.357871 0.498886
46 1 0.677263 0.428302 0.500305
16 1 0.769777 0.350825 0.499576
35 1 0.53775 0.506414 0.50591
68 1 0.638296 0.493658 0.506875
63 1 0.628719 0.561484 0.497376
12 1 0.742877 0.540877 0.504847
75 1 0.846854 0.569906 0.499917
64 1 0.815426 0.627417 0.505058
4 1 0.956055 0.537994 0.499479
43 1 0.56566 0.60719 0.495252
62 1 0.654067 0.614081 0.500647
74 1 0.689538 0.655961 0.504379
77 1 0.750653 0.635478 0.500318
58 1 0.894567 0.647517 0.505685
65 1 0.0939228 0.689656 0.496574
10 1 0.202218 0.705078 0.501188
18 1 0.479899 0.708175 0.498246
71 1 0.689162 0.722048 0.49981
19 1 0.794279 0.747441 0.499766
27 1 0.930545 0.750588 0.508445
25 1 0.997757 0.663051 0.503939
56 1 0.0497007 0.759971 0.500802
66 1 0.120878 0.779734 0.498251
54 1 0.153967 0.860632 0.502553
45 1 0.235837 0.830523 0.501467
5 1 0.369788 0.807394 0.503667
34 1 0.511753 0.840475 0.499998
76 1 0.547896 0.937835 0.500397
72 1 0.43416 0.889064 0.501514
7 1 0.657758 0.821376 0.494774
70 1 0.893875 0.836456 0.500586
50 1 0.823935 0.859978 0.500637
17 1 0.999861 0.875093 0.497246
15 1 0.105146 0.975026 0.501279
13 1 0.270952 0.941858 0.504403
3 1 0.418127 0.996508 0.498645
52 1 0.63455 0.943539 0.503117
49 1 0.753479 0.911803 0.493245
ITEM: TIMESTEP
2250
ITEM: NUMBER OF ATOMS
59
ITEM: BOX BOUNDS pp pp pp
-4.7958465028112620e+00 4.7958465028112620e+00
-4.8082997276236963e+00 4.8082997276236963e+00
-1.0000000000000001e-01 1.0000000000000001e-01
ITEM: ATOMS id type xs ys zs
24 1 0.0445911 0.107948 0.498512
40 1 0.165437 0.0775718 0.500776
11 1 0.317298 0.0890684 0.49968
6 1 0.566537 0.0523261 0.500508
29 1 0.704865 0.0119952 0.498368
42 1 0.040435 0.218026 0.502571
30 1 0.142846 0.202036 0.498464
80 1 0.368094 0.193272 0.498112
22 1 0.444166 0.135994 0.494867
21 1 0.660271 0.126369 0.496569
33 1 0.791892 0.105816 0.503691
8 1 0.907156 0.214616 0.495284
37 1 0.00666923 0.317746 0.500615
69 1 0.0917107 0.289773 0.497001
38 1 0.267196 0.21754 0.497173
9 1 0.634312 0.256361 0.50239
36 1 0.769701 0.222259 0.500354
55 1 0.0950929 0.377469 0.498677
14 1 0.205058 0.331761 0.502163
23 1 0.565732 0.396684 0.49508
61 1 0.653299 0.357754 0.497977
46 1 0.67685 0.428286 0.499596
16 1 0.768591 0.350711 0.498204
35 1 0.537737 0.50714 0.506107
68 1 0.638542 0.49386 0.508317
63 1 0.62843 0.561104 0.498082
12 1 0.74336 0.541229 0.504677
75 1 0.847777 0.570506 0.501223
64 1 0.816503 0.627947 0.507892
4 1 0.956441 0.537156 0.498899
43 1 0.565953 0.607725 0.494375
62 1 0.654584 0.613748 0.499463
74 1 0.690071 0.655643 0.504621
77 1 0.751657 0.63622 0.499003
58 1 0.895727 0.646916 0.505636
65 1 0.0945712 0.68977 0.496098
10 1 0.202817 0.704588 0.500881
18 1 0.481196 0.70924 0.498837
71 1 0.687684 0.722114 0.50016
19 1 0.79387 0.747533 0.498853
27 1 0.930704 0.749904 0.509179
25 1 0.998714 0.662788 0.503094
56 1 0.049756 0.760244 0.501518
66 1 0.121225 0.778834 0.499608
54 1 0.153904 0.860422 0.503801
45 1 0.235547 0.829915 0.499868
5 1 0.370165 0.807756 0.502777
34 1 0.511812 0.841509 0.500286
76 1 0.547516 0.938522 0.499527
72 1 0.433623 0.889044 0.502577
7 1 0.657042 0.820905 0.49551
70 1 0.893313 0.835401 0.499691
50 1 0.823802 0.860646 0.501353
17 1 0.998773 0.875084 0.498556
15 1 0.105422 0.975104 0.50064
13 1 0.269936 0.941983 0.505017
3 1 0.418645 0.996778 0.500053
52 1 0.634361 0.943422 0.502453
49 1 0.752479 0.911198 0.492707
ITEM: TIMESTEP
2500
ITEM: NUMBER OF ATOMS
59
ITEM: BOX BOUNDS pp pp pp
-4.7946450541869075e+00 4.7946450541869075e+00
-4.8098007563103975e+00 4.8098007563103975e+00
-1.0000000000000001e-01 1.0000000000000001e-01
ITEM: ATOMS id type xs ys zs
24 1 0.0438162 0.108408 0.498101
40 1 0.164481 0.0770941 0.501435
11 1 0.316776 0.0893459 0.499492
6 1 0.56662 0.052429 0.499316
29 1 0.704524 0.0116888 0.497085
42 1 0.0407514 0.217528 0.504278
30 1 0.143316 0.202348 0.499175
80 1 0.368162 0.193702 0.49834
22 1 0.443809 0.135218 0.493592
21 1 0.660828 0.126336 0.496603
33 1 0.791871 0.104523 0.503116
8 1 0.907307 0.214628 0.494316
37 1 0.00635644 0.318171 0.500113
69 1 0.0903955 0.288851 0.496732
38 1 0.267257 0.218055 0.496799
9 1 0.634656 0.256126 0.503415
36 1 0.769877 0.220602 0.500677
55 1 0.0946325 0.377553 0.500119
14 1 0.20505 0.332896 0.502076
23 1 0.56656 0.397137 0.495852
61 1 0.653575 0.35761 0.496808
46 1 0.677339 0.428283 0.50065
16 1 0.769104 0.349391 0.497098
35 1 0.537345 0.506139 0.505323
68 1 0.63847 0.493484 0.508801
63 1 0.627557 0.561032 0.498144
12 1 0.742797 0.541107 0.505183
75 1 0.847255 0.569575 0.501291
64 1 0.816337 0.627192 0.506812
4 1 0.95592 0.536892 0.499847
43 1 0.564406 0.606996 0.492989
62 1 0.653904 0.613476 0.501362
74 1 0.690072 0.654973 0.505194
77 1 0.751662 0.635389 0.50025
58 1 0.895902 0.646426 0.505812
65 1 0.0940928 0.689763 0.494818
10 1 0.202457 0.703984 0.500434
18 1 0.481516 0.709058 0.499978
71 1 0.688123 0.721614 0.5014
19 1 0.79319 0.747314 0.49843
27 1 0.930479 0.749307 0.508236
25 1 0.998307 0.662456 0.504417
56 1 0.0491872 0.760292 0.500546
66 1 0.120875 0.778855 0.498855
54 1 0.155278 0.859624 0.50396
45 1 0.237024 0.830019 0.500951
5 1 0.370014 0.80685 0.502329
34 1 0.511483 0.841116 0.49675
76 1 0.546734 0.938447 0.501514
72 1 0.433259 0.888598 0.504292
7 1 0.656643 0.82062 0.495215
70 1 0.892308 0.834658 0.49955
50 1 0.822783 0.860434 0.50047
17 1 0.998246 0.874939 0.499491
15 1 0.1051 0.974629 0.499738
13 1 0.270055 0.941958 0.505931
3 1 0.417984 0.996239 0.499415
52 1 0.63395 0.943252 0.503764
49 1 0.752208 0.911517 0.49317
ITEM: TIMESTEP
2750
ITEM: NUMBER OF ATOMS
59
ITEM: BOX BOUNDS pp pp pp
-4.7934436055625520e+00 4.7934436055625520e+00
-4.8004297729416514e+00 4.8004297729416514e+00
-1.0000000000000001e-01 1.0000000000000001e-01
ITEM: ATOMS id type xs ys zs
24 1 0.0420306 0.107562 0.497081
40 1 0.16354 0.078118 0.50112
11 1 0.316071 0.0884427 0.500725
6 1 0.56576 0.0526146 0.500251
29 1 0.703127 0.0115626 0.498308
42 1 0.0401699 0.217943 0.503513
30 1 0.143183 0.203081 0.498469
80 1 0.367565 0.192527 0.498151
22 1 0.442921 0.134027 0.493886
21 1 0.660429 0.125817 0.49782
33 1 0.792195 0.104775 0.50378
8 1 0.906497 0.215185 0.494537
37 1 0.00624139 0.318588 0.499626
69 1 0.0903379 0.289294 0.496517
38 1 0.267464 0.218007 0.497385
9 1 0.63344 0.255896 0.503534
36 1 0.768999 0.22056 0.500135
55 1 0.0949467 0.377316 0.4984
14 1 0.206062 0.332902 0.501874
23 1 0.565568 0.39656 0.495357
61 1 0.653182 0.357379 0.493665
46 1 0.676694 0.427673 0.500882
16 1 0.768602 0.349449 0.497656
35 1 0.537331 0.506194 0.505416
68 1 0.638129 0.493323 0.506366
63 1 0.627143 0.560424 0.49769
12 1 0.742378 0.540771 0.507789
75 1 0.846778 0.570044 0.50089
64 1 0.815898 0.627981 0.506544
4 1 0.956155 0.536196 0.500184
43 1 0.564452 0.607169 0.492455
62 1 0.654112 0.612421 0.500049
74 1 0.68936 0.655055 0.50554
77 1 0.750892 0.636052 0.497925
58 1 0.895051 0.645628 0.506725
65 1 0.0941121 0.689474 0.492416
10 1 0.202655 0.703439 0.500777
18 1 0.481089 0.70845 0.50276
71 1 0.687804 0.72146 0.49999
19 1 0.793528 0.74752 0.499787
27 1 0.930186 0.748988 0.507443
25 1 0.998338 0.661944 0.504214
56 1 0.0497397 0.759931 0.499127
66 1 0.120985 0.779242 0.498991
54 1 0.154681 0.860165 0.502945
45 1 0.235807 0.828848 0.500424
5 1 0.369937 0.80675 0.503652
34 1 0.511312 0.840814 0.49752
76 1 0.545398 0.938984 0.501342
72 1 0.433162 0.888982 0.502654
7 1 0.65722 0.82133 0.49365
70 1 0.892772 0.834727 0.500061
50 1 0.823714 0.861 0.501644
17 1 0.998184 0.874721 0.499542
15 1 0.104613 0.974557 0.50013
13 1 0.270985 0.940438 0.505066
3 1 0.417738 0.996617 0.499312
52 1 0.63249 0.942838 0.502523
49 1 0.752571 0.911634 0.493081
ITEM: TIMESTEP
3000
ITEM: NUMBER OF ATOMS
59
ITEM: BOX BOUNDS pp pp pp
-4.7922421569381966e+00 4.7922421569381966e+00
-4.8150030314857784e+00 4.8150030314857784e+00
-1.0000000000000001e-01 1.0000000000000001e-01
ITEM: ATOMS id type xs ys zs
24 1 0.0423452 0.107783 0.496799
40 1 0.163279 0.0779643 0.501673
11 1 0.315638 0.0879247 0.498308
6 1 0.565656 0.0520518 0.49932
29 1 0.703403 0.0119427 0.498154
42 1 0.0390235 0.217761 0.505971
30 1 0.141401 0.20216 0.49732
80 1 0.366818 0.192812 0.497814
22 1 0.442272 0.133777 0.493188
21 1 0.659741 0.126773 0.498166
33 1 0.791257 0.105283 0.502968
8 1 0.905755 0.216764 0.494187
37 1 0.00666796 0.318499 0.499357
69 1 0.090445 0.289458 0.497396
38 1 0.265701 0.216953 0.499066
9 1 0.633585 0.256916 0.504317
36 1 0.768606 0.220688 0.498078
55 1 0.0949114 0.37756 0.498656
14 1 0.204838 0.331892 0.50363
23 1 0.564509 0.396568 0.495587
61 1 0.652505 0.358025 0.494463
46 1 0.676534 0.427957 0.501144
16 1 0.76755 0.348855 0.497546
35 1 0.538165 0.507157 0.505855
68 1 0.638319 0.493228 0.503197
63 1 0.62741 0.560612 0.499537
12 1 0.742289 0.541111 0.508615
75 1 0.846511 0.570723 0.503368
64 1 0.815374 0.628377 0.506915
4 1 0.955167 0.536965 0.501324
43 1 0.56594 0.607662 0.493238
62 1 0.652941 0.613533 0.501702
74 1 0.688856 0.655073 0.503723
77 1 0.750503 0.636061 0.498255
58 1 0.89486 0.646938 0.506228
65 1 0.0938701 0.689382 0.492314
10 1 0.201699 0.70341 0.501099
18 1 0.481397 0.709169 0.501602
71 1 0.687814 0.721461 0.498094
19 1 0.793189 0.747402 0.499623
27 1 0.929924 0.749723 0.50784
25 1 0.997562 0.661978 0.503429
56 1 0.0491082 0.759098 0.499715
66 1 0.120026 0.778564 0.498981
54 1 0.1528 0.859675 0.500805
45 1 0.234422 0.829366 0.500969
5 1 0.369424 0.806783 0.503584
34 1 0.51141 0.84106 0.497946
76 1 0.546062 0.938189 0.500234
72 1 0.432931 0.888712 0.500701
7 1 0.656975 0.82036 0.494386
70 1 0.893182 0.835479 0.499902
50 1 0.823379 0.860775 0.503711
17 1 0.999304 0.873981 0.499842
15 1 0.104639 0.974507 0.50129
13 1 0.269019 0.941198 0.503647
3 1 0.417598 0.996293 0.502277
52 1 0.633207 0.942843 0.503798
49 1 0.752392 0.911684 0.493193
ITEM: TIMESTEP
3250
ITEM: NUMBER OF ATOMS
59
ITEM: BOX BOUNDS pp pp pp
-4.7910407083138411e+00 4.7910407083138411e+00
-4.8059551489735206e+00 4.8059551489735206e+00
-1.0000000000000001e-01 1.0000000000000001e-01
ITEM: ATOMS id type xs ys zs
24 1 0.042833 0.107105 0.498032
40 1 0.164338 0.0772235 0.502435
11 1 0.315761 0.0880796 0.497847
6 1 0.56506 0.0524373 0.501157
29 1 0.703992 0.011995 0.497539
42 1 0.0392339 0.216799 0.506103
30 1 0.141345 0.201675 0.495433
80 1 0.366605 0.192745 0.498089
22 1 0.442216 0.134697 0.492628
21 1 0.65937 0.126669 0.499313
33 1 0.790465 0.105567 0.50087
8 1 0.905511 0.216787 0.49331
37 1 0.00689066 0.317934 0.497924
69 1 0.0915997 0.289751 0.497235
38 1 0.265822 0.216345 0.497621
9 1 0.632497 0.256581 0.501583
36 1 0.768041 0.220882 0.49811
55 1 0.0947525 0.377959 0.498849
14 1 0.205126 0.331632 0.5042
23 1 0.564687 0.397382 0.494097
61 1 0.652025 0.357916 0.491845
46 1 0.675768 0.428468 0.503101
16 1 0.767177 0.350063 0.497666
35 1 0.536298 0.507664 0.507824
68 1 0.637479 0.493398 0.503867
63 1 0.627433 0.560684 0.499846
12 1 0.742586 0.541314 0.508348
75 1 0.84648 0.571049 0.504181
64 1 0.815341 0.628979 0.507743
4 1 0.954961 0.536574 0.501987
43 1 0.566605 0.607956 0.493218
62 1 0.652981 0.613389 0.50253
74 1 0.688392 0.655141 0.504134
77 1 0.750077 0.636543 0.496246
58 1 0.893975 0.646958 0.506158
65 1 0.0936109 0.688775 0.493
10 1 0.20225 0.702908 0.500235
18 1 0.482207 0.709312 0.502451
71 1 0.687171 0.721618 0.498498
19 1 0.792343 0.748218 0.498742
27 1 0.929653 0.749876 0.509545
25 1 0.997341 0.66214 0.504842
56 1 0.0493487 0.759524 0.500691
66 1 0.121048 0.778296 0.49953
54 1 0.152846 0.859596 0.500078
45 1 0.234819 0.828686 0.500947
5 1 0.369793 0.806179 0.504251
34 1 0.510894 0.841055 0.497825
76 1 0.545641 0.938595 0.500856
72 1 0.432351 0.888279 0.499973
7 1 0.657106 0.821065 0.494029
70 1 0.893525 0.835921 0.499347
50 1 0.823948 0.861105 0.50124
17 1 0.999478 0.874703 0.499936
15 1 0.104732 0.974325 0.500453
13 1 0.269625 0.940443 0.503843
3 1 0.417049 0.995776 0.503096
52 1 0.632578 0.943713 0.504128
49 1 0.752586 0.911558 0.495142
ITEM: TIMESTEP
3500
ITEM: NUMBER OF ATOMS
59
ITEM: BOX BOUNDS pp pp pp
-4.7898392596894865e+00 4.7898392596894865e+00
-4.8066106104177546e+00 4.8066106104177546e+00
-1.0000000000000001e-01 1.0000000000000001e-01
ITEM: ATOMS id type xs ys zs
24 1 0.0440641 0.107248 0.498133
40 1 0.165604 0.0771001 0.503521
11 1 0.316665 0.0876598 0.496712
6 1 0.565421 0.0528466 0.501964
29 1 0.703598 0.0117479 0.496891
42 1 0.0395499 0.218079 0.505895
30 1 0.141844 0.201495 0.495392
80 1 0.367198 0.192431 0.498045
22 1 0.442833 0.13466 0.49343
21 1 0.659596 0.126443 0.499564
33 1 0.791535 0.105063 0.500975
8 1 0.905917 0.215966 0.494745
37 1 0.00651051 0.318316 0.497682
69 1 0.0909542 0.289574 0.498595
38 1 0.266261 0.216548 0.497835
9 1 0.632043 0.255745 0.502614
36 1 0.7681 0.22066 0.499013
55 1 0.0946048 0.37828 0.499169
14 1 0.20482 0.331267 0.504312
23 1 0.564727 0.396694 0.492848
61 1 0.652453 0.357065 0.493963
46 1 0.676167 0.42807 0.502566
16 1 0.767157 0.349524 0.49869
35 1 0.537242 0.506754 0.508626
68 1 0.637616 0.493179 0.50341
63 1 0.627315 0.560704 0.499666
12 1 0.74253 0.540639 0.508706
75 1 0.84686 0.571198 0.505291
64 1 0.815548 0.628553 0.504366
4 1 0.956102 0.537072 0.501017
43 1 0.565976 0.608454 0.494719
62 1 0.653668 0.612869 0.500526
74 1 0.688662 0.655129 0.505778
77 1 0.750292 0.635727 0.496498
58 1 0.895072 0.646713 0.505788
65 1 0.0945466 0.690023 0.491184
10 1 0.202549 0.701772 0.500035
18 1 0.481978 0.709583 0.501925
71 1 0.686936 0.721895 0.49948
19 1 0.792953 0.746566 0.498107
27 1 0.930304 0.750039 0.509067
25 1 0.998356 0.662752 0.50387
56 1 0.0495785 0.760633 0.502237
66 1 0.121429 0.777178 0.499499
54 1 0.152527 0.858865 0.500612
45 1 0.234507 0.828027 0.499796
5 1 0.368974 0.805875 0.502071
34 1 0.51153 0.841447 0.497855
76 1 0.545667 0.939443 0.500888
72 1 0.432635 0.887955 0.499315
7 1 0.657211 0.821279 0.49387
70 1 0.892867 0.835912 0.499829
50 1 0.822639 0.859162 0.50033
17 1 0.998644 0.875327 0.500572
15 1 0.105193 0.974282 0.500688
13 1 0.269984 0.939927 0.503259
3 1 0.417983 0.995366 0.50257
52 1 0.632494 0.943234 0.503117
49 1 0.752728 0.911918 0.494693
ITEM: TIMESTEP
3750
ITEM: NUMBER OF ATOMS
59
ITEM: BOX BOUNDS pp pp pp
-4.7886378110651311e+00 4.7886378110651311e+00
-4.8056935861980330e+00 4.8056935861980330e+00
-1.0000000000000001e-01 1.0000000000000001e-01
ITEM: ATOMS id type xs ys zs
24 1 0.0441873 0.107503 0.49812
40 1 0.165377 0.0768369 0.503229
11 1 0.316564 0.087875 0.497592
6 1 0.566242 0.052753 0.501713
29 1 0.703391 0.0112784 0.497522