LAMMPS (23 Jun 2022 - Update 4)
  using 1 OpenMP thread(s) per MPI task
# Compute elastic constant tensor for a crystal
#
# Written by Aidan Thompson (Sandia, athomps@sandia.gov)
#
#  This script uses the following three include files.
#
#   init.mod      (must be modified for different crystal structures)
# 	       	  Define units, deformation parameters and initial
#		  configuration of the atoms and simulation cell.
#
#
#   potential.mod    (must be modified for different pair styles)
# 		     Define pair style and other attributes
#		     not stored in restart file
#
#
#   displace.mod    (displace.mod should not need to be modified)
# 		    Perform positive and negative box displacements
# 		    in direction ${dir} and size ${up}.
# 		    It uses the resultant changes
#		    in stress to compute one
# 		    row of the elastic stiffness tensor
#
#		    Inputs variables:
#		    	   dir = the Voigt deformation component
#		    		    (1,2,3,4,5,6)
#		    Global constants:
#       	    	   up = the deformation magnitude (strain units)
#       		   cfac = conversion from LAMMPS pressure units to
#               	   output units for elastic constants
#
#
#  To run this on a different system, it should only be necessary to
#  modify the files init.mod and potential.mod. In order to calculate
#  the elastic constants correctly, care must be taken to specify
#  the correct units in init.mod (units, cfac and cunits). It is also
#  important to verify that the minimization of energy w.r.t atom
#  positions in the deformed cell is fully converged.
#  One indication of this is that the elastic constants are insensitive
#  to the choice of the variable ${up} in init.mod. Another is to check
#  the final max and two-norm forces reported in the log file. If you know
#  that minimization is not required, you can set maxiter = 0.0 in
#  init.mod.
#



variable dt equal 0.01
variable strain equal 0.05
variable srate equal 1e-4
variable M equal 1000 # averaging time for properties
variable strainsteps equal ${strain}/${dt}/${srate}
variable strainsteps equal 0.05/${dt}/${srate}
variable strainsteps equal 0.05/0.01/${srate}
variable strainsteps equal 0.05/0.01/0.0001


dimension 2
include init.mod
# NOTE: This script can be modified for different atomic structures,
# units, etc. See in.elastic for more info.
#

# Define the finite deformation size. Try several values of this
# variable to verify that results do not depend on it.
variable up equal 1.0e-1

# Define the amount of random jiggle for atoms
# This prevents atoms from staying on saddle points
variable atomjiggle equal 1.0e-6

# Uncomment one of these blocks, depending on what units
# you are using in LAMMPS and for output

# metal units, elastic constants in eV/A^3
#units		metal
#variable cfac equal 6.2414e-7
#variable cunits string eV/A^3

# Choose potential
# metal units, elastic constants in GPa
units		metal
atom_style	full
#pair_style      lj/cut 1.0
#pair_style      yukawa 1.0 2.0
#pair_modify     mix arithmetic
bond_style      harmonic
angle_style     harmonic
dihedral_style  zero
special_bonds   amber
variable cfac equal 1.0e-4
variable cunits string GPa
boundary	p p p

# Need to set mass to something, just to satisfy LAMMPS
#mass 1 1.0e-20
read_data network.lmp
Reading data file ...
  orthogonal box = (-4.805795 -4.805795 -0.1) to (4.805795 4.805795 0.1)
  1 by 1 by 1 MPI processor grid
WARNING: Atom style in data file differs from currently defined atom style (src/read_data.cpp:538)
  reading atoms ...
  59 atoms
WARNING: Bond style in data file differs from currently defined bond style (src/read_data.cpp:630)
  scanning bonds ...
  6 = max bonds/atom
  reading bonds ...
  125 bonds
Finding 1-2 1-3 1-4 neighbors ...
  special bond factors lj:    0        0        0.5     
  special bond factors coul:  0        0        0.8333333333333334
     9 = max # of 1-2 neighbors
    37 = max # of 1-3 neighbors
   215 = max # of 1-4 neighbors
    31 = max # of special neighbors
  special bonds CPU = 0.000 seconds
  read_data CPU = 0.003 seconds

# real units, elastic constants in GPa
#units		real
#variable cfac equal 1.01325e-4
#variable cunits string GPa

# Define minimization parameters
variable etol equal 0.0
variable ftol equal 5.0e-10
variable maxiter equal 100000
variable maxeval equal 20000
variable dmax equal 1.0e-2


include potential.mod
# NOTE: This script can be modified for different pair styles
# See in.elastic for more info.

# Setup neighbor style
neighbor 3.0 nsq
neigh_modify once no every 1 delay 0 check yes
comm_modify cutoff 2.0

# Setup minimization style
min_style	     cg
min_modify	     dmax ${dmax} line quadratic
min_modify	     dmax 0.01 line quadratic

timestep	0.001


# Setup output
thermo		500
thermo_style custom step temp pe ebond eangle edihed press pxx pyy pzz pxy pxz pyz lx ly lz vol
thermo_modify norm no


#change_box all triclinic
comm_modify mode single cutoff 10.0 vel yes
atom_modify sort 0 0



# Compute initial state

#dump rela all atom 1 traj_relax.lmpstrj
fix 3 all box/relax x 0 y 0 # xy 0  #MS comment: relax if the network is periodic
minimize ${etol} ${ftol} ${maxiter} ${maxeval}
minimize 0 ${ftol} ${maxiter} ${maxeval}
minimize 0 5e-10 ${maxiter} ${maxeval}
minimize 0 5e-10 100000 ${maxeval}
minimize 0 5e-10 100000 20000
Neighbor list info ...
  update every 1 steps, delay 0 steps, check yes
  max neighbors/atom: 2000, page size: 100000
  master list distance cutoff = 0
  ghost atom cutoff = 10
  0 neighbor lists, perpetual/occasional/extra = 0 0 0
WARNING: Inconsistent image flags (src/domain.cpp:819)
Per MPI rank memory allocation (min/avg/max) = 9.028 | 9.028 | 9.028 Mbytes
   Step          Temp          PotEng         E_bond        E_angle        E_dihed         Press           Pxx            Pyy            Pzz            Pxy            Pxz            Pyz             Lx             Ly             Lz           Volume    
         0   0              3.673902e-11   3.673902e-11   0              0             -0.1994361     -0.18435092    -0.21452128     0             -0.10806805     0              0              9.61159        9.61159        0.2            92.382662    
       180   0              5.9063099e-20  5.9063099e-20  0              0             -4.2396823e-07  1.3662881e-06 -2.2142246e-06  0              4.7592428e-06  0              0              9.611589       9.6115881      0.2            92.382634    
Loop time of 0.00876589 on 1 procs for 180 steps with 59 atoms

94.7% CPU use with 1 MPI tasks x 1 OpenMP threads

Minimization stats:
  Stopping criterion = force tolerance
  Energy initial, next-to-last, final = 
    3.67390203438033e-11 6.4043168528823e-20 5.90630993617015e-20
  Force two-norm initial, final = 2.9693941e-05 3.3281965e-10
  Force max component initial, final = 1.2369453e-05 1.2767379e-10
  Final line search alpha, max atom move = 1 1.2767379e-10
  Iterations, force evaluations = 180 360

MPI task timing breakdown:
Section |  min time  |  avg time  |  max time  |%varavg| %total
---------------------------------------------------------------
Pair    | 0          | 0          | 0          |   0.0 |  0.00
Bond    | 0.0012212  | 0.0012212  | 0.0012212  |   0.0 | 13.93
Neigh   | 0          | 0          | 0          |   0.0 |  0.00
Comm    | 0.0026757  | 0.0026757  | 0.0026757  |   0.0 | 30.52
Output  | 0          | 0          | 0          |   0.0 |  0.00
Modify  | 0          | 0          | 0          |   0.0 |  0.00
Other   |            | 0.004869   |            |       | 55.55

Nlocal:             59 ave          59 max          59 min
Histogram: 1 0 0 0 0 0 0 0 0 0
Nghost:            493 ave         493 max         493 min
Histogram: 1 0 0 0 0 0 0 0 0 0
Neighs:              0 ave           0 max           0 min
Histogram: 1 0 0 0 0 0 0 0 0 0

Total # of neighbors = 0
Ave neighs/atom = 0
Ave special neighs/atom = 19.966102
Neighbor list builds = 0
Dangerous builds = 0
#dump rela all atom 1 traj_relax.lmpstrj
thermo 100
unfix 3

fix 2d all enforce2d



#dump dump0 all xyz 1000000 cfg0.xyz
#dump_modify dump0 format line "%d %20.10g %20.10g %20.10g"
#minimize ${etol} ${ftol} ${maxiter} ${maxeval}

#undump rela

#write_restart restart.equil

# These formulas define the derivatives w.r.t. strain components
# Constants uses $, variables use v_


timestep        ${dt}
timestep        0.01
variable nsteps equal round(${strainsteps})
variable nsteps equal round(50000)

fix             4 all nve
fix             5 all langevin 0.1 0.1 1 904297
#fix		6 all press/berendsen y  0.0 0.0 1 x 0.0 0.0 10
fix             6 all nph y 0.0 0.0 10 ptemp 0.1 # x 0.0 0.0 10

# For PLUMED2
# fix 22 all plumed plumedfile plumed.dat outfile plumed.out

#fix             6 all nph x 0.0 0.0 10
fix     	9 all deform 1 x erate -${srate} units box remap x
fix     	9 all deform 1 x erate -0.0001 units box remap x

#fix     8 all deform 1 xy erate ${srate} units box remap x



#fix    10 all ave/time

dump 1 all atom 250 deform_dump.lammpstrj


#To avoid flying ice cube phenomenon:
#fix 21 all momentum 100 linear 1 1 1 angular


run  ${nsteps}
run  50000
WARNING: One or more atoms are time integrated more than once (src/modify.cpp:292)
WARNING: Inconsistent image flags (src/domain.cpp:819)
Per MPI rank memory allocation (min/avg/max) = 7.903 | 7.903 | 7.903 Mbytes
   Step          Temp          PotEng         E_bond        E_angle        E_dihed         Press           Pxx            Pyy            Pzz            Pxy            Pxz            Pyz             Lx             Ly             Lz           Volume    
       180   0              5.9063099e-20  5.9063099e-20  0              0             -4.2396823e-07  1.3662881e-06 -2.2142246e-06  0              4.7592428e-06  0              0              9.611589       9.6115881      0.2            92.382634    
       200   0.077012529    9.4375085e-05  9.4375085e-05  0              0              47.484003      66.839768      27.947934      0             -43.688057      0              0              9.6113968      9.61202        0.2            92.384938    
       300   0.13023673     0.00082734167  0.00082734167  0              0              47.90756       84.714251      10.913904      0              130.72939      0              0              9.6104356      9.6198938      0.2            92.45137     
       400   0.18895853     0.00084072268  0.00084072268  0              0              225.30189      454.86312     -4.4014595      0              150.82995      0              0              9.6094744      9.6113489      0.2            92.360012    
       500   0.19744406     0.00099663785  0.00099663785  0              0              301.75009      535.00649      68.297897      0              495.21689      0              0              9.6085133      9.6159967      0.2            92.395432    
       600   0.16200504     0.00098958592  0.00098958592  0              0             -12.21363      -152.01591      127.4148       0              526.14928      0              0              9.6075521      9.6186698      0.2            92.411871    
       700   0.23255159     0.00093387198  0.00093387198  0              0              243.16074      272.40829      213.74677      0              1120.5289      0              0              9.606591       9.6170158      0.2            92.386737    
       800   0.25519707     0.0012228862   0.0012228862   0              0              420.21652      642.8942       197.36365      0              399.11001      0              0              9.6056298      9.6118234      0.2            92.327617    
       900   0.16445089     0.0009621117   0.0009621117   0              0              716.2577       1200.0521      232.28069      0              212.99467      0              0              9.6046687      9.6044007      0.2            92.247087    
      1000   0.21260985     0.00084966168  0.00084966168  0              0              248.14701      293.19756      202.91503      0              124.69641      0              0              9.6037075      9.6126414      0.2            92.316997    
      1100   0.14314139     0.00082245036  0.00082245036  0              0             -266.53991     -759.91987      226.65318      0             -51.986201      0              0              9.6027463      9.6100507      0.2            92.282879    
      1200   0.18163858     0.0010064113   0.0010064113   0              0              560.00653      858.3773       261.45346      0              526.76694      0              0              9.6017852      9.6161483      0.2            92.33219     
      1300   0.24937788     0.0010142478   0.0010142478   0              0             -86.679724     -408.71942      235.1976       0              96.012392      0              0              9.600824       9.6123413      0.2            92.286397    
      1400   0.25164348     0.0011009459   0.0011009459   0              0              50.460222     -100.71522      201.48035      0              381.19392      0              0              9.5998629      9.6195757      0.2            92.346608    
      1500   0.17609841     0.00088045809  0.00088045809  0              0             -11.470073     -164.17045      141.06831      0              631.07667      0              0              9.5989017      9.6272004      0.2            92.41055     
      1600   0.25254363     0.00094849497  0.00094849497  0              0             -94.667745     -173.326       -16.199067      0              462.84499      0              0              9.5979405      9.6250855      0.2            92.380998    
      1700   0.24321406     0.0010070365   0.0010070365   0              0              531.37988      1146.5417     -83.936749      0              272.94658      0              0              9.5969794      9.6282323      0.2            92.401946    
      1800   0.18418697     0.00098742828  0.00098742828  0              0              453.90396      977.70196     -70.077535      0              435.8186       0              0              9.5960182      9.6256156      0.2            92.367583    
      1900   0.19737348     0.001066621    0.001066621    0              0              428.32581      980.28014     -123.81269      0              89.952254      0              0              9.5950571      9.6324497      0.2            92.423904    
      2000   0.1790728      0.0011819245   0.0011819245   0              0             -177.73477     -159.48074     -196.18488      0              634.62545      0              0              9.5940959      9.6246643      0.2            92.339952    
      2100   0.1767101      0.0010572132   0.0010572132   0              0             -170.47559      115.71678     -456.84593      0              506.62787      0              0              9.5931347      9.6280597      0.2            92.363274    
      2200   0.17330419     0.00086061425  0.00086061425  0              0             -665.33585     -700.99293     -629.8443       0              425.95543      0              0              9.5921736      9.6233087      0.2            92.308448    
      2300   0.20758763     0.0007220535   0.0007220535   0              0             -502.00957     -436.35528     -567.84366      0             -353.20604      0              0              9.5912124      9.6173815      0.2            92.242349    
      2400   0.21441776     0.0012131566   0.0012131566   0              0             -623.00346     -577.77905     -668.39996      0              523.2256       0              0              9.5902513      9.6161934      0.2            92.221711    
      2500   0.22051744     0.0012700716   0.0012700716   0              0             -169.45671      425           -764.0798       0              479.66525      0              0              9.5892901      9.6196015      0.2            92.24515     
      2600   0.16572864     0.0010721396   0.0010721396   0              0             -472.28473     -69.652624     -875.08029      0              179.97937      0              0              9.5883289      9.6094584      0.2            92.138648    
      2700   0.19629377     0.00099319671  0.00099319671  0              0             -619.51717     -202.82329     -1036.376       0             -33.1347        0              0              9.5873678      9.6098088      0.2            92.132772    
      2800   0.2186899      0.001245493    0.001245493    0              0             -505.4911       104.96368     -1116.121       0             -250.52012      0              0              9.5864066      9.6172613      0.2            92.194978    
      2900   0.22738664     0.00079243842  0.00079243842  0              0             -644.3907      -247.65377     -1041.2905      0              457.60917      0              0              9.5854455      9.616252       0.2            92.176059    
      3000   0.23694555     0.0010002606   0.0010002606   0              0             -25.071974      1000.1621     -1050.4681      0              328.11703      0              0              9.5844843      9.6300061      0.2            92.298642    
      3100   0.21798098     0.00077928094  0.00077928094  0              0             -177.4784       595.24249     -950.41666      0              520.45862      0              0              9.5835232      9.6280442      0.2            92.270584    
      3200   0.22685455     0.001035266    0.001035266    0              0             -230.42658      373.49994     -834.52941      0              30.278935      0              0              9.582562       9.6231915      0.2            92.214829    
      3300   0.26106852     0.00096728622  0.00096728622  0              0             -95.341026      581.80152     -772.6869       0             -30.83834       0              0              9.5816008      9.6255813      0.2            92.228478    
      3400   0.18722317     0.0012444741   0.0012444741   0              0             -283.20068      162.40438     -729.00431      0             -196.58904      0              0              9.5806397      9.6221553      0.2            92.186403    
      3500   0.23095115     0.0010371973   0.0010371973   0              0             -446.21796     -232.31383     -660.27264      0             -358.88199      0              0              9.5796785      9.6132212      0.2            92.091569    
      3600   0.20988401     0.00083580461  0.00083580461  0              0             -726.5137      -812.428       -640.75539      0              226.78766      0              0              9.5787174      9.6171549      0.2            92.120008    
      3700   0.20450758     0.0011261137   0.0011261137   0              0              120.73531      846.30917     -604.97219      0              159.53225      0              0              9.5777562      9.6242179      0.2            92.178413    
      3800   0.19712871     0.001237464    0.001237464    0              0              458.12843      1495.3212     -579.21645      0              96.24543       0              0              9.576795       9.6148479      0.2            92.079428    
      3900   0.1867289      0.0011527054   0.0011527054   0              0             -183.26818      166.58521     -533.29695      0              121.5496       0              0              9.5758339      9.6203841      0.2            92.1232      
      4000   0.23338181     0.0011764259   0.0011764259   0              0             -158.68003      153.18013     -470.74831      0             -213.78235      0              0              9.5748727      9.6195614      0.2            92.106076    
      4100   0.1799856      0.00097952098  0.00097952098  0              0             -68.679133      290.00498     -427.53643      0             -35.992034      0              0              9.5739116      9.621435       0.2            92.114768    
      4200   0.24884085     0.00097860036  0.00097860036  0              0              147.07281      715.47761     -421.50006      0              466.89719      0              0              9.5729504      9.6219656      0.2            92.110599    
      4300   0.18578832     0.00084845706  0.00084845706  0              0             -115.95877      203.42658     -435.48466      0              72.281462      0              0              9.5719892      9.6317563      0.2            92.195068    
      4400   0.15940396     0.0009803601   0.0009803601   0              0             -25.667916      315.98438     -367.50515      0             -469.49978      0              0              9.5710281      9.6314001      0.2            92.182401    
      4500   0.20304381     0.0009309348   0.0009309348   0              0             -265.9469       19.790647     -551.86237      0              86.386309      0              0              9.5700669      9.6340921      0.2            92.198906    
      4600   0.19017667     0.00096611759  0.00096611759  0              0             -58.066734      391.99105     -508.29782      0             -68.908246      0              0              9.5691058      9.6303976      0.2            92.154293    
      4700   0.22928582     0.00066454965  0.00066454965  0              0             -25.751547      426.62555     -478.30068      0             -590.25814      0              0              9.5681446      9.6233326      0.2            92.077438    
      4800   0.20981583     0.001111632    0.001111632    0              0             -9.9732195      455.19685     -475.30307      0             -71.215147      0              0              9.5671835      9.6288584      0.2            92.121054    
      4900   0.20237462     0.0010512499   0.0010512499   0              0              155.26189      786.7302      -476.36789      0             -548.31195      0              0              9.5662223      9.6227738      0.2            92.053593    
      5000   0.23565125     0.0014299353   0.0014299353   0              0             -253.4259       17.909377     -524.99193      0             -271.77977      0              0              9.5652611      9.6236265      0.2            92.0525      
      5100   0.291159       0.0012842427   0.0012842427   0              0              204.0063       875.94936     -468.12041      0             -361.96181      0              0              9.5643         9.6301247      0.2            92.105401    
      5200   0.20201942     0.00082612262  0.00082612262  0              0             -60.663992      360.29891     -481.82367      0             -207.26787      0              0              9.5633388      9.624996       0.2            92.047098    
      5300   0.17729184     0.0012141826   0.0012141826   0              0             -828.973       -1041.3615     -616.77434      0             -328.35737      0              0              9.5623777      9.6200601      0.2            91.990648    
      5400   0.20062189     0.0011323934   0.0011323934   0              0             -471.2797      -269.98437     -672.74431      0             -752.14827      0              0              9.5614165      9.6242774      0.2            92.021725    
      5500   0.22206639     0.00093654568  0.00093654568  0              0             -460.6912      -299.54061     -622.02193      0              73.787165      0              0              9.5604553      9.6283908      0.2            92.0518      
      5600   0.23765604     0.0011635854   0.0011635854   0              0             -215.99679      194.84003     -627.01952      0             -340.08271      0              0              9.5594942      9.6284963      0.2            92.043555    
      5700   0.28411398     0.001155766    0.001155766    0              0             -250.44257      78.828779     -579.88861      0              459.65977      0              0              9.558533       9.6396502      0.2            92.140915    
      5800   0.20587541     0.00090003134  0.00090003134  0              0             -269.97679      32.632562     -572.74692      0              76.483576      0              0              9.5575719      9.6420395      0.2            92.154485    
      5900   0.2265428      0.00123509     0.00123509     0              0             -94.344784      343.26692     -532.14658      0             -63.255797      0              0              9.5566107      9.6394036      0.2            92.120028    
      6000   0.24519783     0.00083587325  0.00083587325  0              0             -90.547625      326.99662     -508.25492      0             -190.01724      0              0              9.5556495      9.6432155      0.2            92.147187    
      6100   0.22873248     0.00099853126  0.00099853126  0              0              348.43897      1186.7995     -490.07225      0              13.818567      0              0              9.5546884      9.6434878      0.2            92.14052     
      6200   0.2188347      0.00080653327  0.00080653327  0              0              273.54532      1005.7981     -458.89574      0              332.42861      0              0              9.5537272      9.6388648      0.2            92.087085    
      6300   0.23141747     0.00087166293  0.00087166293  0              0             -61.242662      344.71741     -467.3797       0              253.16664      0              0              9.5527661      9.6365319      0.2            92.055535    
      6400   0.22771846     0.00096969433  0.00096969433  0              0              76.066818      619.66619     -467.69344      0              374.92399      0              0              9.5518049      9.6363006      0.2            92.044063    
      6500   0.21301151     0.00099305302  0.00099305302  0              0             -38.935535      328.31023     -406.36246      0              214.99338      0              0              9.5508438      9.6314425      0.2            91.988403    
      6600   0.18381242     0.0010943563   0.0010943563   0              0             -82.903124      305.85699     -471.81593      0              333.04222      0              0              9.5498826      9.6342885      0.2            92.006325    
      6700   0.19491789     0.0011246034   0.0011246034   0              0              132.57042      804.79732     -539.86561      0              120.38507      0              0              9.5489214      9.6278897      0.2            91.935962    
      6800   0.24357951     0.001034725    0.001034725    0              0             -319.98679     -76.682274     -563.47742      0              106.53791      0              0              9.5479603      9.6341407      0.2            91.986393    
      6900   0.19518565     0.0011305847   0.0011305847   0              0             -590.86685     -530.31807     -651.59185      0             -204.53459      0              0              9.5469991      9.6262544      0.2            91.901842    
      7000   0.20676354     0.00097201128  0.00097201128  0              0             -124.64236      488.80203     -738.28087      0              298.34205      0              0              9.546038       9.6304961      0.2            91.933082    
      7100   0.21175104     0.00083417174  0.00083417174  0              0             -541.55329     -264.14741     -819.13375      0             -105.12851      0              0              9.5450768      9.6458539      0.2            92.070416    
      7200   0.17724251     0.0011039722   0.0011039722   0              0             -672.33384     -440.09746     -904.76664      0              137.30528      0              0              9.5441156      9.6476657      0.2            92.078437    
      7300   0.21021497     0.0011214671   0.0011214671   0              0             -392.81341      205.24095     -991.03315      0              125.92368      0              0              9.5431545      9.6504106      0.2            92.095359    
      7400   0.22894006     0.00087981453  0.00087981453  0              0             -482.44388     -50.171416     -914.88591      0             -12.597512      0              0              9.5421933      9.6454088      0.2            92.038355    
      7500   0.19707772     0.0012781717   0.0012781717   0              0             -799.71307     -618.05692     -981.53848      0              245.74796      0              0              9.5412322      9.6455287      0.2            92.030229    
      7600   0.20503716     0.00094493743  0.00094493743  0              0             -645.25383     -295.04307     -995.63611      0             -640.59053      0              0              9.540271       9.6442932      0.2            92.009171    
      7700   0.19861812     0.00085837481  0.00085837481  0              0             -356.11377      321.17658     -1033.5743      0              274.79208      0              0              9.5393098      9.6422482      0.2            91.980393    
      7800   0.20069381     0.0011729698   0.0011729698   0              0             -526.67118      89.602965     -1143.1717      0             -98.31694       0              0              9.5383487      9.6427503      0.2            91.975915    
      7900   0.19116364     0.00094169509  0.00094169509  0              0             -575.59646      24.272557     -1175.6678      0             -590.25322      0              0              9.5373875      9.6449226      0.2            91.987365    
      8000   0.20254189     0.00088430712  0.00088430712  0              0             -676.13395     -112.53782     -1239.9277      0              131.02683      0              0              9.5364264      9.6379981      0.2            91.912059    
      8100   0.21033252     0.0010693317   0.0010693317   0              0             -834.98399     -416.96648     -1253.1727      0             -364.28247      0              0              9.5354652      9.6420215      0.2            91.941161    
      8200   0.18716387     0.00085882098  0.00085882098  0              0             -898.40623     -534.78268     -1262.2329      0             -65.433637      0              0              9.5345041      9.6432165      0.2            91.943287    
      8300   0.16873313     0.0009418132   0.0009418132   0              0             -1244.1533     -1153.7123     -1334.7589      0              497.88548      0              0              9.5335429      9.6481231      0.2            91.980795    
      8400   0.2486864      0.0012213107   0.0012213107   0              0             -1315.3166     -1371.7718     -1259.0462      0             -94.655538      0              0              9.5325817      9.6491231      0.2            91.981055    
      8500   0.26217196     0.0011421427   0.0011421427   0              0             -688.69844     -280.02175     -1097.5548      0             -256.01893      0              0              9.5316206      9.6494129      0.2            91.974543    
      8600   0.26599318     0.0010350002   0.0010350002   0              0             -497.62938      71.202619     -1066.62        0              219.87206      0              0              9.5306594      9.6531094      0.2            92.000498    
      8700   0.23287995     0.0010962085   0.0010962085   0              0             -429.62703      190.89607     -1050.3666      0              172.16526      0              0              9.5296983      9.6575212      0.2            92.033263    
      8800   0.19102934     0.0013859997   0.0013859997   0              0             -156.73187      785.98918     -1099.6621      0             -154.01444      0              0              9.5287371      9.6532365      0.2            91.983152    
      8900   0.2101478      0.0013519799   0.0013519799   0              0             -45.56116       973.41719     -1064.7088      0             -611.80301      0              0              9.5277759      9.6518539      0.2            91.960701    
      9000   0.19436812     0.0013480923   0.0013480923   0              0             -328.37316      334.40799     -991.34064      0              41.595873      0              0              9.5268148      9.6569674      0.2            92.00014     
      9100   0.21058205     0.0013459155   0.0013459155   0              0              169.96659      1174.3892     -834.62486      0             -243.92948      0              0              9.5258536      9.6556341      0.2            91.978157    
      9200   0.14814296     0.001201294    0.001201294    0              0             -168.60252      393.72018     -731.11119      0              12.211678      0              0              9.5248925      9.657876       0.2            91.990231    
      9300   0.25769864     0.0011500765   0.0011500765   0              0              356.16069      1379.6773     -667.56152      0             -38.054051      0              0              9.5239313      9.6579682      0.2            91.981826    
      9400   0.23663878     0.0013761165   0.0013761165   0              0              794.79019      2179.7995     -590.37383      0             -402.04215      0              0              9.5229701      9.6541656      0.2            91.936331    
      9500   0.22097513     0.0011633356   0.0011633356   0              0              228.77773      971.35178     -513.98574      0             -782.61387      0              0              9.522009       9.6431966      0.2            91.822604    
      9600   0.20198699     0.00090858261  0.00090858261  0              0             -356.90967     -244.33723     -469.65504      0             -613.31496      0              0              9.5210478      9.6419962      0.2            91.801907    
      9700   0.19371675     0.0010877431   0.0010877431   0              0              639.64455      1723.5905     -444.46484      0             -586.53385      0              0              9.5200867      9.6443768      0.2            91.815303    
      9800   0.20036007     0.0011047035   0.0011047035   0              0              335.88542      1057.8648     -386.25153      0             -176.39421      0              0              9.5191255      9.6392753      0.2            91.757472    
      9900   0.19015393     0.0011285232   0.0011285232   0              0             -39.054099      377.76009     -456.07601      0             -639.60464      0              0              9.5181643      9.6446295      0.2            91.799169    
     10000   0.20135433     0.00085536398  0.00085536398  0              0              413.73522      1291.9737     -464.70093      0              301.33543      0              0              9.5172032      9.6409615      0.2            91.754989    
     10100   0.1696973      0.001042986    0.001042986    0              0              71.350507      631.26216     -488.73705      0             -366.38675      0              0              9.516242       9.6425869      0.2            91.761191    
     10200   0.21441435     0.00089261531  0.00089261531  0              0             -269.75254     -82.781906     -456.86211      0             -469.10046      0              0              9.5152809      9.6365716      0.2            91.694685    
     10300   0.20730269     0.0011616694   0.0011616694   0              0             -376.37933     -326.23538     -426.71164      0             -661.29668      0              0              9.5143197      9.6389735      0.2            91.708276    
     10400   0.21317912     0.00090097706  0.00090097706  0              0             -263.89861     -41.352909     -486.63705      0              125.18096      0              0              9.5133586      9.6386192      0.2            91.695641    
     10500   0.19178552     0.00099535763  0.00099535763  0              0              218.61784      832.92099     -395.87143      0              37.309898      0              0              9.5123974      9.6319715      0.2            91.62314     
     10600   0.23874991     0.0009053516   0.0009053516   0              0             -220.74855     -92.107548     -349.55609      0              426.95135      0              0              9.5114362      9.6340724      0.2            91.633865    
     10700   0.17767217     0.00085235632  0.00085235632  0              0             -346.28926     -335.44495     -357.28718      0              327.53168      0              0              9.5104751      9.6349398      0.2            91.632855    
     10800   0.23352644     0.00099179224  0.00099179224  0              0             -376.57828     -304.09808     -449.25996      0             -250.43693      0              0              9.5095139      9.6391407      0.2            91.663543    
     10900   0.22993115     0.0007636622   0.0007636622   0              0             -221.75597      56.444161     -500.12738      0             -62.079155      0              0              9.5085528      9.6301194      0.2            91.568498    
     11000   0.16587812     0.0011628454   0.0011628454   0              0             -151.98696      282.68518     -586.8525       0             -332.01691      0              0              9.5075916      9.6245282      0.2            91.506084    
     11100   0.20397228     0.0010659598   0.0010659598   0              0             -749.26585     -819.93645     -678.74814      0             -646.78764      0              0              9.5066304      9.6284629      0.2            91.534239    
     11200   0.20534083     0.00111104     0.00111104     0              0             -161.07229      309.99949     -632.30261      0             -89.728703      0              0              9.5056693      9.6286573      0.2            91.526832    
     11300   0.29698342     0.0011513329   0.0011513329   0              0             -826.77715     -965.78316     -687.97753      0             -6.5471187      0              0              9.5047081      9.6328953      0.2            91.557858    
     11400   0.24108026     0.00094092669  0.00094092669  0              0             -11.436858      761.03114     -784.11194      0             -289.21193      0              0              9.503747       9.6395587      0.2            91.611927    
     11500   0.20921631     0.0013077465   0.0013077465   0              0             -279.2765       46.783768     -605.49585      0              225.81354      0              0              9.5027858      9.641393       0.2            91.620093    
     11600   0.21264748     0.00096987322  0.00096987322  0              0              363.97296      1328.4259     -600.6334       0              128.49098      0              0              9.5018246      9.6449193      0.2            91.644332    
     11700   0.19623681     0.0011910468   0.0011910468   0              0              73.956102      726.50523     -578.77824      0              90.484041      0              0              9.5008635      9.6496622      0.2            91.680123    
     11800   0.19450905     0.0011449531   0.0011449531   0              0             -382.80156     -131.73011     -634.06127      0              278.48507      0              0              9.4999023      9.6472637      0.2            91.648063    
     11900   0.19240617     0.00085533291  0.00085533291  0              0             -261.50673      19.92211      -543.1299       0              217.71399      0              0              9.4989412      9.6475206      0.2            91.64123     
     12000   0.21039569     0.00089530781  0.00089530781  0              0              190.22529      857.82563     -477.57244      0             -207.04644      0              0              9.49798        9.6493083      0.2            91.648938    
     12100   0.21722121     0.00095773307  0.00095773307  0              0             -130.29653      176.80375     -437.63145      0              262.73824      0              0              9.4970189      9.643318       0.2            91.582773    
     12200   0.19085124     0.00095027054  0.00095027054  0              0              399.85729      1148.6061     -349.08186      0              399.40542      0              0              9.4960577      9.6320416      0.2            91.466423    
     12300   0.25969537     0.0011012152   0.0011012152   0              0              258.55819      864.84717     -347.92008      0             -498.81025      0              0              9.4950965      9.6331256      0.2            91.467457    
     12400   0.26429101     0.00099628832  0.00099628832  0              0              101.91416      523.76368     -320.14428      0             -307.74576      0              0              9.4941354      9.6418628      0.2            91.54115     
     12500   0.22610974     0.0011469679   0.0011469679   0              0             -274.9319      -311.72114     -238.27753      0             -317.45828      0              0              9.4931742      9.6325519      0.2            91.443493    
     12600   0.17292923     0.00099178353  0.00099178353  0              0              757.55805      1735.2016     -220.27997      0             -269.59308      0              0              9.4922131      9.6337998      0.2            91.44608     
     12700   0.24736577     0.00071587445  0.00071587445  0              0              289.39196      780.13503     -201.52191      0             -19.531535      0              0              9.4912519      9.6399156      0.2            91.494867    
     12800   0.17136563     0.0012126823   0.0012126823   0              0             -272.01658     -346.82695     -197.37843      0             -307.57606      0              0              9.4902907      9.6432678      0.2            91.517415    
     12900   0.18134672     0.0011220257   0.0011220257   0              0              285.27016      794.14829     -223.79594      0             -128.73223      0              0              9.4893296      9.6426046      0.2            91.501853    
     13000   0.18373086     0.00099614598  0.00099614598  0              0              495.3254       1236.7038     -246.22921      0             -111.45669      0              0              9.4883684      9.6459017      0.2            91.523869    
     13100   0.18849727     0.0011675061   0.0011675061   0              0              197.89841      444.2107      -48.582293      0             -564.43253      0              0              9.4874073      9.6389106      0.2            91.44827     
     13200   0.23214287     0.00096265145  0.00096265145  0              0              398.64249      852.59873     -55.505213      0             -727.909        0              0              9.4864461      9.6428494      0.2            91.476371    
     13300   0.16687605     0.00094248194  0.00094248194  0              0              171.07467      291.14294      50.831584      0             -355.96251      0              0              9.4854849      9.6366436      0.2            91.408238    
     13400   0.19649546     0.0011551466   0.0011551466   0              0              230.47759      452.99879      7.7751046      0              481.0097       0              0              9.4845238      9.6441489      0.2            91.47016     
     13500   0.16844185     0.0012511468   0.0012511468   0              0              365.45117      693.50677      37.186097      0             -109.43241      0              0              9.4835626      9.6478089      0.2            91.4956      
     13600   0.21424911     0.0010310688   0.0010310688   0              0              97.021914      65.019326      128.84628      0             -392.1373       0              0              9.4826015      9.6481474      0.2            91.489537    
     13700   0.17470633     0.00077511869  0.00077511869  0              0              344.10983      563.97232      124.05984      0             -176.85627      0              0              9.4816403      9.6489484      0.2            91.487858    
     13800   0.21744424     0.00076396433  0.00076396433  0              0              150.43802      162.77486      137.92277      0             -95.517206      0              0              9.4806792      9.6502325      0.2            91.490758    
     13900   0.20378392     0.00095572099  0.00095572099  0              0              714.81848      1188.5201      240.96305      0             -108.38329      0              0              9.479718       9.6484644      0.2            91.464722    
     14000   0.15425706     0.0011289664   0.0011289664   0              0              686.51104      1062.4436      310.39765      0             -56.114262      0              0              9.4787568      9.6465534      0.2            91.437334    
     14100   0.18507728     0.00090421679  0.00090421679  0              0              283.82439      140.56811      426.88892      0              230.34508      0              0              9.4777957      9.6381109      0.2            91.348046    
     14200   0.20637165     0.0010967945   0.0010967945   0              0              868.06471      1301.4011      434.54798      0             -93.602854      0              0              9.4768345      9.6324282      0.2            91.284928    
     14300   0.19402258     0.0010031654   0.0010031654   0              0              85.547097     -264.87991      435.83614      0              73.703207      0              0              9.4758734      9.6331874      0.2            91.282864    
     14400   0.20305145     0.00095776393  0.00095776393  0              0              595.32309      847.99898      342.48149      0              99.607002      0              0              9.4749122      9.6384395      0.2            91.323368    
     14500   0.21802761     0.00083876446  0.00083876446  0              0              702.24733      1100.6282      303.69432      0              341.65939      0              0              9.473951       9.6300654      0.2            91.234768    
     14600   0.19251022     0.00096450632  0.00096450632  0              0              764.27464      1358.8052      169.55237      0              283.56275      0              0              9.4729899      9.6332368      0.2            91.255555    
     14700   0.23264617     0.0009735449   0.0009735449   0              0              648.38197      1119.6297      176.97765      0             -416.74692      0              0              9.4720287      9.6355948      0.2            91.268631    
     14800   0.20701781     0.0010081011   0.0010081011   0              0              649.96733      1145.1978      154.57565      0             -64.162786      0              0              9.4710676      9.624535       0.2            91.154621    
     14900   0.23164502     0.0008726813   0.0008726813   0              0              359.68455      501.34782      217.84811      0             -482.50782      0              0              9.4701064      9.6382688      0.2            91.275431    
     15000   0.17908833     0.00091740406  0.00091740406  0              0              254.90045      258.92091      250.69348      0             -163.88408      0              0              9.4691452      9.6367556      0.2            91.251839    
     15100   0.22212985     0.00095686929  0.00095686929  0              0              665.65649      1053.3555      277.79562      0             -150.63412      0              0              9.4681841      9.6408346      0.2            91.281197    
     15200   0.20436951     0.0010098333   0.0010098333   0              0             -97.289314     -417.65735      222.88715      0             -271.46865      0              0              9.4672229      9.6381476      0.2            91.246492    
     15300   0.1857202      0.001066394    0.001066394    0              0              958.33494      1631.2432      285.25482      0             -213.97647      0              0              9.4662618      9.633011       0.2            91.188604    
     15400   0.21199975     0.00083401277  0.00083401277  0              0              583.20264      827.50502      338.72558      0             -13.897513      0              0              9.4653006      9.6232096      0.2            91.086572    
     15500   0.19992444     0.00092160381  0.00092160381  0              0              49.303079     -180.92444      279.33929      0             -750.13879      0              0              9.4643395      9.6313977      0.2            91.154817    
     15600   0.23116411     0.0010417102   0.0010417102   0              0              76.857926     -209.33478      362.85217      0              0.67262571     0              0              9.4633783      9.6281682      0.2            91.114998    
     15700   0.23566265     0.00087650363  0.00087650363  0              0              704.36125      1046.4837      362.04888      0             -206.3087       0              0              9.4624171      9.6248097      0.2            91.073965    
     15800   0.21270289     0.00082565738  0.00082565738  0              0              173.85182      122.17508      225.38005      0              350.66003      0              0              9.461456       9.6362978      0.2            91.173407    
     15900   0.20432565     0.00093147886  0.00093147886  0              0             -47.587751     -226.44679      131.11383      0             -130.49278      0              0              9.4604948      9.6278397      0.2            91.084127    
     16000   0.2230893      0.0010647362   0.0010647362   0              0              172.56175      105.20598      239.73016      0              443.33734      0              0              9.4595337      9.6242437      0.2            91.040857    
     16100   0.21100915     0.0011743051   0.0011743051   0              0             -285.55151     -703.91359      132.62798      0              181.97446      0              0              9.4585725      9.6254747      0.2            91.043251    
     16200   0.27375082     0.0007519739   0.0007519739   0              0              587.22391      1069.2688      104.97182      0             -111.68651      0              0              9.4576113      9.632066       0.2            91.096337    
     16300   0.25467102     0.0007001059   0.0007001059   0              0              161.8736       173.88759      149.68304      0             -303.38169      0              0              9.4566502      9.6321321      0.2            91.087704    
     16400   0.20870071     0.0010546532   0.0010546532   0              0              400.58658      606.9719       193.98026      0              258.1826       0              0              9.455689       9.6341406      0.2            91.097437    
     16500   0.1763085      0.00096178019  0.00096178019  0              0              698.54858      1291.5815      105.33416      0              267.53996      0              0              9.4547279      9.6466647      0.2            91.20659     
     16600   0.21149232     0.00097276092  0.00097276092  0              0             -528.627       -1239.6543      182.23862      0              455.83281      0              0              9.4537667      9.6403242      0.2            91.137376    
     16700   0.22286151     0.0011155398   0.0011155398   0              0              169.85355      103.15652      236.3628       0             -390.22498      0              0              9.4528055      9.6427455      0.2            91.150998    
     16800   0.22514954     0.00087606268  0.00087606268  0              0             -136.98373     -697.95747      423.82072      0             -118.28882      0              0              9.4518444      9.633101       0.2            91.050572    
     16900   0.24413226     0.00091958665  0.00091958665  0              0              530.94387      443.55994      618.14908      0              265.4698       0              0              9.4508832      9.6348123      0.2            91.057486    
     17000   0.22105836     0.00077309634  0.00077309634  0              0              706.62822      782.59081      630.47         0              81.320632      0              0              9.4499221      9.6292285      0.2            90.995459    
     17100   0.19065327     0.00091148367  0.00091148367  0              0              761.75454      976.24902      547.07794      0              121.60931      0              0              9.4489609      9.6291061      0.2            90.985047    
     17200   0.20288335     0.00084484827  0.00084484827  0              0              1108.0385      1480.2061      735.68603      0              160.41495      0              0              9.4479998      9.6323322      0.2            91.006273    
     17300   0.18541737     0.00091237155  0.00091237155  0              0              320.77672     -110.97392      752.39575      0             -197.57892      0              0              9.4470386      9.6266591      0.2            90.94342     
     17400   0.17416043     0.00085106195  0.00085106195  0              0              352.78653     -50.199621      755.58511      0             -20.579567      0              0              9.4460774      9.6300942      0.2            90.966616    
     17500   0.15518816     0.00097041269  0.00097041269  0              0              1304.8881      1838.0693      771.50763      0              274.57952      0              0              9.4451163      9.6254963      0.2            90.913932    
     17600   0.20553701     0.00091804244  0.00091804244  0              0              907.67806      966.52048      848.66739      0              36.464473      0              0              9.4441551      9.6253737      0.2            90.903522    
     17700   0.22653498     0.0011028367   0.0011028367   0              0              327.96419     -182.14649      837.8796       0              376.79004      0              0              9.443194       9.6249378      0.2            90.890155    
     17800   0.25451303     0.0009297577   0.0009297577   0              0              710.67293      523.42871      897.74063      0              264.46488      0              0              9.4422328      9.6241728      0.2            90.87368     
     17900   0.21576035     0.00088828496  0.00088828496  0              0              445.91916      29.774634      861.85259      0              319.365        0              0              9.4412716      9.6244146      0.2            90.866712    
     18000   0.22496508     0.001022248    0.001022248    0              0              916.18255      887.24245      944.92366      0             -91.875097      0              0              9.4403105      9.6166365      0.2            90.784035    
     18100   0.20248117     0.00096840203  0.00096840203  0              0              293.42495     -147.49867      734.129        0             -285.55994      0              0              9.4393493      9.6142728      0.2            90.752479    
     18200   0.23354216     0.00095941289  0.00095941289  0              0              1307.7705      1850.4777      764.90801      0             -341.89063      0              0              9.4383882      9.6143129      0.2            90.743617    
     18300   0.2421273      0.0010269591   0.0010269591   0              0              213.34764     -321.77403      748.28088      0              144.50551      0              0              9.437427       9.6081606      0.2            90.676314    
     18400   0.2416618      0.0012259768   0.0012259768   0              0              1124.0071      1709.9858      537.84865      0             -179.45979      0              0              9.4364658      9.6289768      0.2            90.863511    
     18500   0.20243375     0.00097610815  0.00097610815  0              0              907.69104      1333.9662      481.20259      0              702.58855      0              0              9.4355047      9.6237524      0.2            90.804961    
     18600   0.21322244     0.00097549748  0.00097549748  0              0              255.50742      175.1021       335.76319      0              341.12533      0              0              9.4345435      9.6189454      0.2            90.750359    
     18700   0.2281504      0.0010831401   0.0010831401   0              0              601.57505      933.68363      269.27282      0             -161.83525      0              0              9.4335824      9.6334421      0.2            90.87787     
     18800   0.21580591     0.00086648915  0.00086648915  0              0              126.84862      0.058567744    253.43379      0              593.24162      0              0              9.4326212      9.6357705      0.2            90.890573    
     18900   0.2265656      0.00090871514  0.00090871514  0              0              99.476175     -33.275943      232.07827      0              467.87923      0              0              9.43166        9.6348147      0.2            90.872297    
     19000   0.18488841     0.00099365043  0.00099365043  0              0              601.08277      999.34232      202.63298      0              493.642        0              0              9.4306989      9.6328316      0.2            90.844335    
     19100   0.20488912     0.0010050818   0.0010050818   0              0              280.62807      349.4468       211.66678      0             -59.122639      0              0              9.4297377      9.6329723      0.2            90.836402    
     19200   0.22586143     0.00099829434  0.00099829434  0              0              124.90603      198.77055      50.876136      0              534.99413      0              0              9.4287766      9.6438383      0.2            90.929597    
     19300   0.23644246     0.00089271037  0.00089271037  0              0              261.46986      574.56447     -51.828397      0              110.79041      0              0              9.4278154      9.6445195      0.2            90.92675     
     19400   0.21934313     0.00096227529  0.00096227529  0              0             -109.64819     -207.35051     -12.116285      0             -335.63015      0              0              9.4268543      9.6365446      0.2            90.842301    
     19500   0.15866276     0.00099522315  0.00099522315  0              0              31.038015      92.729418     -30.861597      0              20.654078      0              0              9.4258931      9.6299266      0.2            90.770659    
     19600   0.18671667     0.00093775053  0.00093775053  0              0             -355.6974      -605.15734     -106.41961      0              833.39658      0              0              9.4249319      9.6265351      0.2            90.729438    
     19700   0.21837162     0.0011617445   0.0011617445   0              0              41.648041      201.24952     -118.11628      0              102.25723      0              0              9.4239708      9.6334307      0.2            90.785169    
     19800   0.24139587     0.00089705783  0.00089705783  0              0              202.92009      536.60318     -130.91421      0             -45.158907      0              0              9.4230096      9.6345222      0.2            90.786195    
     19900   0.21484229     0.00085310083  0.00085310083  0              0              361.12971      824.96246     -102.91218      0             -92.992449      0              0              9.4220485      9.6360769      0.2            90.791583    
     20000   0.17979257     0.0010883843   0.0010883843   0              0             -276.81436     -345.62501     -208.13993      0              48.180249      0              0              9.4210873      9.6337016      0.2            90.759944    
     20100   0.20929052     0.00073718779  0.00073718779  0              0             -276.77457     -324.7532      -229.0172       0              90.891267      0              0              9.4201261      9.6371344      0.2            90.783021    
     20200   0.19498317     0.00094056615  0.00094056615  0              0             -382.62652     -515.69081     -249.72173      0              603.2617       0              0              9.419165       9.6432045      0.2            90.830934    
     20300   0.20856932     0.00082238679  0.00082238679  0              0             -281.46748     -266.858       -296.21684      0              31.845034      0              0              9.4182038      9.6393021      0.2            90.784911    
     20400   0.19808994     0.00089828055  0.00089828055  0              0             -68.446195      146.16806     -283.25616      0              44.051418      0              0              9.4172427      9.6340978      0.2            90.726637    
     20500   0.23145406     0.0012304497   0.0012304497   0              0             -705.00957     -1203.3403     -206.86319      0             -567.25702      0              0              9.4162815      9.6332999      0.2            90.709863    
     20600   0.20690139     0.0010146872   0.0010146872   0              0             -267.20407     -362.203       -172.35177      0              320.36253      0              0              9.4153203      9.63353        0.2            90.702771    
     20700   0.18344675     0.00099744547  0.00099744547  0              0             -361.3813      -543.47186     -179.48834      0              249.26478      0              0              9.4143592      9.6357407      0.2            90.714324    
     20800   0.20304206     0.0010282906   0.0010282906   0              0              97.424494      314.18523     -119.48897      0             -504.87712      0              0              9.413398       9.6326042      0.2            90.675537    
     20900   0.24579368     0.00098388986  0.00098388986  0              0             -284.8082      -435.83963     -133.95383      0              87.679682      0              0              9.4124369      9.6325455      0.2            90.665727    
     21000   0.13959549     0.00095745419  0.00095745419  0              0             -471.92904     -783.00712     -161.07498      0             -145.90382      0              0              9.4114757      9.6353997      0.2            90.68333     
     21100   0.16769797     0.0010559532   0.0010559532   0              0              300.41146      744.96017     -144.33615      0             -32.413799      0              0              9.4105146      9.6305047      0.2            90.628005    
     21200   0.18578478     0.00088975079  0.00088975079  0              0             -108.29234     -177.23222     -39.522448      0              363.68919      0              0              9.4095534      9.6356333      0.2            90.667006    
     21300   0.21641489     0.0010786609   0.0010786609   0              0              677.84045      1312.525       42.955376      0              136.43612      0              0              9.4085922      9.6427682      0.2            90.724874    
     21400   0.26302437     0.00099556875  0.00099556875  0              0              132.03891      210.7843       53.071005      0             -148.13386      0              0              9.4076311      9.6310662      0.2            90.605518    
     21500   0.21726349     0.0010607571   0.0010607571   0              0              42.598134     -12.069523      97.133151      0             -245.65747      0              0              9.4066699      9.6279243      0.2            90.566706    
     21600   0.19806606     0.0011240586   0.0011240586   0              0              345.4738       501.92021      188.8673       0              897.24038      0              0              9.4057088      9.6295472      0.2            90.572717    
     21700   0.23006562     0.001018631    0.001018631    0              0             -0.63884872    -97.292512      95.829503      0             -59.837695      0              0              9.4047476      9.6273332      0.2            90.542639    
     21800   0.17038314     0.0008559712   0.0008559712   0              0              169.17997      262.85155      75.305713      0              350.54388      0              0              9.4037864      9.6278042      0.2            90.537814    
     21900   0.21374086     0.00092194652  0.00092194652  0              0              100.91118      97.079213      104.57221      0              332.68972      0              0              9.4028253      9.6217626      0.2            90.471753    
     22000   0.23885468     0.0010051835   0.0010051835   0              0              900.7097       1609.9619      191.27833      0              284.95747      0              0              9.4018641      9.6218564      0.2            90.463386    
     22100   0.2327907      0.0010323191   0.0010323191   0              0             -316.5557      -725.03129      91.71197       0              543.59106      0              0              9.400903       9.6220539      0.2            90.455995    
     22200   0.1986164      0.00080981752  0.00080981752  0              0              174.33008      226.81652      121.6241       0             -310.36922      0              0              9.3999418      9.6189389      0.2            90.417466    
     22300   0.21532601     0.00077009676  0.00077009676  0              0             -8.1786703     -134.2043       117.68097      0             -326.35102      0              0              9.3989806      9.6236983      0.2            90.452954    
     22400   0.20780073     0.00087807789  0.00087807789  0              0              579.09528      1116.6343      41.356904      0              0.72356194     0              0              9.3980195      9.6232397      0.2            90.439394    
     22500   0.19929183     0.0010400796   0.0010400796   0              0             -166.15961     -345.03048      12.537702      0              7.7560416      0              0              9.3970583      9.6201514      0.2            90.401124    
     22600   0.23140704     0.00081921879  0.00081921879  0              0             -221.73046     -366.94352     -76.696281      0              41.068443      0              0              9.3960972      9.6340352      0.2            90.522331    
     22700   0.21239604     0.00088700416  0.00088700416  0              0             -197.53195     -132.03082     -263.20382      0             -417.90884      0              0              9.395136       9.6278663      0.2            90.455114    
     22800   0.2409152      0.00087005936  0.00087005936  0              0              166.41269      662.43491     -329.78917      0              134.91431      0              0              9.3941749      9.6265757      0.2            90.433735    
     22900   0.22722497     0.00098932942  0.00098932942  0              0             -559.40482     -673.52534     -445.49353      0             -904.90615      0              0              9.3932137      9.6228067      0.2            90.38908     
     23000   0.18500335     0.00078648586  0.00078648586  0              0              249.8765       882.06454     -382.48981      0              381.62959      0              0              9.3922525      9.6320696      0.2            90.46683     
     23100   0.2098353      0.00094823439  0.00094823439  0              0             -261.16791     -146.42416     -376.08926      0             -155.69302      0              0              9.3912914      9.6347904      0.2            90.483124    
     23200   0.18122646     0.00078224223  0.00078224223  0              0             -227.21266      15.366881     -469.9774       0              4.7786901      0              0              9.3903302      9.6292264      0.2            90.421615    
     23300   0.15915454     0.00086484641  0.00086484641  0              0              141.44198      680.30343     -397.60827      0             -130.77041      0              0              9.3893691      9.6279926      0.2            90.400776    
     23400   0.18120223     0.00082284058  0.00082284058  0              0              419.53046      1185.44       -346.54905      0             -63.795863      0              0              9.3884079      9.6335032      0.2            90.443258    
     23500   0.23450432     0.0008443342   0.0008443342   0              0             -163.88409     -9.009863      -318.9562       0              220.97229      0              0              9.3874467      9.6314333      0.2            90.414567    
     23600   0.23371375     0.00083095558  0.00083095558  0              0              189.39223      740.78601     -362.22297      0              486.07637      0              0              9.3864856      9.6283651      0.2            90.37651     
     23700   0.15627724     0.00093677     0.00093677     0              0              308.59037      974.82974     -357.81725      0             -667.814        0              0              9.3855244      9.6283833      0.2            90.367427    
     23800   0.16751154     0.00086006475  0.00086006475  0              0              98.652743      588.2719      -391.12126      0              153.31993      0              0              9.3845633      9.6361786      0.2            90.431328    
     23900   0.16378011     0.00085862162  0.00085862162  0              0              143.85962      679.09954     -391.52491      0             -665.92624      0              0              9.3836021      9.6349449      0.2            90.41049     
     24000   0.18033159     0.00087146218  0.00087146218  0              0             -467.78495     -546.65141     -389.10618      0             -202.70619      0              0              9.3826409      9.6321054      0.2            90.374587    
     24100   0.18387198     0.0010632334   0.0010632334   0              0             -37.482546      270.3931      -345.52804      0              420.03372      0              0              9.3816798      9.6339248      0.2            90.382397    
     24200   0.22341558     0.0010046106   0.0010046106   0              0              557.33298      1515.6482     -401.19838      0             -265.63793      0              0              9.3807186      9.6384679      0.2            90.415755    
     24300   0.21819157     0.0010771844   0.0010771844   0              0             -165.13437      65.479805     -395.94197      0             -60.554082      0              0              9.3797575      9.6310034      0.2            90.336476    
     24400   0.22324068     0.0011367945   0.0011367945   0              0              96.083681      510.25773     -318.27745      0              393.51121      0              0              9.3787963      9.6272073      0.2            90.291616    
     24500   0.19519597     0.001126921    0.001126921    0              0              161.48086      746.90823     -424.13259      0              228.03685      0              0              9.3778352      9.6314786      0.2            90.322419    
     24600   0.20568687     0.0010294491   0.0010294491   0              0             -235.06272     -130.46298     -339.82809      0             -265.80951      0              0              9.376874       9.633569       0.2            90.332763    
     24700   0.21442873     0.00081091019  0.00081091019  0              0              83.626348      551.55818     -384.48406      0              75.285932      0              0              9.3759128      9.6304938      0.2            90.29467     
     24800   0.2118884      0.00089569989  0.00089569989  0              0             -90.308014      220.45564     -401.24862      0              218.78852      0              0              9.3749517      9.6259612      0.2            90.242921    
     24900   0.21781255     0.0010016264   0.0010016264   0              0              81.323345      577.56473     -415.11051      0             -299.92159      0              0              9.3739905      9.6192717      0.2            90.170961    
     25000   0.20940799     0.00092473845  0.00092473845  0              0              165.6106       744.97886     -413.92161      0             -573.13879      0              0              9.3730294      9.6259324      0.2            90.224147    
     25100   0.19515173     0.00084544561  0.00084544561  0              0              409.21606      1193.8997     -375.60153      0              280.69475      0              0              9.3720682      9.6227908      0.2            90.185451    
     25200   0.20888738     0.00092405108  0.00092405108  0              0             -330.90961     -292.07936     -369.88485      0              302.24905      0              0              9.371107       9.6267611      0.2            90.213409    
     25300   0.17399076     0.00080566026  0.00080566026  0              0             -260.5726      -295.13352     -226.19844      0              479.5211       0              0              9.3701459      9.6317885      0.2            90.251264    
     25400   0.18276632     0.00083627604  0.00083627604  0              0             -352.06783     -496.16907     -208.1773       0             -183.5781       0              0              9.3691847      9.6285625      0.2            90.21178     
     25500   0.20510594     0.00085027035  0.00085027035  0              0             -266.69715     -266.50115     -267.06344      0              557.96227      0              0              9.3682236      9.6329409      0.2            90.243543    
     25600   0.22255869     0.00092717068  0.00092717068  0              0             -54.831753      192.63064     -302.49029      0              286.90181      0              0              9.3672624      9.6271783      0.2            90.180305    
     25700   0.15221792     0.0011695957   0.0011695957   0              0              140.37377      469.95339     -189.38006      0              159.4647       0              0              9.3663012      9.6362875      0.2            90.256372    
     25800   0.20504473     0.0009265176   0.0009265176   0              0              104.70041      331.59582     -122.35298      0             -247.88561      0              0              9.3653401      9.6275419      0.2            90.165204    
     25900   0.2056133      0.00080701325  0.00080701325  0              0             -204.90127     -380.90742     -29.08464       0              339.93299      0              0              9.3643789      9.6307148      0.2            90.185663    
     26000   0.21790661     0.00076768649  0.00076768649  0              0              587.11485      1136.7993      37.247609      0              111.92375      0              0              9.3634178      9.630995       0.2            90.17903     
     26100   0.2033119      0.00080484665  0.00080484665  0              0              685.20781      1273.843       96.389356      0              151.14838      0              0              9.3624566      9.6349541      0.2            90.20684     
     26200   0.17021136     0.0010185418   0.0010185418   0              0             -309.89385     -893.36528      273.42349      0             -101.11835      0              0              9.3614954      9.6360564      0.2            90.207898    
     26300   0.21035829     0.0010311172   0.0010311172   0              0             -158.06935     -700.12803      383.80799      0              78.196795      0              0              9.3605343      9.6392399      0.2            90.228435    
     26400   0.22051509     0.0011360016   0.0011360016   0              0              316.4635       119.91906      512.81896      0              85.728341      0              0              9.3595731      9.6307084      0.2            90.13932     
     26500   0.20716578     0.00092722427  0.00092722427  0              0              177.23521     -392.18235      746.43971      0             -642.44175      0              0              9.358612       9.6277062      0.2            90.101967    
     26600   0.1667541      0.00072252771  0.00072252771  0              0              719.68194      499.01085      940.18555      0             -25.256059      0              0              9.3576508      9.6241974      0.2            90.059879    
     26700   0.17636955     0.00093164916  0.00093164916  0              0              438.4647      -292.19944      1168.9434      0              69.922156      0              0              9.3566897      9.629152       0.2            90.096987    
     26800   0.24866424     0.0010385701   0.0010385701   0              0              634.49094      0.8191124      1267.9728      0             -210.26364      0              0              9.3557285      9.6289233      0.2            90.085592    
     26900   0.19843564     0.00097397968  0.00097397968  0              0              648.98281      87.625458      1210.1856      0             -289.34558      0              0              9.3547673      9.6307517      0.2            90.093441    
     27000   0.19310688     0.0011211485   0.0011211485   0              0              844.71917      558.27347      1131.0074      0             -552.47607      0              0              9.3538062      9.6410714      0.2            90.180713    
     27100   0.18868789     0.0010643578   0.0010643578   0              0              263.92178     -551.27486      1078.9573      0              73.879601      0              0              9.352845       9.6395009      0.2            90.156758    
     27200   0.22773151     0.0009609966   0.0009609966   0              0              886.7178       714.44587      1058.8093      0              189.62831      0              0              9.3518839      9.6417809      0.2            90.168815    
     27300   0.18392006     0.0010316461   0.0010316461   0              0              660.93972      217.09247      1104.5939      0              437.0837       0              0              9.3509227      9.6422948      0.2            90.164353    
     27400   0.22577671     0.00093915062  0.00093915062  0              0              717.78834      447.44705      987.96789      0             -411.64975      0              0              9.3499615      9.6418189      0.2            90.150636    
     27500   0.16491715     0.0010345768   0.0010345768   0              0              1045.7506      1169.7953      921.55084      0             -759.9618       0              0              9.3490004      9.6400299      0.2            90.124644    
     27600   0.22930903     0.00085670739  0.00085670739  0              0              782.68548      732.39493      832.81702      0             -359.94868      0              0              9.3480392      9.6344763      0.2            90.063463    
     27700   0.18084767     0.0012343842   0.0012343842   0              0              631.26969      598.79833      663.5627       0             -95.474333      0              0              9.3470781      9.633744       0.2            90.047357    
     27800   0.21991952     0.00086504698  0.00086504698  0              0              846.73369      1176.8821      516.37258      0              516.25752      0              0              9.3461169      9.6336589      0.2            90.037302    
     27900   0.17509586     0.00088135952  0.00088135952  0              0              669.23773      872.29869      466.00625      0             -51.628507      0              0              9.3451557      9.6386006      0.2            90.074224    
[...]
     42900   0.16091839     0.0011122856   0.0011122856   0              0              474.63888      1182.439      -233.34621      0             -17.055206      0              0              9.2009819      9.6246618      0.2            88.556339    
     43000   0.18059177     0.0011392117   0.0011392117   0              0              302.15287      899.27366     -295.16726      0             -317.76467      0              0              9.2000208      9.616354       0.2            88.470657    
     43100   0.19891472     0.00099759818  0.00099759818  0              0              557.24311      1403.3494     -289.03302      0             -297.06805      0              0              9.1990596      9.6142831      0.2            88.442364    
     43200   0.23051746     0.0011295946   0.0011295946   0              0              650.9283       1601.7781     -300.1091       0              481.27223      0              0              9.1980984      9.612715       0.2            88.418699    
     43300   0.20961415     0.0010838033   0.0010838033   0              0             -251.43107     -248.56206     -254.48823      0             -330.73656      0              0              9.1971373      9.608737       0.2            88.372873    
     43400   0.23452898     0.0008880665   0.0008880665   0              0              294.65422      693.98689     -104.85322      0             -140.26813      0              0              9.1961761      9.6101687      0.2            88.376804    
     43500   0.21696844     0.0010035138   0.0010035138   0              0              207.68977      537.31511     -122.14031      0              33.697454      0              0              9.195215       9.6135882      0.2            88.39901     
     43600   0.16311423     0.0008569992   0.0008569992   0              0              794.15652      1671.6282     -83.441428      0             -554.88423      0              0              9.1942538      9.6054801      0.2            88.315222    
     43700   0.23139304     0.0011277723   0.0011277723   0              0              84.104826      164.76178      3.2918874      0             -355.47446      0              0              9.1932926      9.6146078      0.2            88.389903    
     43800   0.21723866     0.00088109418  0.00088109418  0              0              794.47623      1493.0623      95.726988      0             -38.998728      0              0              9.1923315      9.6156051      0.2            88.389829    
     43900   0.1706225      0.0011338308   0.0011338308   0              0              950.35189      1635.9397      264.57504      0             -185.10702      0              0              9.1913703      9.6090861      0.2            88.320669    
     44000   0.17058252     0.0008545662   0.0008545662   0              0              16.520525     -164.03669      196.92441      0             -965.26381      0              0              9.1904092      9.6028857      0.2            88.254448    
     44100   0.18032505     0.00097323918  0.00097323918  0              0              958.15323      1711.3543      204.78864      0              319.33463      0              0              9.189448       9.5981057      0.2            88.201293    
     44200   0.18085454     0.00075460967  0.00075460967  0              0              253.15258      303.26909      202.82169      0             -350.82927      0              0              9.1884868      9.6009887      0.2            88.218558    
     44300   0.15760339     0.0010928221   0.0010928221   0              0              67.075727     -49.336154      183.30338      0              580.92122      0              0              9.1875257      9.5986385      0.2            88.187738    
     44400   0.20178016     0.00075010037  0.00075010037  0              0              342.0253       367.59636      316.25004      0              90.32033       0              0              9.1865645      9.5928765      0.2            88.125579    
     44500   0.18267345     0.00091592797  0.00091592797  0              0              277.23263      225.17826      329.09299      0             -838.64159      0              0              9.1856034      9.5869389      0.2            88.061819    
     44600   0.17802026     0.00093781982  0.00093781982  0              0              632.17201      859.53448      404.62761      0              79.03429       0              0              9.1846422      9.5887906      0.2            88.06961     
     44700   0.18989821     0.00098613917  0.00098613917  0              0             -463.97557     -1410.1106      481.96754      0             -165.30518      0              0              9.1836811      9.5923685      0.2            88.093253    
     44800   0.18637119     0.00094242842  0.00094242842  0              0              12.328785     -435.38585      459.84339      0              303.83877      0              0              9.1827199      9.5985427      0.2            88.140729    
     44900   0.24573146     0.001032544    0.001032544    0              0              911.42903      1188.6406      634.02323      0             -323.49547      0              0              9.1817587      9.5935224      0.2            88.085408    
     45000   0.19782332     0.0010018066   0.0010018066   0              0              720.9165       671.04367      770.59121      0              222.72237      0              0              9.1807976      9.5887568      0.2            88.032435    
     45100   0.24899217     0.0010551687   0.0010551687   0              0              369.41228     -217.21715      955.82886      0              1008.0741      0              0              9.1798364      9.5941794      0.2            88.072997    
     45200   0.17887905     0.0010931567   0.0010931567   0              0              765.9313       457.1635       1074.5171      0              214.06887      0              0              9.1788753      9.5831255      0.2            87.962314    
     45300   0.19293011     0.0011309296   0.0011309296   0              0              963.89022      847.12754      1080.4227      0              647.08478      0              0              9.1779141      9.5841798      0.2            87.962779    
     45400   0.17617728     0.00089754446  0.00089754446  0              0              416.91599     -184.63223      1018.247       0              544.66251      0              0              9.1769529      9.5838801      0.2            87.950817    
     45500   0.20695301     0.00098277653  0.00098277653  0              0              1381.9954      1830.1891      933.60597      0              569.57819      0              0              9.1759918      9.5786389      0.2            87.893511    
     45600   0.20710676     0.00079555894  0.00079555894  0              0              265.10657     -330.78261      860.82218      0              460.02091      0              0              9.1750306      9.579508       0.2            87.892279    
     45700   0.19123881     0.0012136535   0.0012136535   0              0              1233.286       1573.3407      893.03719      0              117.78886      0              0              9.1740695      9.5810404      0.2            87.89713     
     45800   0.23407526     0.00073489205  0.00073489205  0              0              431.28022      136.31041      726.08388      0              106.67771      0              0              9.1731083      9.5788354      0.2            87.867695    
     45900   0.16004587     0.00073090111  0.00073090111  0              0              604.83158      677.93822      531.54709      0             -379.70512      0              0              9.1721471      9.585559       0.2            87.920158    
     46000   0.17287563     0.00082723961  0.00082723961  0              0              393.35512      306.65193      479.8724       0              174.78199      0              0              9.171186       9.5916439      0.2            87.96675     
     46100   0.18797334     0.0010406354   0.0010406354   0              0              172.57769      11.44662       333.55507      0             -433.26448      0              0              9.1702248      9.5873034      0.2            87.917728    
     46200   0.2223624      0.00099004198  0.00099004198  0              0              756.157        1258.0994      254.02338      0             -44.864454      0              0              9.1692637      9.5893158      0.2            87.926965    
     46300   0.19401177     0.00098947345  0.00098947345  0              0             -52.670254     -65.010726     -40.495453      0             -147.65179      0              0              9.1683025      9.5951858      0.2            87.971566    
     46400   0.2048592      0.00092413631  0.00092413631  0              0              145.85309      325.90163     -34.386875      0             -95.149053      0              0              9.1673414      9.5935503      0.2            87.947351    
     46500   0.216289       0.00082594617  0.00082594617  0              0              5.5469399      138.50492     -127.56499      0             -155.32181      0              0              9.1663802      9.5922164      0.2            87.925903    
     46600   0.20543156     0.0011064173   0.0011064173   0              0              221.87958      685.26871     -241.69132      0              483.5737       0              0              9.165419       9.5892949      0.2            87.889906    
     46700   0.19600269     0.00085726798  0.00085726798  0              0              338.27062      1023.0552     -346.68824      0              30.050205      0              0              9.1644579      9.593142       0.2            87.915945    
     46800   0.21271739     0.00083004978  0.00083004978  0              0              220.23202      900.31967     -460.05561      0             -284.99244      0              0              9.1634967      9.5921623      0.2            87.897747    
     46900   0.23324025     0.0011824225   0.0011824225   0              0             -331.37165      26.536808     -689.47339      0              7.6564826      0              0              9.1625356      9.5982432      0.2            87.944245    
     47000   0.19625477     0.00074167109  0.00074167109  0              0             -392.27562      62.29031      -846.9977       0              597.95616      0              0              9.1615744      9.5909465      0.2            87.86817     
     47100   0.22204668     0.00098083352  0.00098083352  0              0             -375.48614      38.498203     -789.63501      0              426.70168      0              0              9.1606132      9.5936396      0.2            87.883622    
     47200   0.17206874     0.0010006146   0.0010006146   0              0             -665.17497     -631.82477     -698.70485      0              296.18871      0              0              9.1596521      9.5883209      0.2            87.825683    
     47300   0.16609621     0.00090222611  0.00090222611  0              0             -1028.3546     -1496.1696     -560.74401      0              415.13181      0              0              9.1586909      9.5845679      0.2            87.782095    
     47400   0.25620748     0.0010814527   0.0010814527   0              0             -969.22926     -1396.922      -541.69962      0              345.12183      0              0              9.1577298      9.5818166      0.2            87.747687    
     47500   0.22631801     0.0011908477   0.0011908477   0              0             -563.36407     -702.61775     -424.27966      0             -746.72584      0              0              9.1567686      9.5714863      0.2            87.643885    
     47600   0.23531932     0.0010760888   0.0010760888   0              0             -413.38113     -451.10637     -375.8644       0             -395.37192      0              0              9.1558074      9.5675871      0.2            87.598985    
     47700   0.20931966     0.0010002098   0.0010002098   0              0             -298.92547     -374.79269     -223.22598      0              530.82828      0              0              9.1548463      9.5709382      0.2            87.620468    
     47800   0.18290014     0.0011380771   0.0011380771   0              0              200.55182      682.94245     -282.08156      0             -66.797219      0              0              9.1538851      9.5737367      0.2            87.636886    
     47900   0.21456168     0.00083751411  0.00083751411  0              0             -126.47305     -20.588061     -232.50655      0              264.87065      0              0              9.152924       9.5734407      0.2            87.624975    
     48000   0.16214947     0.00095829839  0.00095829839  0              0             -90.523391      34.92303      -216.15122      0              379.02268      0              0              9.1519628      9.5745679      0.2            87.626089    
     48100   0.19953615     0.0012503835   0.0012503835   0              0             -156.86493     -213.3158      -100.59268      0              795.38678      0              0              9.1510017      9.5694963      0.2            87.570476    
     48200   0.21103056     0.0010302066   0.0010302066   0              0             -161.32509     -267.53782     -55.31519       0              485.67542      0              0              9.1500405      9.5773117      0.2            87.63279     
     48300   0.23819127     0.0012349465   0.0012349465   0              0              175.23095      195.2937       155.01814      0              722.85091      0              0              9.1490793      9.5755358      0.2            87.607336    
     48400   0.17195042     0.0011049819   0.0011049819   0              0              395.99824      438.27847      353.53212      0              1039.9223      0              0              9.1481182      9.576804       0.2            87.609735    
     48500   0.18478935     0.0010700373   0.0010700373   0              0              652.18264      865.03958      439.11015      0             -18.546988      0              0              9.147157       9.5797613      0.2            87.627581    
     48600   0.20774282     0.00099853363  0.00099853363  0              0              245.28343     -121.16971      611.53041      0              120.53318      0              0              9.1461959      9.5857379      0.2            87.673036    
     48700   0.20798941     0.00093053927  0.00093053927  0              0              717.85851      848.19399      587.34302      0              199.96366      0              0              9.1452347      9.5930873      0.2            87.731035    
     48800   0.17249171     0.00096217315  0.00096217315  0              0              694.20571      711.0694       677.11948      0              436.49219      0              0              9.1442735      9.5906383      0.2            87.69942     
     48900   0.18141637     0.0010020534   0.0010020534   0              0              746.71217      692.42051      800.84356      0              222.79846      0              0              9.1433124      9.5828355      0.2            87.618858    
     49000   0.17401378     0.0011640075   0.0011640075   0              0              640.27226      545.86534      734.49285      0              151.0394       0              0              9.1423512      9.5818533      0.2            87.600669    
     49100   0.22083278     0.00080433679  0.00080433679  0              0              607.93193      435.19865      780.44         0              62.766303      0              0              9.1413901      9.5754583      0.2            87.533       
     49200   0.20755394     0.00085894031  0.00085894031  0              0              1173.387       1605.0578      741.4787       0             -623.14385      0              0              9.1404289      9.5740633      0.2            87.511045    
     49300   0.18106769     0.0010541694   0.0010541694   0              0              268.51423     -249.10655      785.93087      0              20.494958      0              0              9.1394677      9.5652575      0.2            87.421363    
     49400   0.24936994     0.00081301037  0.00081301037  0              0              553.61097      361.76632      745.28958      0             -614.16777      0              0              9.1385066      9.571291       0.2            87.467305    
     49500   0.23367293     0.00096347362  0.00096347362  0              0              546.79486      471.66796      621.74992      0             -352.57204      0              0              9.1375454      9.5747938      0.2            87.490113    
     49600   0.20897291     0.00088030867  0.00088030867  0              0              1372.518       2162.9214      581.95404      0             -116.78896      0              0              9.1365843      9.5807064      0.2            87.534931    
     49700   0.22543173     0.0011532101   0.0011532101   0              0              415.38006      520.90507      309.67534      0             -157.82828      0              0              9.1356231      9.5832648      0.2            87.549095    
     49800   0.17229835     0.0012634578   0.0012634578   0              0              894.15989      1575.4835      212.65951      0             -296.18506      0              0              9.1346619      9.5822183      0.2            87.530325    
     49900   0.26564763     0.0011217383   0.0011217383   0              0              819.95111      1680.6969     -40.993543      0             -132.35943      0              0              9.1337008      9.5845892      0.2            87.54277     
     50000   0.15943328     0.00099426945  0.00099426945  0              0              42.360449      267.24136     -182.70563      0              168.71576      0              0              9.1327396      9.5834736      0.2            87.523369    
     50100   0.20326368     0.001197937    0.001197937    0              0             -138.27935      269.03177     -545.76496      0              185.35254      0              0              9.1317785      9.5843044      0.2            87.521744    
     50180   0.20028178     0.00086166572  0.00086166572  0              0              886.21767      417.89331      1354.386       0             -504.30521      0              0              9.1310095      9.5753664      0.2            87.432762    
Loop time of 1.08125 on 1 procs for 50000 steps with 59 atoms

Performance: 39953.817 ns/day, 0.001 hours/ns, 46242.843 timesteps/s
98.9% CPU use with 1 MPI tasks x 1 OpenMP threads

MPI task timing breakdown:
Section |  min time  |  avg time  |  max time  |%varavg| %total
---------------------------------------------------------------
Pair    | 0          | 0          | 0          |   0.0 |  0.00
Bond    | 0.15458    | 0.15458    | 0.15458    |   0.0 | 14.30
Neigh   | 0          | 0          | 0          |   0.0 |  0.00
Comm    | 0.3575     | 0.3575     | 0.3575     |   0.0 | 33.06
Output  | 0.0067614  | 0.0067614  | 0.0067614  |   0.0 |  0.63
Modify  | 0.53597    | 0.53597    | 0.53597    |   0.0 | 49.57
Other   |            | 0.02644    |            |       |  2.44

Nlocal:             59 ave          59 max          59 min
Histogram: 1 0 0 0 0 0 0 0 0 0
Nghost:            493 ave         493 max         493 min
Histogram: 1 0 0 0 0 0 0 0 0 0
Neighs:              0 ave           0 max           0 min
Histogram: 1 0 0 0 0 0 0 0 0 0

Total # of neighbors = 0
Ave neighs/atom = 0
Ave special neighs/atom = 19.966102
Neighbor list builds = 0
Dangerous builds = 0


Total wall time: 0:00:01
