ITEM: TIMESTEP
500
ITEM: NUMBER OF ATOMS
59
ITEM: BOX BOUNDS pp pp pp
-4.8121492140054114e+00 4.8121492140054114e+00
-4.8140514996138881e+00 4.8140514996138881e+00
-1.0000000000000001e-01 1.0000000000000001e-01
ITEM: ATOMS id type xs ys zs
60 1 0.104978 0.0266104 0.499937
51 1 0.203549 0.0170189 0.5014
26 1 0.31856 0.04152 0.498815
1 1 0.554052 0.0676867 0.499824
18 1 0.707154 0.0762299 0.500114
36 1 0.853795 0.0350953 0.499737
29 1 0.990712 0.0479011 0.499814
17 1 0.0289711 0.174742 0.501448
20 1 0.185913 0.13003 0.499724
9 1 0.322514 0.193158 0.500037
40 1 0.429804 0.10798 0.499324
47 1 0.502512 0.189481 0.499653
22 1 0.618498 0.208012 0.500901
5 1 0.757283 0.216998 0.500647
57 1 0.912983 0.12937 0.499854
28 1 0.0802498 0.298632 0.501363
58 1 0.185265 0.254 0.499054
68 1 0.265532 0.281086 0.500184
53 1 0.422636 0.243255 0.500099
15 1 0.505155 0.336966 0.498207
12 1 0.651875 0.342434 0.500837
13 1 0.91183 0.252827 0.500579
24 1 0.111872 0.415224 0.501006
39 1 0.221262 0.361532 0.50069
30 1 0.350551 0.337122 0.499773
54 1 0.30885 0.444486 0.500387
31 1 0.418371 0.453228 0.501961
14 1 0.964678 0.385822 0.500164
77 1 0.0330009 0.458586 0.499356
44 1 0.210307 0.467529 0.499683
27 1 0.261187 0.561986 0.500961
64 1 0.341418 0.522421 0.499927
3 1 0.949078 0.543183 0.499884
16 1 0.106958 0.551765 0.499725
41 1 0.191844 0.637129 0.499593
34 1 0.418386 0.587073 0.49856
56 1 0.324865 0.630663 0.501
67 1 0.257859 0.675113 0.499283
43 1 0.305776 0.721312 0.499933
50 1 0.400202 0.694815 0.49831
2 1 0.620251 0.780924 0.501332
23 1 0.758291 0.745486 0.500773
11 1 0.893703 0.69015 0.49989
10 1 0.194716 0.766479 0.499959
73 1 0.300289 0.803977 0.499231
25 1 0.407894 0.808922 0.501228
52 1 0.511654 0.858905 0.501765
65 1 0.755426 0.844397 0.499559
59 1 0.838274 0.86314 0.499524
62 1 0.834268 0.793992 0.500544
46 1 0.913891 0.811695 0.498534
80 1 0.0383024 0.974223 0.499649
7 1 0.12972 0.909948 0.499354
8 1 0.275209 0.912456 0.500287
6 1 0.424386 0.946032 0.50027
61 1 0.527676 0.961921 0.499898
4 1 0.629518 0.930323 0.499618
33 1 0.776885 0.936917 0.500206
19 1 0.930899 0.937842 0.499933
ITEM: TIMESTEP
750
ITEM: NUMBER OF ATOMS
59
ITEM: BOX BOUNDS pp pp pp
-4.8109460443532486e+00 4.8109460443532486e+00
-4.8131264520895840e+00 4.8131264520895840e+00
-1.0000000000000001e-01 1.0000000000000001e-01
ITEM: ATOMS id type xs ys zs
60 1 0.10478 0.0271528 0.499126
51 1 0.203526 0.0174009 0.500848
26 1 0.318409 0.0425669 0.499117
1 1 0.55413 0.0680145 0.500575
18 1 0.707234 0.0762196 0.499224
36 1 0.853476 0.0356183 0.499415
29 1 0.991232 0.0477722 0.499427
17 1 0.0288262 0.17458 0.500706
20 1 0.185352 0.130308 0.499956
9 1 0.322413 0.193195 0.501945
40 1 0.430249 0.108517 0.499923
47 1 0.503449 0.189813 0.499121
22 1 0.618608 0.208934 0.503444
5 1 0.757076 0.21681 0.499176
57 1 0.91322 0.129412 0.499478
28 1 0.0797045 0.298906 0.499764
58 1 0.18434 0.25432 0.499826
68 1 0.26592 0.280653 0.499665
53 1 0.423351 0.243562 0.500288
15 1 0.505941 0.337057 0.498308
12 1 0.652535 0.34284 0.501935
13 1 0.911681 0.252764 0.501912
24 1 0.11201 0.414838 0.503176
39 1 0.220795 0.360996 0.5014
30 1 0.351364 0.33664 0.498385
54 1 0.30954 0.444249 0.499503
31 1 0.419043 0.452771 0.500634
14 1 0.964487 0.386169 0.501383
77 1 0.0339443 0.458581 0.499237
44 1 0.21086 0.46694 0.498443
27 1 0.26141 0.562185 0.499916
64 1 0.341823 0.522075 0.498945
3 1 0.949332 0.543321 0.501232
16 1 0.107599 0.552049 0.501225
41 1 0.191952 0.638218 0.499729
34 1 0.418488 0.58623 0.50068
56 1 0.325051 0.631184 0.501235
67 1 0.258131 0.676196 0.49899
43 1 0.305963 0.72227 0.499199
50 1 0.400909 0.694436 0.498002
2 1 0.619617 0.781205 0.505501
23 1 0.757695 0.746858 0.500875
11 1 0.894119 0.691367 0.500838
10 1 0.195259 0.7678 0.499935
73 1 0.300759 0.804963 0.498764
25 1 0.408418 0.808609 0.50036
52 1 0.511269 0.858582 0.500778
65 1 0.755045 0.844931 0.499578
59 1 0.837952 0.863487 0.499166
62 1 0.834875 0.793999 0.500167
46 1 0.914049 0.813207 0.497097
80 1 0.0384683 0.973969 0.500912
7 1 0.1297 0.910222 0.500251
8 1 0.27552 0.912995 0.499337
6 1 0.424103 0.945833 0.500416
61 1 0.52743 0.962161 0.500467
4 1 0.629752 0.930623 0.498852
33 1 0.776787 0.937506 0.50072
19 1 0.930533 0.938166 0.499115
ITEM: TIMESTEP
1000
ITEM: NUMBER OF ATOMS
59
ITEM: BOX BOUNDS pp pp pp
-4.8097428747010849e+00 4.8097428747010849e+00
-4.8126364270677193e+00 4.8126364270677193e+00
-1.0000000000000001e-01 1.0000000000000001e-01
ITEM: ATOMS id type xs ys zs
60 1 0.105434 0.0270824 0.498838
51 1 0.204408 0.0176341 0.50132
26 1 0.319638 0.041406 0.49974
1 1 0.55552 0.0696365 0.500421
18 1 0.708531 0.0762628 0.498176
36 1 0.854185 0.0357755 0.500334
29 1 0.991209 0.048182 0.499199
17 1 0.0288076 0.175623 0.500166
20 1 0.185708 0.130734 0.500021
9 1 0.322173 0.193678 0.498402
40 1 0.430308 0.109052 0.50215
47 1 0.503439 0.190737 0.4975
22 1 0.619483 0.208312 0.504266
5 1 0.757489 0.217672 0.499616
57 1 0.913613 0.129676 0.499427
28 1 0.0796186 0.298657 0.50031
58 1 0.184719 0.255396 0.497536
68 1 0.265731 0.281171 0.50011
53 1 0.422789 0.243145 0.501003
15 1 0.506191 0.33597 0.498976
12 1 0.652913 0.342919 0.503978
13 1 0.911285 0.254063 0.503665
24 1 0.111946 0.415032 0.503186
39 1 0.221376 0.36154 0.50357
30 1 0.350892 0.337252 0.500265
54 1 0.309735 0.444896 0.499037
31 1 0.419115 0.452237 0.500957
14 1 0.964121 0.386418 0.500226
77 1 0.0333592 0.459043 0.500031
44 1 0.21041 0.467569 0.498827
27 1 0.262828 0.562281 0.499363
64 1 0.342748 0.522124 0.499508
3 1 0.948522 0.543588 0.502683
16 1 0.107071 0.551806 0.499412
41 1 0.193175 0.637122 0.502487
34 1 0.419865 0.586037 0.500156
56 1 0.325926 0.630273 0.503037
67 1 0.259172 0.67533 0.498648
43 1 0.307191 0.721652 0.500365
50 1 0.401502 0.694407 0.500074
2 1 0.621364 0.781702 0.505739
23 1 0.7581 0.746725 0.501743
11 1 0.894567 0.690014 0.501013
10 1 0.195611 0.766643 0.500753
73 1 0.300873 0.804269 0.498888
25 1 0.408629 0.80827 0.500472
52 1 0.511601 0.857975 0.500057
65 1 0.755401 0.845196 0.499004
59 1 0.838135 0.864238 0.499262
62 1 0.83434 0.794635 0.499159
46 1 0.913598 0.812413 0.495234
80 1 0.0390495 0.974606 0.501163
7 1 0.130353 0.91041 0.499643
8 1 0.275362 0.912408 0.500669
6 1 0.424901 0.944806 0.498352
61 1 0.528118 0.964209 0.499313
4 1 0.629775 0.931368 0.500275
33 1 0.776453 0.937867 0.501027
19 1 0.93118 0.938592 0.497815
ITEM: TIMESTEP
1250
ITEM: NUMBER OF ATOMS
59
ITEM: BOX BOUNDS pp pp pp
-4.8085397050489220e+00 4.8085397050489220e+00
-4.8147206190506049e+00 4.8147206190506049e+00
-1.0000000000000001e-01 1.0000000000000001e-01
ITEM: ATOMS id type xs ys zs
60 1 0.105499 0.0270207 0.498544
51 1 0.204148 0.0172501 0.500047
26 1 0.319248 0.0419071 0.50007
1 1 0.554991 0.0692498 0.50054
18 1 0.708131 0.0753046 0.497389
36 1 0.8542 0.0353801 0.500787
29 1 0.991573 0.0486299 0.499924
17 1 0.0295702 0.17575 0.501215
20 1 0.185754 0.130374 0.4985
9 1 0.321704 0.193435 0.498876
40 1 0.429831 0.10833 0.502735
47 1 0.502273 0.189989 0.498035
22 1 0.618813 0.207703 0.503343
5 1 0.757731 0.216504 0.499097
57 1 0.913456 0.130519 0.500722
28 1 0.0799966 0.299555 0.499308
58 1 0.184837 0.255132 0.496993
68 1 0.265583 0.281516 0.49943
53 1 0.422364 0.242636 0.500942
15 1 0.505817 0.336141 0.499531
12 1 0.652257 0.342183 0.503726
13 1 0.912434 0.253853 0.503037
24 1 0.111938 0.4156 0.503589
39 1 0.221413 0.361774 0.504067
30 1 0.351308 0.336841 0.502254
54 1 0.309992 0.444392 0.49872
31 1 0.419651 0.452502 0.499585
14 1 0.964752 0.386902 0.500149
77 1 0.0332839 0.459405 0.50102
44 1 0.209949 0.467501 0.498919
27 1 0.262432 0.561346 0.498962
64 1 0.34299 0.522011 0.499634
3 1 0.949169 0.54375 0.503726
16 1 0.107601 0.5521 0.500565
41 1 0.193342 0.637007 0.503353
34 1 0.420132 0.586095 0.501008
56 1 0.326227 0.630281 0.502634
67 1 0.259333 0.675132 0.495391
43 1 0.306816 0.721609 0.501643
50 1 0.401606 0.693941 0.500648
2 1 0.621728 0.78052 0.505552
23 1 0.759737 0.746538 0.502058
11 1 0.895665 0.691037 0.50147
10 1 0.195984 0.767015 0.497918
73 1 0.301444 0.804556 0.498711
25 1 0.408029 0.808313 0.501492
52 1 0.51206 0.856194 0.500741
65 1 0.755502 0.844628 0.499845
59 1 0.838397 0.863427 0.500957
62 1 0.836278 0.794183 0.498861
46 1 0.914835 0.812836 0.49604
80 1 0.0387104 0.974761 0.501747
7 1 0.130001 0.910543 0.49937
8 1 0.275407 0.912426 0.498365
6 1 0.42476 0.944747 0.497835
61 1 0.527441 0.964069 0.502228
4 1 0.629327 0.930882 0.498264
33 1 0.776609 0.93761 0.500839
19 1 0.93115 0.938406 0.49782
ITEM: TIMESTEP
1500
ITEM: NUMBER OF ATOMS
59
ITEM: BOX BOUNDS pp pp pp
-4.8073365353967592e+00 4.8073365353967592e+00
-4.8182825718702986e+00 4.8182825718702986e+00
-1.0000000000000001e-01 1.0000000000000001e-01
ITEM: ATOMS id type xs ys zs
60 1 0.105153 0.0270018 0.498708
51 1 0.204189 0.0168857 0.499482
26 1 0.318644 0.0407383 0.49906
1 1 0.555081 0.0685862 0.501241
18 1 0.70861 0.0745191 0.49879
36 1 0.853585 0.0368027 0.499616
29 1 0.991329 0.0490937 0.499182
17 1 0.0299606 0.175677 0.499797
20 1 0.186513 0.129931 0.497221
9 1 0.323211 0.193625 0.498151
40 1 0.430011 0.106585 0.503901
47 1 0.501633 0.188821 0.497454
22 1 0.617921 0.205977 0.502624
5 1 0.756943 0.215164 0.499775
57 1 0.914069 0.130097 0.500678
28 1 0.0801205 0.299137 0.499034
58 1 0.18527 0.254943 0.498631
68 1 0.266191 0.281913 0.499675
53 1 0.423155 0.243642 0.501491
15 1 0.505684 0.336865 0.498824
12 1 0.651787 0.340689 0.502182
13 1 0.911756 0.253363 0.504026
24 1 0.112246 0.416287 0.502452
39 1 0.221248 0.361716 0.504442
30 1 0.351303 0.337444 0.506127
54 1 0.309822 0.444554 0.497264
31 1 0.419288 0.45297 0.499805
14 1 0.964628 0.386416 0.499166
77 1 0.0333581 0.45908 0.500763
44 1 0.210531 0.46781 0.498418
27 1 0.261716 0.562318 0.497585
64 1 0.342145 0.522133 0.501064
3 1 0.949051 0.543753 0.502932
16 1 0.107037 0.552134 0.498895
41 1 0.192544 0.637422 0.503122
34 1 0.419132 0.586062 0.498986
56 1 0.325986 0.630522 0.503119
67 1 0.258755 0.675332 0.498474
43 1 0.306879 0.721244 0.502652
50 1 0.401891 0.693549 0.501689
2 1 0.620599 0.782158 0.507361
23 1 0.758886 0.746882 0.502892
11 1 0.894883 0.69155 0.50065
10 1 0.195848 0.76737 0.499144
73 1 0.301595 0.804108 0.49894
25 1 0.408983 0.807478 0.500881
52 1 0.511991 0.858941 0.500788
65 1 0.756172 0.844487 0.500395
59 1 0.838231 0.86346 0.498304
62 1 0.835474 0.794179 0.500697
46 1 0.914616 0.813648 0.495216
80 1 0.0380141 0.975092 0.501368
7 1 0.129332 0.910183 0.499441
8 1 0.275001 0.911792 0.497243
6 1 0.423753 0.944607 0.498061
61 1 0.527303 0.963216 0.50335
4 1 0.629892 0.930557 0.497627
33 1 0.777261 0.937892 0.501121
19 1 0.930258 0.939404 0.497385
ITEM: TIMESTEP
1750
ITEM: NUMBER OF ATOMS
59
ITEM: BOX BOUNDS pp pp pp
-4.8061333657445964e+00 4.8061333657445964e+00
-4.8128892287492899e+00 4.8128892287492899e+00
-1.0000000000000001e-01 1.0000000000000001e-01
ITEM: ATOMS id type xs ys zs
60 1 0.104889 0.0264697 0.499384
51 1 0.203753 0.0166833 0.501554
26 1 0.318864 0.0409721 0.499374
1 1 0.554942 0.068385 0.502568
18 1 0.708039 0.0741098 0.499379
36 1 0.851942 0.0373188 0.502985
29 1 0.991182 0.0488613 0.50124
17 1 0.0293416 0.175834 0.499953
20 1 0.186094 0.129803 0.497993
9 1 0.323147 0.193509 0.498438
40 1 0.429977 0.107278 0.502951
47 1 0.501813 0.189614 0.498271
22 1 0.618694 0.205183 0.502854
5 1 0.757171 0.215568 0.499462
57 1 0.914032 0.130519 0.498643
28 1 0.0795183 0.299673 0.500293
58 1 0.184652 0.254385 0.498307
68 1 0.265896 0.280881 0.498964
53 1 0.42247 0.24409 0.500954
15 1 0.505832 0.336815 0.4955
12 1 0.651938 0.340247 0.502657
13 1 0.911466 0.253614 0.501646
24 1 0.111736 0.416144 0.501469
39 1 0.221314 0.361433 0.505612
30 1 0.350442 0.337661 0.506289
54 1 0.309029 0.444519 0.496166
31 1 0.418635 0.452933 0.503444
14 1 0.96394 0.386727 0.500354
77 1 0.0330645 0.459112 0.500701
44 1 0.210207 0.467555 0.497851
27 1 0.261448 0.562217 0.497626
64 1 0.341941 0.522498 0.502095
3 1 0.949589 0.54458 0.504022
16 1 0.107286 0.552315 0.500185
41 1 0.192526 0.63793 0.503382
34 1 0.419517 0.586177 0.498218
56 1 0.325638 0.630142 0.50235
67 1 0.258707 0.675357 0.499308
43 1 0.307204 0.721138 0.501235
50 1 0.401775 0.693573 0.501211
2 1 0.620461 0.780038 0.507456
23 1 0.758079 0.746845 0.50252
11 1 0.89376 0.691639 0.501333
10 1 0.196531 0.76767 0.498629
73 1 0.302589 0.803655 0.500732
25 1 0.408205 0.807455 0.501763
52 1 0.511949 0.857223 0.502335
65 1 0.754787 0.845034 0.499377
59 1 0.837441 0.863282 0.499242
62 1 0.835122 0.793997 0.500594
46 1 0.914297 0.813765 0.495569
80 1 0.0378496 0.974587 0.501754
7 1 0.129426 0.909991 0.500493
8 1 0.275517 0.911436 0.49713
6 1 0.424419 0.944243 0.499457
61 1 0.527707 0.962841 0.505226
4 1 0.629043 0.929419 0.499356
33 1 0.776646 0.93758 0.502215
19 1 0.929334 0.940055 0.497133
ITEM: TIMESTEP
2000
ITEM: NUMBER OF ATOMS
59
ITEM: BOX BOUNDS pp pp pp
-4.8049301960924327e+00 4.8049301960924327e+00
-4.8154325183329050e+00 4.8154325183329050e+00
-1.0000000000000001e-01 1.0000000000000001e-01
ITEM: ATOMS id type xs ys zs
60 1 0.105151 0.0269891 0.499458
51 1 0.204426 0.0173158 0.500949
26 1 0.319689 0.0414116 0.499114
1 1 0.554502 0.0685829 0.501337
18 1 0.708221 0.0745558 0.498155
36 1 0.853788 0.0361954 0.503244
29 1 0.991069 0.0484922 0.500221
17 1 0.0291409 0.175506 0.499119
20 1 0.185772 0.130074 0.496312
9 1 0.322668 0.19341 0.498116
40 1 0.430583 0.108744 0.503978
47 1 0.503488 0.190221 0.497583
22 1 0.62014 0.204347 0.502865
5 1 0.758162 0.215497 0.497863
57 1 0.9132 0.130622 0.499529
28 1 0.0795763 0.299317 0.502363
58 1 0.184351 0.254711 0.498975
68 1 0.265205 0.280667 0.498559
53 1 0.423229 0.243279 0.501882
15 1 0.50509 0.337072 0.495015
12 1 0.651749 0.34001 0.501419
13 1 0.911902 0.253596 0.499946
24 1 0.111695 0.415808 0.499702
39 1 0.220548 0.36107 0.505949
30 1 0.350748 0.337218 0.505887
54 1 0.309561 0.444911 0.496634
31 1 0.419044 0.45314 0.503934
14 1 0.964092 0.386851 0.500232
77 1 0.0331558 0.458878 0.502712
44 1 0.209975 0.46739 0.499921
27 1 0.261471 0.562794 0.494935
64 1 0.342086 0.522783 0.50079
3 1 0.949636 0.543954 0.503841
16 1 0.106459 0.552661 0.500159
41 1 0.19213 0.638067 0.505757
34 1 0.419803 0.586673 0.497191
56 1 0.325903 0.631119 0.50151
67 1 0.25862 0.675688 0.49887
43 1 0.306419 0.722206 0.503021
50 1 0.40195 0.694877 0.500378
2 1 0.620581 0.781103 0.50823
23 1 0.758262 0.745818 0.502242
11 1 0.894849 0.690205 0.502149
10 1 0.19566 0.767364 0.498703
73 1 0.301097 0.804983 0.502002
25 1 0.407321 0.809139 0.502036
52 1 0.511452 0.857556 0.503559
65 1 0.75513 0.844493 0.498888
59 1 0.837611 0.863344 0.498992
62 1 0.834257 0.793932 0.500803
46 1 0.913062 0.812348 0.495441
80 1 0.03814 0.974614 0.502145
7 1 0.129884 0.910262 0.500782
8 1 0.275831 0.912729 0.497643
6 1 0.425114 0.945357 0.498828
61 1 0.528763 0.962723 0.5044
4 1 0.629936 0.930491 0.499387
33 1 0.777256 0.937575 0.502428
19 1 0.930862 0.938737 0.494443
ITEM: TIMESTEP
2250
ITEM: NUMBER OF ATOMS
59
ITEM: BOX BOUNDS pp pp pp
-4.8037270264402698e+00 4.8037270264402698e+00
-4.8158609985479668e+00 4.8158609985479668e+00
-1.0000000000000001e-01 1.0000000000000001e-01
ITEM: ATOMS id type xs ys zs
60 1 0.104754 0.0271606 0.498477
51 1 0.203653 0.0173104 0.500002
26 1 0.318811 0.0419969 0.498866
1 1 0.554799 0.0690349 0.500672
18 1 0.708225 0.0752483 0.498087
36 1 0.854556 0.0352609 0.503289
29 1 0.990528 0.0478526 0.50017
17 1 0.0301411 0.17454 0.49777
20 1 0.186174 0.130372 0.495287
9 1 0.323206 0.194406 0.497196
40 1 0.430302 0.108887 0.502757
47 1 0.503202 0.190346 0.497602
22 1 0.620338 0.204976 0.501782
5 1 0.759389 0.215026 0.497527
57 1 0.913541 0.129704 0.499113
28 1 0.0791916 0.298796 0.503168
58 1 0.184799 0.255277 0.498616
68 1 0.265672 0.28162 0.498922
53 1 0.423857 0.244229 0.502053
15 1 0.50571 0.338242 0.495792
12 1 0.652647 0.339272 0.498258
13 1 0.912511 0.253151 0.499994
24 1 0.111352 0.415146 0.499185
39 1 0.220918 0.36171 0.505181
30 1 0.35078 0.338201 0.505993
54 1 0.309804 0.446067 0.497593
31 1 0.419247 0.454212 0.504682
14 1 0.963046 0.386368 0.499454
77 1 0.0324247 0.458182 0.505575
44 1 0.210344 0.467247 0.499598
27 1 0.261204 0.562666 0.494737
64 1 0.342201 0.523576 0.500014
3 1 0.949675 0.54411 0.504213
16 1 0.106237 0.551233 0.500084
41 1 0.191833 0.63747 0.506009
34 1 0.419659 0.587399 0.496962
56 1 0.325886 0.63054 0.501379
67 1 0.258402 0.675158 0.498609
43 1 0.306396 0.721618 0.499098
50 1 0.401418 0.694575 0.499487
2 1 0.619423 0.78108 0.508879
23 1 0.757442 0.746688 0.503691
11 1 0.893986 0.690167 0.501172
10 1 0.195381 0.767424 0.498686
73 1 0.301076 0.803928 0.503048
25 1 0.406836 0.809098 0.501529
52 1 0.510689 0.858331 0.504206
65 1 0.754901 0.845482 0.499779
59 1 0.837186 0.86402 0.500086
62 1 0.833315 0.795055 0.501432
46 1 0.913096 0.812117 0.494617
80 1 0.0381826 0.974055 0.501363
7 1 0.129423 0.910009 0.501138
8 1 0.275485 0.912665 0.497111
6 1 0.424237 0.945511 0.500936
61 1 0.527506 0.963292 0.504739
4 1 0.629327 0.930696 0.498418
33 1 0.776611 0.938131 0.503162
19 1 0.930807 0.937792 0.492657
ITEM: TIMESTEP
2500
ITEM: NUMBER OF ATOMS
59
ITEM: BOX BOUNDS pp pp pp
-4.8025238567881070e+00 4.8025238567881070e+00
-4.8145761052446652e+00 4.8145761052446652e+00
-1.0000000000000001e-01 1.0000000000000001e-01
ITEM: ATOMS id type xs ys zs
60 1 0.104507 0.0272894 0.498469
51 1 0.20312 0.0173644 0.500432
26 1 0.31869 0.0419563 0.499365
1 1 0.554935 0.0684307 0.500231
18 1 0.708015 0.0744924 0.497192
36 1 0.854141 0.0352933 0.502489
29 1 0.990869 0.0476797 0.498071
17 1 0.0298284 0.174324 0.498454
20 1 0.1859 0.130326 0.493972
9 1 0.323772 0.193832 0.496569
40 1 0.43068 0.107293 0.504109
47 1 0.503033 0.189718 0.49539
22 1 0.619571 0.204823 0.501086
5 1 0.758545 0.215482 0.495989
57 1 0.913184 0.130146 0.496963
28 1 0.0794187 0.298657 0.50231
58 1 0.184899 0.25497 0.500752
68 1 0.265946 0.281579 0.499284
53 1 0.423875 0.243963 0.502036
15 1 0.50544 0.337626 0.494986
12 1 0.651781 0.339136 0.497987
13 1 0.912531 0.252923 0.499236
24 1 0.111965 0.41495 0.498084
39 1 0.221344 0.361711 0.506254
30 1 0.351128 0.337703 0.508396
54 1 0.310216 0.44469 0.497596
31 1 0.419553 0.454358 0.504396
14 1 0.964145 0.38645 0.500845
77 1 0.033215 0.458626 0.507505
44 1 0.21084 0.467198 0.498987
27 1 0.261436 0.562586 0.494266
64 1 0.342325 0.52309 0.499625
3 1 0.950873 0.544316 0.505579
16 1 0.107364 0.551114 0.499131
41 1 0.191538 0.637635 0.504977
34 1 0.419825 0.587619 0.495936
56 1 0.325544 0.630913 0.501075
67 1 0.258277 0.675266 0.498862
43 1 0.305857 0.721894 0.500393
50 1 0.401186 0.694952 0.498974
2 1 0.619142 0.780549 0.508778
23 1 0.757729 0.746354 0.503111
11 1 0.894027 0.690197 0.500948
10 1 0.194981 0.767016 0.499549
73 1 0.301007 0.804259 0.503907
25 1 0.406159 0.808873 0.50005
52 1 0.510059 0.857617 0.5026
65 1 0.75489 0.845069 0.499453
59 1 0.837376 0.864102 0.499617
62 1 0.833471 0.794988 0.502036
46 1 0.91244 0.811826 0.495332
80 1 0.0384079 0.974136 0.499723
7 1 0.129373 0.910268 0.50209
8 1 0.2747 0.912749 0.498457
6 1 0.423993 0.945765 0.499475
61 1 0.527021 0.963464 0.50534
4 1 0.628172 0.929929 0.500253
33 1 0.77565 0.93813 0.502555
19 1 0.931239 0.937507 0.492398
ITEM: TIMESTEP
2750
ITEM: NUMBER OF ATOMS
59
ITEM: BOX BOUNDS pp pp pp
-4.8013206871359433e+00 4.8013206871359433e+00
-4.8122539495682402e+00 4.8122539495682402e+00
-1.0000000000000001e-01 1.0000000000000001e-01
ITEM: ATOMS id type xs ys zs
60 1 0.104291 0.0272482 0.49811
51 1 0.203121 0.0164065 0.501241
26 1 0.317921 0.0423768 0.499644
1 1 0.555011 0.0683539 0.499407
18 1 0.708102 0.0729769 0.497635
36 1 0.853938 0.035294 0.504159
29 1 0.990439 0.0474456 0.499515
17 1 0.0297715 0.17429 0.498276
20 1 0.186934 0.129974 0.493868
9 1 0.32374 0.194323 0.496196
40 1 0.430639 0.107503 0.503333
47 1 0.502714 0.189704 0.494086
22 1 0.619195 0.205341 0.499246
5 1 0.758372 0.213737 0.496769
57 1 0.913199 0.129828 0.496869
28 1 0.0800256 0.298559 0.504112
58 1 0.185097 0.254349 0.501234
68 1 0.266266 0.281222 0.500159
53 1 0.424287 0.244768 0.502036
15 1 0.506321 0.339101 0.495369
12 1 0.653404 0.339502 0.496824
13 1 0.91206 0.253442 0.500774
24 1 0.111243 0.414594 0.497197
39 1 0.220594 0.36118 0.505622
30 1 0.351267 0.337871 0.508376
54 1 0.309278 0.445121 0.498187
31 1 0.418608 0.454164 0.50571
14 1 0.964562 0.386687 0.501591
77 1 0.0339949 0.45842 0.506445
44 1 0.209864 0.467033 0.499579
27 1 0.261118 0.562009 0.492793
64 1 0.341421 0.523022 0.501478
3 1 0.95075 0.544086 0.506601
16 1 0.106951 0.55136 0.500194
41 1 0.191517 0.637759 0.506089
34 1 0.41826 0.587202 0.495106
56 1 0.325094 0.630537 0.500343
67 1 0.257954 0.675307 0.500809
43 1 0.306091 0.721428 0.501805
50 1 0.400991 0.694588 0.498333
2 1 0.618452 0.779158 0.508104
23 1 0.756039 0.746119 0.504417
11 1 0.892467 0.689592 0.500357
10 1 0.195409 0.767646 0.49871
73 1 0.301142 0.804299 0.503992
25 1 0.407083 0.809081 0.500337
52 1 0.510736 0.857839 0.502976
65 1 0.753732 0.845042 0.496849
59 1 0.836771 0.863567 0.502008
62 1 0.832491 0.794281 0.503695
46 1 0.912042 0.812035 0.494937
80 1 0.0380545 0.97396 0.499906
7 1 0.129143 0.910102 0.500134
8 1 0.275455 0.912249 0.498839
6 1 0.424107 0.946264 0.498769
61 1 0.527495 0.962441 0.505223
4 1 0.628443 0.92859 0.499594
33 1 0.775392 0.937708 0.504071
19 1 0.930554 0.937713 0.493066
ITEM: TIMESTEP
3000
ITEM: NUMBER OF ATOMS
59
ITEM: BOX BOUNDS pp pp pp
-4.8001175174837805e+00 4.8001175174837805e+00
-4.8179730690085139e+00 4.8179730690085139e+00
-1.0000000000000001e-01 1.0000000000000001e-01
ITEM: ATOMS id type xs ys zs
60 1 0.103566 0.0266643 0.497029
51 1 0.202351 0.0171702 0.501384
26 1 0.317604 0.0416231 0.500901
1 1 0.554436 0.0669407 0.500338
18 1 0.707437 0.0734059 0.497996
36 1 0.853352 0.0347431 0.503511
29 1 0.989675 0.0476794 0.497997
17 1 0.0288304 0.174322 0.498004
20 1 0.186097 0.129839 0.493817
9 1 0.323494 0.193715 0.497683
40 1 0.430157 0.107251 0.503879
47 1 0.503313 0.188896 0.494355
22 1 0.619769 0.205639 0.499824
5 1 0.758187 0.214582 0.497146
57 1 0.912533 0.129465 0.497922
28 1 0.0795123 0.298215 0.503598
58 1 0.184032 0.254016 0.499986
68 1 0.265697 0.280936 0.498891
53 1 0.423689 0.244127 0.502042
15 1 0.506484 0.338299 0.495344
12 1 0.653583 0.340461 0.493442
13 1 0.912318 0.253178 0.501417
24 1 0.110975 0.415116 0.497688
39 1 0.220922 0.361183 0.50537
30 1 0.351143 0.337151 0.505808
54 1 0.309008 0.444385 0.497881
31 1 0.418564 0.453465 0.507886
14 1 0.964437 0.386472 0.501357
77 1 0.0326644 0.458949 0.506287
44 1 0.210023 0.467021 0.500784
27 1 0.260886 0.562342 0.49214
64 1 0.341638 0.522444 0.500143
3 1 0.948751 0.543809 0.505508
16 1 0.106863 0.551673 0.498329
41 1 0.191104 0.637936 0.506501
34 1 0.418638 0.58688 0.492895
56 1 0.324534 0.631041 0.50112
67 1 0.257476 0.674989 0.502825
43 1 0.305078 0.721347 0.499637
50 1 0.401016 0.694758 0.500308
2 1 0.618053 0.778567 0.506978
23 1 0.756744 0.745663 0.504369
11 1 0.893326 0.690359 0.499244
10 1 0.194508 0.767528 0.499034
73 1 0.300128 0.804175 0.502512
25 1 0.407224 0.808809 0.500255
52 1 0.511468 0.858278 0.503926
65 1 0.754019 0.844144 0.497987
59 1 0.836573 0.863566 0.50158
62 1 0.832366 0.794457 0.501667
46 1 0.911989 0.81189 0.493385
80 1 0.0372302 0.974203 0.499745
7 1 0.1285 0.909974 0.502704
8 1 0.274397 0.91252 0.499437
6 1 0.423798 0.94543 0.500196
61 1 0.527144 0.961756 0.505306
4 1 0.6287 0.928403 0.499257
33 1 0.775345 0.937527 0.502955
19 1 0.929821 0.937326 0.493224
ITEM: TIMESTEP
3250
ITEM: NUMBER OF ATOMS
59
ITEM: BOX BOUNDS pp pp pp
-4.7989143478316176e+00 4.7989143478316176e+00
-4.8141960368875933e+00 4.8141960368875933e+00
-1.0000000000000001e-01 1.0000000000000001e-01
ITEM: ATOMS id type xs ys zs
60 1 0.10382 0.0274052 0.497577
51 1 0.202609 0.017185 0.50193
26 1 0.317852 0.041332 0.498756
1 1 0.553647 0.0672816 0.499364
18 1 0.707338 0.0737203 0.498902
36 1 0.853255 0.0346767 0.505631
29 1 0.989386 0.0478692 0.497351
17 1 0.0285012 0.174929 0.497715
20 1 0.185569 0.130427 0.493767
9 1 0.323102 0.19426 0.499293
40 1 0.429285 0.107945 0.503283
47 1 0.502758 0.189167 0.494104
22 1 0.618745 0.207652 0.499388
5 1 0.757226 0.214649 0.497183
57 1 0.911999 0.129623 0.499496
28 1 0.0789601 0.298755 0.504297
58 1 0.184558 0.255255 0.498034
68 1 0.265524 0.282063 0.498516
53 1 0.42313 0.243673 0.503334
15 1 0.505225 0.338102 0.495241
12 1 0.653007 0.341942 0.493903
13 1 0.911324 0.253369 0.501528
24 1 0.110577 0.415353 0.49772
39 1 0.22056 0.361844 0.506709
30 1 0.351206 0.337555 0.504134
54 1 0.308903 0.445228 0.499173
31 1 0.418224 0.45384 0.508391
14 1 0.963196 0.386738 0.504178
77 1 0.0321957 0.459011 0.507124
44 1 0.209179 0.467801 0.50152
27 1 0.260262 0.562038 0.493017
64 1 0.341222 0.523218 0.502702
3 1 0.948683 0.543948 0.504547
16 1 0.105874 0.552027 0.498048
41 1 0.190858 0.637777 0.506662
34 1 0.41892 0.587036 0.492017
56 1 0.324751 0.631102 0.501536
67 1 0.257274 0.675862 0.501896
43 1 0.305178 0.721932 0.498166
50 1 0.400221 0.695093 0.500191
2 1 0.617673 0.77908 0.508055
23 1 0.755754 0.74573 0.503682
11 1 0.892499 0.689944 0.49972
10 1 0.19368 0.767549 0.498829
73 1 0.299425 0.804486 0.500782
25 1 0.406415 0.808551 0.501225
52 1 0.50984 0.857148 0.503739
65 1 0.753666 0.844037 0.497949
59 1 0.836347 0.862203 0.50025
62 1 0.833006 0.793103 0.500933
46 1 0.912472 0.811619 0.493923
80 1 0.0373086 0.974733 0.500115
7 1 0.128308 0.910326 0.504011
8 1 0.274225 0.912702 0.499809
6 1 0.423283 0.944579 0.500971
61 1 0.526704 0.961443 0.503403
4 1 0.628456 0.92859 0.502577
33 1 0.775856 0.936829 0.50375
19 1 0.929736 0.937099 0.493133
ITEM: TIMESTEP
3500
ITEM: NUMBER OF ATOMS
59
ITEM: BOX BOUNDS pp pp pp
-4.7977111781794539e+00 4.7977111781794539e+00
-4.8109369480847866e+00 4.8109369480847866e+00
-1.0000000000000001e-01 1.0000000000000001e-01
ITEM: ATOMS id type xs ys zs
60 1 0.103678 0.0271821 0.498513
51 1 0.202797 0.0173284 0.502821
26 1 0.317762 0.041633 0.497303
1 1 0.553379 0.0666589 0.501575
18 1 0.707062 0.073666 0.497433
36 1 0.852554 0.0354362 0.505741
29 1 0.98973 0.0477568 0.495918
17 1 0.028249 0.174759 0.498279
20 1 0.184951 0.130685 0.491983
9 1 0.322755 0.194815 0.499235
40 1 0.429301 0.107884 0.501308
47 1 0.502263 0.189004 0.493261
22 1 0.61902 0.206101 0.498687
5 1 0.757284 0.214473 0.497453
57 1 0.912145 0.130198 0.497423
28 1 0.079143 0.298609 0.501842
58 1 0.184126 0.255282 0.498077
68 1 0.265464 0.282459 0.498596
53 1 0.423304 0.243895 0.505005
15 1 0.506201 0.337478 0.494142
12 1 0.65292 0.340726 0.492207
13 1 0.910599 0.253499 0.502326
24 1 0.110883 0.41488 0.497595
39 1 0.219932 0.361892 0.507843
30 1 0.351196 0.338044 0.503745
54 1 0.308903 0.445133 0.499265
31 1 0.419424 0.453397 0.508595
14 1 0.963426 0.386484 0.504559
77 1 0.0325145 0.458241 0.507403
44 1 0.209435 0.467778 0.5027
27 1 0.261109 0.562038 0.493117
64 1 0.342263 0.522539 0.502107
3 1 0.948304 0.543183 0.504745
16 1 0.105346 0.55192 0.496589
41 1 0.190866 0.6374 0.505962
34 1 0.418885 0.587408 0.493006
56 1 0.324668 0.630992 0.499436
67 1 0.257265 0.674903 0.502693
43 1 0.305174 0.721753 0.498866
50 1 0.400434 0.694834 0.498087
2 1 0.617358 0.778728 0.50941
23 1 0.756347 0.74594 0.505092
11 1 0.892184 0.689888 0.500992
10 1 0.193825 0.766468 0.499276
73 1 0.299112 0.804859 0.500717
25 1 0.406496 0.808984 0.501545
52 1 0.510389 0.857579 0.502874
65 1 0.753688 0.844682 0.497387
59 1 0.836542 0.862144 0.500778
62 1 0.833491 0.792515 0.500524
46 1 0.912664 0.811684 0.49454
80 1 0.0370019 0.974104 0.499371
7 1 0.128359 0.910058 0.50164
8 1 0.27492 0.912516 0.500051
6 1 0.423503 0.94554 0.500931
61 1 0.526666 0.961176 0.50334
4 1 0.628358 0.92856 0.503333
33 1 0.775448 0.937524 0.504674
19 1 0.929371 0.937874 0.494829
ITEM: TIMESTEP
3750
ITEM: NUMBER OF ATOMS
59
ITEM: BOX BOUNDS pp pp pp
-4.7965080085272911e+00 4.7965080085272911e+00
-4.8190061213333539e+00 4.8190061213333539e+00
-1.0000000000000001e-01 1.0000000000000001e-01
ITEM: ATOMS id type xs ys zs
60 1 0.10361 0.0263409 0.498907
51 1 0.202395 0.0170389 0.50401
26 1 0.317732 0.0418601 0.497612
1 1 0.554633 0.0671672 0.502225
18 1 0.708676 0.072349 0.496747
36 1 0.852822 0.0357971 0.506033
29 1 0.988927 0.0479417 0.495049
17 1 0.0280048 0.174661 0.497963
20 1 0.185155 0.130112 0.49265
9 1 0.322498 0.194186 0.499347
40 1 0.430059 0.107455 0.500857
47 1 0.502821 0.189056 0.494921
22 1 0.618821 0.207079 0.497744
5 1 0.756974 0.213426 0.497787
57 1 0.91196 0.130103 0.497826
28 1 0.0789554 0.298282 0.50236
58 1 0.184762 0.254388 0.499557
68 1 0.265636 0.282052 0.499187
53 1 0.423165 0.242898 0.505047
15 1 0.506713 0.337083 0.492616
12 1 0.654153 0.341104 0.49384
13 1 0.911382 0.253527 0.501661
24 1 0.110625 0.414986 0.498044
39 1 0.220936 0.361857 0.508128
30 1 0.351652 0.337025 0.503073
54 1 0.309323 0.444751 0.499152
31 1 0.419228 0.453035 0.509284
14 1 0.963762 0.386469 0.50506
77 1 0.0321645 0.459164 0.504496
44 1 0.209697 0.466614 0.501008
27 1 0.26118 0.562127 0.495261
64 1 0.342079 0.522574 0.500009
3 1 0.948229 0.54392 0.506108
16 1 0.107072 0.551598 0.496157
41 1 0.191793 0.6377 0.505891
34 1 0.419131 0.586561 0.49145
56 1 0.324957 0.630678 0.500077
67 1 0.257607 0.675665 0.502179
43 1 0.305297 0.721912 0.499322
50 1 0.400793 0.694407 0.498639
2 1 0.617716 0.779086 0.509188
23 1 0.756793 0.746858 0.503975
11 1 0.893173 0.690364 0.50209
10 1 0.193402 0.766675 0.498916
73 1 0.29953 0.804164 0.500934
25 1 0.40518 0.808603 0.499882
52 1 0.50914 0.856799 0.502641
65 1 0.753041 0.844982 0.498283
59 1 0.836634 0.862444 0.50098
62 1 0.833871 0.79348 0.498889
46 1 0.913516 0.812153 0.493785
80 1 0.0364171 0.974172 0.50002
7 1 0.128404 0.909759 0.499839
8 1 0.274045 0.912501 0.501487
6 1 0.422942 0.945349 0.501192
61 1 0.526808 0.961755 0.503466
4 1 0.628482 0.927938 0.502515
33 1 0.776064 0.937487 0.50261
19 1 0.928889 0.93795 0.494831
ITEM: TIMESTEP
4000
ITEM: NUMBER OF ATOMS
59
ITEM: BOX BOUNDS pp pp pp
-4.7953048388751283e+00 4.7953048388751283e+00
-4.8138483876010509e+00 4.8138483876010509e+00
-1.0000000000000001e-01 1.0000000000000001e-01
ITEM: ATOMS id type xs ys zs
60 1 0.103456 0.027271 0.497581
51 1 0.202119 0.0166604 0.503617
26 1 0.318012 0.0417181 0.496868
1 1 0.555384 0.0678437 0.501912
18 1 0.708653 0.0729428 0.497147
36 1 0.853879 0.0347447 0.505421