LAMMPS (23 Jun 2022 - Update 4)
  using 1 OpenMP thread(s) per MPI task
# Compute elastic constant tensor for a crystal
#
# Written by Aidan Thompson (Sandia, athomps@sandia.gov)
#
#  This script uses the following three include files.
#
#   init.mod      (must be modified for different crystal structures)
# 	       	  Define units, deformation parameters and initial
#		  configuration of the atoms and simulation cell.
#
#
#   potential.mod    (must be modified for different pair styles)
# 		     Define pair style and other attributes
#		     not stored in restart file
#
#
#   displace.mod    (displace.mod should not need to be modified)
# 		    Perform positive and negative box displacements
# 		    in direction ${dir} and size ${up}.
# 		    It uses the resultant changes
#		    in stress to compute one
# 		    row of the elastic stiffness tensor
#
#		    Inputs variables:
#		    	   dir = the Voigt deformation component
#		    		    (1,2,3,4,5,6)
#		    Global constants:
#       	    	   up = the deformation magnitude (strain units)
#       		   cfac = conversion from LAMMPS pressure units to
#               	   output units for elastic constants
#
#
#  To run this on a different system, it should only be necessary to
#  modify the files init.mod and potential.mod. In order to calculate
#  the elastic constants correctly, care must be taken to specify
#  the correct units in init.mod (units, cfac and cunits). It is also
#  important to verify that the minimization of energy w.r.t atom
#  positions in the deformed cell is fully converged.
#  One indication of this is that the elastic constants are insensitive
#  to the choice of the variable ${up} in init.mod. Another is to check
#  the final max and two-norm forces reported in the log file. If you know
#  that minimization is not required, you can set maxiter = 0.0 in
#  init.mod.
#



variable dt equal 0.01
variable strain equal 0.05
variable srate equal 1e-4
variable M equal 1000 # averaging time for properties
variable strainsteps equal ${strain}/${dt}/${srate}
variable strainsteps equal 0.05/${dt}/${srate}
variable strainsteps equal 0.05/0.01/${srate}
variable strainsteps equal 0.05/0.01/0.0001


dimension 2
include init.mod
# NOTE: This script can be modified for different atomic structures,
# units, etc. See in.elastic for more info.
#

# Define the finite deformation size. Try several values of this
# variable to verify that results do not depend on it.
variable up equal 1.0e-1

# Define the amount of random jiggle for atoms
# This prevents atoms from staying on saddle points
variable atomjiggle equal 1.0e-6

# Uncomment one of these blocks, depending on what units
# you are using in LAMMPS and for output

# metal units, elastic constants in eV/A^3
#units		metal
#variable cfac equal 6.2414e-7
#variable cunits string eV/A^3

# Choose potential
# metal units, elastic constants in GPa
units		metal
atom_style	full
#pair_style      lj/cut 1.0
#pair_style      yukawa 1.0 2.0
#pair_modify     mix arithmetic
bond_style      harmonic
angle_style     harmonic
dihedral_style  zero
special_bonds   amber
variable cfac equal 1.0e-4
variable cunits string GPa
boundary	p p p

# Need to set mass to something, just to satisfy LAMMPS
#mass 1 1.0e-20
read_data network.lmp
Reading data file ...
  orthogonal box = (-4.812678 -4.812678 -0.1) to (4.812678 4.812678 0.1)
  1 by 1 by 1 MPI processor grid
WARNING: Atom style in data file differs from currently defined atom style (src/read_data.cpp:538)
  reading atoms ...
  59 atoms
WARNING: Bond style in data file differs from currently defined bond style (src/read_data.cpp:630)
  scanning bonds ...
  5 = max bonds/atom
  reading bonds ...
  142 bonds
Finding 1-2 1-3 1-4 neighbors ...
  special bond factors lj:    0        0        0.5     
  special bond factors coul:  0        0        0.8333333333333334
     8 = max # of 1-2 neighbors
    50 = max # of 1-3 neighbors
   314 = max # of 1-4 neighbors
    33 = max # of special neighbors
  special bonds CPU = 0.000 seconds
  read_data CPU = 0.003 seconds

# real units, elastic constants in GPa
#units		real
#variable cfac equal 1.01325e-4
#variable cunits string GPa

# Define minimization parameters
variable etol equal 0.0
variable ftol equal 5.0e-10
variable maxiter equal 100000
variable maxeval equal 20000
variable dmax equal 1.0e-2


include potential.mod
# NOTE: This script can be modified for different pair styles
# See in.elastic for more info.

# Setup neighbor style
neighbor 3.0 nsq
neigh_modify once no every 1 delay 0 check yes
comm_modify cutoff 2.0

# Setup minimization style
min_style	     cg
min_modify	     dmax ${dmax} line quadratic
min_modify	     dmax 0.01 line quadratic

timestep	0.001


# Setup output
thermo		500
thermo_style custom step temp pe ebond eangle edihed press pxx pyy pzz pxy pxz pyz lx ly lz vol
thermo_modify norm no


#change_box all triclinic
comm_modify mode single cutoff 10.0 vel yes
atom_modify sort 0 0



# Compute initial state

#dump rela all atom 1 traj_relax.lmpstrj
fix 3 all box/relax x 0 y 0 # xy 0  #MS comment: relax if the network is periodic
minimize ${etol} ${ftol} ${maxiter} ${maxeval}
minimize 0 ${ftol} ${maxiter} ${maxeval}
minimize 0 5e-10 ${maxiter} ${maxeval}
minimize 0 5e-10 100000 ${maxeval}
minimize 0 5e-10 100000 20000
Neighbor list info ...
  update every 1 steps, delay 0 steps, check yes
  max neighbors/atom: 2000, page size: 100000
  master list distance cutoff = 0
  ghost atom cutoff = 10
  0 neighbor lists, perpetual/occasional/extra = 0 0 0
WARNING: Inconsistent image flags (src/domain.cpp:819)
Per MPI rank memory allocation (min/avg/max) = 9.028 | 9.028 | 9.028 Mbytes
   Step          Temp          PotEng         E_bond        E_angle        E_dihed         Press           Pxx            Pyy            Pzz            Pxy            Pxz            Pyz             Lx             Ly             Lz           Volume    
         0   0              4.0588489e-11  4.0588489e-11  0              0             -0.22687197    -0.24130781    -0.21243614     0             -0.056462425    0              0              9.625356       9.625356       0.2            92.647478    
       390   0              5.6705554e-13  5.6705554e-13  0              0             -3.36953e-08    4.1450856e-07 -4.8189916e-07  0             -0.0017068993   0              0              9.6253572      9.6253561      0.2            92.647491    
Loop time of 0.0207383 on 1 procs for 390 steps with 59 atoms

100.0% CPU use with 1 MPI tasks x 1 OpenMP threads

Minimization stats:
  Stopping criterion = force tolerance
  Energy initial, next-to-last, final = 
    4.05884886750809e-11 5.67055573916464e-13 5.67055538179228e-13
  Force two-norm initial, final = 3.178863e-05 4.939347e-10
  Force max component initial, final = 1.3953868e-05 2.0248905e-10
  Final line search alpha, max atom move = 1 2.0248905e-10
  Iterations, force evaluations = 390 780

MPI task timing breakdown:
Section |  min time  |  avg time  |  max time  |%varavg| %total
---------------------------------------------------------------
Pair    | 0          | 0          | 0          |   0.0 |  0.00
Bond    | 0.0030883  | 0.0030883  | 0.0030883  |   0.0 | 14.89
Neigh   | 0          | 0          | 0          |   0.0 |  0.00
Comm    | 0.0061613  | 0.0061613  | 0.0061613  |   0.0 | 29.71
Output  | 0          | 0          | 0          |   0.0 |  0.00
Modify  | 0          | 0          | 0          |   0.0 |  0.00
Other   |            | 0.01149    |            |       | 55.40

Nlocal:             59 ave          59 max          59 min
Histogram: 1 0 0 0 0 0 0 0 0 0
Nghost:            503 ave         503 max         503 min
Histogram: 1 0 0 0 0 0 0 0 0 0
Neighs:              0 ave           0 max           0 min
Histogram: 1 0 0 0 0 0 0 0 0 0

Total # of neighbors = 0
Ave neighs/atom = 0
Ave special neighs/atom = 24.101695
Neighbor list builds = 0
Dangerous builds = 0
#dump rela all atom 1 traj_relax.lmpstrj
thermo 100
unfix 3

fix 2d all enforce2d



#dump dump0 all xyz 1000000 cfg0.xyz
#dump_modify dump0 format line "%d %20.10g %20.10g %20.10g"
#minimize ${etol} ${ftol} ${maxiter} ${maxeval}

#undump rela

#write_restart restart.equil

# These formulas define the derivatives w.r.t. strain components
# Constants uses $, variables use v_


timestep        ${dt}
timestep        0.01
variable nsteps equal round(${strainsteps})
variable nsteps equal round(50000)

fix             4 all nve
fix             5 all langevin 0.1 0.1 1 904297
#fix		6 all press/berendsen y  0.0 0.0 1 x 0.0 0.0 10
fix             6 all nph y 0.0 0.0 10 ptemp 0.1 # x 0.0 0.0 10

# For PLUMED2
# fix 22 all plumed plumedfile plumed.dat outfile plumed.out

#fix             6 all nph x 0.0 0.0 10
fix     	9 all deform 1 x erate -${srate} units box remap x
fix     	9 all deform 1 x erate -0.0001 units box remap x

#fix     8 all deform 1 xy erate ${srate} units box remap x



#fix    10 all ave/time

dump 1 all atom 250 deform_dump.lammpstrj


#To avoid flying ice cube phenomenon:
#fix 21 all momentum 100 linear 1 1 1 angular


run  ${nsteps}
run  50000
WARNING: One or more atoms are time integrated more than once (src/modify.cpp:292)
WARNING: Inconsistent image flags (src/domain.cpp:819)
Per MPI rank memory allocation (min/avg/max) = 7.903 | 7.903 | 7.903 Mbytes
   Step          Temp          PotEng         E_bond        E_angle        E_dihed         Press           Pxx            Pyy            Pzz            Pxy            Pxz            Pyz             Lx             Ly             Lz           Volume    
       390   0              5.6705554e-13  5.6705554e-13  0              0             -3.36953e-08    4.1450856e-07 -4.8189916e-07  0             -0.0017068993   0              0              9.6253572      9.6253561      0.2            92.647491    
       400   0.057216131    1.5246743e-05  1.5246743e-05  0              0              31.964127      55.309425      8.4340537      0              67.978954      0              0              9.625261       9.6253448      0.2            92.646456    
       500   0.1608647      0.00067937405  0.00067937405  0              0              22.777163      190.68302     -145.30515      0             -317.57542      0              0              9.6242984      9.628103       0.2            92.663737    
       600   0.19115873     0.00096447246  0.00096447246  0              0              62.673191     -23.379886      148.4991       0             -738.92625      0              0              9.6233359      9.6265423      0.2            92.63945     
       700   0.23375754     0.0011790982   0.0011790982   0              0              441.0691       938.41503     -56.473673      0              72.151502      0              0              9.6223734      9.6333553      0.2            92.695742    
       800   0.20968941     0.00088976999  0.00088976999  0              0             -287.56696     -668.10556      92.815401      0              67.919989      0              0              9.6214108      9.628147       0.2            92.636358    
       900   0.21332429     0.0010217693   0.0010217693   0              0             -399.43601     -806.00074      6.9577795      0             -334.56938      0              0              9.6204483      9.6266934      0.2            92.613106    
      1000   0.22727479     0.0011784614   0.0011784614   0              0              403.10682      794.38931      11.636418      0              526.27615      0              0              9.6194857      9.6252729      0.2            92.590175    
      1100   0.19610468     0.0010000983   0.0010000983   0              0              182.89618      371.93721     -6.3267555      0              391.96704      0              0              9.6185232      9.6191819      0.2            92.522325    
      1200   0.20519676     0.00089107777  0.00089107777  0              0              140.8943       250.41026      31.17256       0              583.36032      0              0              9.6175607      9.6268912      0.2            92.58721     
      1300   0.19807096     0.00076006814  0.00076006814  0              0              156.32509      238.02836      74.425118      0              486.21151      0              0              9.6165981      9.6230114      0.2            92.540634    
      1400   0.2282761      0.0010302937   0.0010302937   0              0             -115.00229     -41.410319     -188.74271      0              1085.1824      0              0              9.6156356      9.6339138      0.2            92.636204    
      1500   0.2531173      0.0010931997   0.0010931997   0              0              136.61493      41.440208      231.60818      0              302.64476      0              0              9.6146731      9.6365651      0.2            92.652423    
      1600   0.20900769     0.0012271966   0.0012271966   0              0             -198.05249     -209.57828     -186.70767      0             -401.41799      0              0              9.6137105      9.6307482      0.2            92.587226    
      1700   0.17130577     0.0010078939   0.0010078939   0              0              277.80242      287.35064      268.0928       0              134.86841      0              0              9.612748       9.6273572      0.2            92.545359    
      1800   0.23040269     0.00090947389  0.00090947389  0              0             -263.37165     -207.66912     -319.24435      0              5.8056598      0              0              9.6117855      9.6245196      0.2            92.508818    
      1900   0.17897211     0.00081208411  0.00081208411  0              0              817.05865      1195.3357      438.62352      0             -672.04112      0              0              9.6108229      9.6211238      0.2            92.466917    
      2000   0.22009772     0.00096739846  0.00096739846  0              0              185.92755      836.96625     -465.29486      0             -217.77628      0              0              9.6098604      9.630865       0.2            92.551268    
      2100   0.25598105     0.00096051966  0.00096051966  0              0              513.91611      548.19949      479.477        0             -46.475722      0              0              9.6088979      9.6260162      0.2            92.495406    
      2200   0.19903473     0.0008829783   0.0008829783   0              0             -278.23071     -61.585579     -495.06076      0             -126.19472      0              0              9.6079353      9.6367147      0.2            92.588932    
      2300   0.19379808     0.0012160591   0.0012160591   0              0              585.75621      614.62898      556.70214      0             -372.86253      0              0              9.6069728      9.6324713      0.2            92.53889     
      2400   0.16826169     0.0009981835   0.0009981835   0              0              60.852253      803.04871     -681.50558      0             -256.98039      0              0              9.6060102      9.6385409      0.2            92.587923    
      2500   0.18884677     0.0011252189   0.0011252189   0              0              1334.0894      1847.3763      820.63116      0             -517.62149      0              0              9.6050477      9.6291522      0.2            92.488466    
      2600   0.23287474     0.00096376     0.00096376     0              0             -32.329081      672.83094     -737.68251      0             -866.85236      0              0              9.6040852      9.6326422      0.2            92.512716    
      2700   0.29666048     0.00098688378  0.00098688378  0              0              976.20911      1055.4316      896.79267      0             -170.4731       0              0              9.6031226      9.6239698      0.2            92.420162    
      2800   0.21634963     0.0011095339   0.0011095339   0              0             -126.58872      686.51258     -939.85501      0             -551.46933      0              0              9.6021601      9.6341516      0.2            92.508666    
      2900   0.204123       0.0009944095   0.0009944095   0              0              1059.3969      1246.2986      872.29849      0             -408.56445      0              0              9.6011976      9.6255521      0.2            92.416827    
      3000   0.21396951     0.0011017314   0.0011017314   0              0             -115.69685      711.81812     -943.39639      0             -442.98548      0              0              9.600235       9.6359461      0.2            92.507348    
      3100   0.19208993     0.00089990607  0.00089990607  0              0              938.64116      926.48362      950.60936      0              59.314775      0              0              9.5992725      9.6251541      0.2            92.394477    
      3200   0.21787203     0.0010101141   0.0010101141   0              0             -673.98097     -332.52473     -1015.6306      0             -79.124649      0              0              9.59831        9.6363225      0.2            92.49241     
      3300   0.168851       0.00087861899  0.00087861899  0              0              1175.1025      1282.073       1067.9647      0              414.7381       0              0              9.5973474      9.6223617      0.2            92.349148    
      3400   0.25199177     0.00090811412  0.00090811412  0              0              16.562276      1077.7724     -1044.8463      0              56.189331      0              0              9.5963849      9.6362974      0.2            92.473618    
      3500   0.22501379     0.0012157313   0.0012157313   0              0              1287.8804      1646.7256      928.86204      0              320.66001      0              0              9.5954224      9.6218739      0.2            92.325944    
      3600   0.26163448     0.00097388619  0.00097388619  0              0             -296.28979      292.51971     -885.2747       0              346.23841      0              0              9.5944598      9.6396536      0.2            92.487269    
      3700   0.23447452     0.00091489643  0.00091489643  0              0              700.91674      499.96286      901.6937       0              304.54678      0              0              9.5934973      9.632435       0.2            92.408739    
      3800   0.18024316     0.0011128412   0.0011128412   0              0             -285.01981      226.14175     -796.35749      0              410.63021      0              0              9.5925347      9.633665       0.2            92.411266    
      3900   0.19767763     0.0010696139   0.0010696139   0              0              690.95508      731.36633      650.36109      0             -58.024142      0              0              9.5915722      9.621076       0.2            92.281245    
      4000   0.27750176     0.0011171983   0.0011171983   0              0             -48.021419      466.29903     -562.52914      0              81.890607      0              0              9.5906097      9.6276968      0.2            92.335482    
      4100   0.16156008     0.0012835426   0.0012835426   0              0              813.18281      1057.799       568.391        0              317.80058      0              0              9.5896471      9.6264672      0.2            92.314424    
      4200   0.26604256     0.0010717214   0.0010717214   0              0              169.68622      714.08866     -374.86007      0             -346.44265      0              0              9.5886846      9.6334704      0.2            92.37231     
      4300   0.20326674     0.0011983834   0.0011983834   0              0              678.58011      973.6279       383.33605      0             -54.949244      0              0              9.5877221      9.6344506      0.2            92.372435    
      4400   0.17082489     0.0011223006   0.0011223006   0              0             -222.81256     -61.593239     -384.19644      0              27.357498      0              0              9.5867595      9.6341154      0.2            92.359948    
      4500   0.21543814     0.0010808765   0.0010808765   0              0              530.79982      683.93848      377.47906      0             -215.87633      0              0              9.585797       9.6346481      0.2            92.35578     
      4600   0.19104297     0.0010742185   0.0010742185   0              0              714.54643      1742.8942     -313.94691      0              0.83964955     0              0              9.5848345      9.6344905      0.2            92.344997    
      4700   0.19009216     0.0010894819   0.0010894819   0              0              1058.5224      1845.0743      271.75507      0             -383.03919      0              0              9.5838719      9.6307374      0.2            92.299754    
      4800   0.17236171     0.00096549799  0.00096549799  0              0              248.77168      791.30225     -293.93972      0             -668.96225      0              0              9.5829094      9.6356897      0.2            92.337941    
      4900   0.21214866     0.00080402259  0.00080402259  0              0              553.11665      824.29364      281.7528       0             -140.86569      0              0              9.5819469      9.6398201      0.2            92.368244    
      5000   0.24038631     0.0011324212   0.0011324212   0              0              169.52299      722.78377     -383.91704      0             -106.53268      0              0              9.5809843      9.6434711      0.2            92.393946    
      5100   0.2094047      0.0009958509   0.0009958509   0              0              1062.5289      1823.601       301.23166      0              515.51884      0              0              9.5800218      9.6407213      0.2            92.35832     
      5200   0.24350448     0.001369386    0.001369386    0              0              833.10771      1950.2239     -284.18893      0              723.4737       0              0              9.5790592      9.642876       0.2            92.369681    
      5300   0.20240317     0.0010766786   0.0010766786   0              0              976.92788      1701.4182      252.23492      0              943.64337      0              0              9.5780967      9.6409677      0.2            92.342121    
      5400   0.21740883     0.00093502419  0.00093502419  0              0              683.74241      1587.0982     -219.79407      0              494.41097      0              0              9.5771342      9.6402259      0.2            92.325737    
      5500   0.21170855     0.0011356785   0.0011356785   0              0              980.2988       1701.1015      259.33009      0              692.7471       0              0              9.5761716      9.6484134      0.2            92.394862    
      5600   0.17686219     0.0011689935   0.0011689935   0              0              661.51034      1556.5681     -233.71587      0              348.84658      0              0              9.5752091      9.6465066      0.2            92.367318    
      5700   0.19325705     0.0011511731   0.0011511731   0              0              988.63704      1716.1257      260.93876      0              954.83784      0              0              9.5742466      9.6464668      0.2            92.357652    
      5800   0.2168867      0.0011937358   0.0011937358   0              0              502.99579      1358.1273     -352.27651      0              128.91211      0              0              9.573284       9.6464086      0.2            92.34781     
      5900   0.23716102     0.0012730323   0.0012730323   0              0              886.81302      1421.8325      351.60507      0              162.43764      0              0              9.5723215      9.6424659      0.2            92.300783    
      6000   0.17659268     0.0010815732   0.0010815732   0              0              393.03082      1267.5465     -481.6841       0              670.36325      0              0              9.571359       9.6497997      0.2            92.361697    
      6100   0.25265377     0.0013771746   0.0013771746   0              0              1473.3848      2510.8958      435.71949      0              189.61743      0              0              9.5703964      9.6522198      0.2            92.37557     
      6200   0.18524555     0.001297028    0.001297028    0              0              514.982        1462.1269     -432.2958       0              266.90164      0              0              9.5694339      9.6594792      0.2            92.435748    
      6300   0.223763       0.0012989369   0.0012989369   0              0              1033.7591      1560.0752      507.2628       0             -371.68336      0              0              9.5684714      9.6504713      0.2            92.340258    
      6400   0.17201285     0.0012000405   0.0012000405   0              0              697.20564      2026.3418     -632.10221      0              600.23985      0              0              9.5675088      9.6572368      0.2            92.395699    
      6500   0.16348489     0.0011101717   0.0011101717   0              0              1326.9668      1957.7534      695.99336      0              375.95118      0              0              9.5665463      9.6491945      0.2            92.309466    
      6600   0.23641825     0.0011676934   0.0011676934   0              0             -80.477324      614.03003     -775.2015       0              916.84852      0              0              9.5655837      9.6574015      0.2            92.378683    
      6700   0.15869282     0.0011276786   0.0011276786   0              0              980.12726      1197.564       762.51058      0              500.43522      0              0              9.5646212      9.6503431      0.2            92.301876    
      6800   0.16455452     0.001292619    0.001292619    0              0             -556.94112     -318.27568     -795.7822       0              244.20051      0              0              9.5636587      9.6666644      0.2            92.448679    
      6900   0.20257494     0.0011925612   0.0011925612   0              0              345.56462     -42.642324      733.60064      0             -412.88988      0              0              9.5626961      9.6526667      0.2            92.305518    
      7000   0.18829376     0.001287086    0.001287086    0              0             -238.90379      234.44732     -712.42699      0             -30.636001      0              0              9.5617336      9.662243       0.2            92.387794    
      7100   0.21788886     0.00107751     0.00107751     0              0              1366.6586      2030.4214      702.70333      0              555.65863      0              0              9.5607711      9.6564991      0.2            92.323577    
      7200   0.21055797     0.0013717771   0.0013717771   0              0              620.93388      2007.183      -765.49669      0              320.62407      0              0              9.5598085      9.664365       0.2            92.389479    
      7300   0.15952712     0.0013133639   0.0013133639   0              0              1320.3017      1928.4251      711.99395      0             -131.31123      0              0              9.558846       9.6599974      0.2            92.338427    
      7400   0.22555341     0.0012270995   0.0012270995   0              0              402.9336       1626.3064     -820.60847      0             -380.46053      0              0              9.5578835      9.6635236      0.2            92.362833    
      7500   0.25950015     0.0012472549   0.0012472549   0              0              1343.2686      1815.1191      871.20596      0              400.49592      0              0              9.5569209      9.6518091      0.2            92.241576    
      7600   0.2218685      0.0010520753   0.0010520753   0              0              307.06158      1501.0464     -887.0925       0              43.703125      0              0              9.5559584      9.659379       0.2            92.304624    
      7700   0.20725196     0.001554692    0.001554692    0              0              1006.143       1111.3337      900.81429      0             -950.83242      0              0              9.5549959      9.6514756      0.2            92.21981     
      7800   0.24254726     0.0013998258   0.0013998258   0              0              517.80155      1884.8332     -849.40574      0              165.36169      0              0              9.5540333      9.6590936      0.2            92.283302    
      7900   0.20324158     0.0011085963   0.0011085963   0              0              1416.6375      1928.7498      904.32762      0             -175.90264      0              0              9.5530708      9.6522377      0.2            92.20851     
      8000   0.21446334     0.0014685335   0.0014685335   0              0              942.74661      2731.2506     -845.91968      0              144.41428      0              0              9.5521082      9.6566543      0.2            92.241408    
      8100   0.18608285     0.0013757264   0.0013757264   0              0              1560.0922      2378.1504      741.84087      0             -359.48741      0              0              9.5511457      9.6498664      0.2            92.16728     
      8200   0.21766853     0.0012214764   0.0012214764   0              0              1013.9776      2716.7336     -688.98788      0              32.316968      0              0              9.5501832      9.6546699      0.2            92.203866    
      8300   0.18692858     0.0016307506   0.0016307506   0              0              1608.1823      2612.8108      603.38225      0             -408.59829      0              0              9.5492206      9.6473398      0.2            92.124577    
      8400   0.21260301     0.0011112829   0.0011112829   0              0              608.59663      1762.5242     -545.47419      0             -447.15807      0              0              9.5482581      9.66573        0.2            92.290885    
      8500   0.20245336     0.0012369583   0.0012369583   0              0              629.49883      772.90271      485.93717      0              528.54133      0              0              9.5472956      9.6514741      0.2            92.145476    
      8600   0.25305425     0.0011521971   0.0011521971   0              0              419.29353      1169.619      -331.2056       0             -648.42303      0              0              9.546333       9.6587635      0.2            92.205773    
      8700   0.23372108     0.0013842313   0.0013842313   0              0              245.05353      159.49971      330.42274      0              20.906726      0              0              9.5453705      9.6538359      0.2            92.149441    
      8800   0.21850719     0.0013155499   0.0013155499   0              0              88.758098      349.84487     -172.50833      0             -347.88419      0              0              9.544408       9.6495587      0.2            92.099324    
      8900   0.20519508     0.0012666487   0.0012666487   0              0              796.54816      1418.6822      174.2467       0             -248.34421      0              0              9.5434454      9.6525626      0.2            92.118705    
      9000   0.1921523      0.0012602685   0.0012602685   0              0              900.81686      1824.2635     -22.799505      0              15.893532      0              0              9.5424829      9.6614987      0.2            92.194686    
      9100   0.26647917     0.0015112979   0.0015112979   0              0              660.78937      1322.2721     -0.90400594     0             -691.94612      0              0              9.5415204      9.6549493      0.2            92.122895    
      9200   0.22227445     0.0015308804   0.0015308804   0              0              1137.4611      2271.8353      2.900572       0              32.778565      0              0              9.5405578      9.6540655      0.2            92.10517     
      9300   0.21436076     0.0015134653   0.0015134653   0              0              712.95627      1480.4872     -54.762084      0              911.44599      0              0              9.5395953      9.659387       0.2            92.146643    
      9400   0.15220852     0.0012214168   0.0012214168   0              0              472.09609      827.77139      116.19063      0              210.42924      0              0              9.5386327      9.65996        0.2            92.142811    
      9500   0.19210879     0.0010825149   0.0010825149   0              0              629.01652      1319.5457     -61.684441      0              147.6977       0              0              9.5376702      9.6580015      0.2            92.114833    
      9600   0.24514336     0.0013424876   0.0013424876   0              0              608.43834      1157.0317      59.662669      0             -458.65107      0              0              9.5367077      9.6550451      0.2            92.077343    
      9700   0.23308441     0.0013208587   0.0013208587   0              0              260.14222      655.75511     -135.63102      0             -89.394172      0              0              9.5357451      9.6565144      0.2            92.08206     
      9800   0.18745086     0.001143177    0.001143177    0              0              702.88693      1258.6746      146.95979      0             -170.08855      0              0              9.5347826      9.6548146      0.2            92.056559    
      9900   0.19750937     0.0014270776   0.0014270776   0              0              926.80532      1947.9111     -94.496249      0              153.39563      0              0              9.5338201      9.6461435      0.2            91.964596    
     10000   0.22136631     0.0011718447   0.0011718447   0              0              559.38076      1051.6137      66.901146      0              682.78473      0              0              9.5328575      9.6496107      0.2            91.988364    
     10100   0.16313648     0.0014453375   0.0014453375   0              0              336.06676      837.68413     -165.70653      0             -220.64768      0              0              9.531895       9.6464333      0.2            91.948789    
     10200   0.23442782     0.0012356231   0.0012356231   0              0              729.23342      1280.7239      177.52993      0              379.93933      0              0              9.5309325      9.6464002      0.2            91.939189    
     10300   0.25243572     0.001177485    0.001177485    0              0              325.9549       883.83104     -232.07677      0             -146.41788      0              0              9.5299699      9.6469836      0.2            91.935463    
     10400   0.17084957     0.0012388114   0.0012388114   0              0              1071.5922      2033.4454      109.59375      0              556.46253      0              0              9.5290074      9.6474908      0.2            91.931011    
     10500   0.21343262     0.0014354484   0.0014354484   0              0              685.90008      1605.044      -233.42102      0             -375.36921      0              0              9.5280449      9.6534501      0.2            91.978506    
     10600   0.21095611     0.0011656582   0.0011656582   0              0              1223.0131      2050.9839      394.89057      0              71.269034      0              0              9.5270823      9.6426588      0.2            91.866405    
     10700   0.19172144     0.0013463916   0.0013463916   0              0              758.21973      1831.7106     -315.44878      0             -213.05341      0              0              9.5261198      9.6496366      0.2            91.923594    
     10800   0.15925513     0.001301452    0.001301452    0              0              1246.521       2043.8641      448.98046      0             -144.6956       0              0              9.5251572      9.6440432      0.2            91.861028    
     10900   0.17553185     0.001241024    0.001241024    0              0              397.78579      1218.1129     -422.71316      0             -800.32597      0              0              9.5241947      9.6517268      0.2            91.924926    
     11000   0.21989392     0.0011937095   0.0011937095   0              0              877.66107      1234.5833      520.59668      0             -211.92463      0              0              9.5232322      9.6483781      0.2            91.883745    
     11100   0.17906844     0.0013432205   0.0013432205   0              0              363.74837      1362.5201     -635.20057      0              284.93134      0              0              9.5222696      9.6576577      0.2            91.96282     
     11200   0.18308441     0.0014322057   0.0014322057   0              0              1097.1019      1561.0706      632.93922      0             -33.329054      0              0              9.5213071      9.6542094      0.2            91.920692    
     11300   0.20156788     0.0013855061   0.0013855061   0              0             -128.54589      483.629       -740.89739      0              743.46824      0              0              9.5203446      9.6562554      0.2            91.930879    
     11400   0.21856478     0.001381803    0.001381803    0              0              1580.1513      2420.1073      739.9907       0              470.10769      0              0              9.519382       9.6457569      0.2            91.821645    
     11500   0.22170151     0.001501838    0.001501838    0              0              91.509607      1028.519      -845.67333      0             -102.91986      0              0              9.5184195      9.6489263      0.2            91.842528    
     11600   0.20045509     0.0015850943   0.0015850943   0              0              949.49427      973.41607      925.40935      0              17.211172      0              0              9.517457       9.6537533      0.2            91.879182    
     11700   0.21444633     0.0012873669   0.0012873669   0              0             -64.804661      886.88743     -1016.696       0             -65.579828      0              0              9.5164944      9.6605444      0.2            91.934517    
     11800   0.19978978     0.0015159732   0.0015159732   0              0              1543.7153      2061.8784      1025.4073      0              539.47265      0              0              9.5155319      9.6547592      0.2            91.870169    
     11900   0.26414171     0.0015327404   0.0015327404   0              0              539.65343      2034.9111     -955.7921       0             -104.58961      0              0              9.5145694      9.6609534      0.2            91.919811    
     12000   0.20365578     0.0017087881   0.0017087881   0              0              1785.5802      2689.2603      881.73277      0              373.10954      0              0              9.5136068      9.6543724      0.2            91.847903    
     12100   0.18431745     0.0013286338   0.0013286338   0              0              604.34242      2130.3748     -921.8447       0             -13.595113      0              0              9.5126443      9.6638611      0.2            91.928873    
     12200   0.17595421     0.0013143114   0.0013143114   0              0              1945.3805      2874.2464      1016.3358      0             -118.98856      0              0              9.5116817      9.6443498      0.2            91.733986    
     12300   0.18009647     0.0013901232   0.0013901232   0              0              440.31554      1783.3658     -902.89919      0             -515.72757      0              0              9.5107192      9.6560049      0.2            91.835552    
     12400   0.22424382     0.0013773917   0.0013773917   0              0              1473.0483      2080.7694      865.1366       0              248.75507      0              0              9.5097567      9.654862       0.2            91.815388    
     12500   0.18743725     0.0017177434   0.0017177434   0              0              708.72477      2139.4725     -722.19501      0             -25.115255      0              0              9.5087941      9.6629982      0.2            91.88346     
     12600   0.2230402      0.001438128    0.001438128    0              0              1347.558       2095.569       599.36698      0              640.68074      0              0              9.5078316      9.6529758      0.2            91.778869    
     12700   0.2190466      0.0017014453   0.0017014453   0              0              431.59028      1278.7268     -415.7296       0              578.88665      0              0              9.5068691      9.6543858      0.2            91.782982    
     12800   0.23157569     0.0013741798   0.0013741798   0              0              596.27335      948.85572      243.4891       0              363.18182      0              0              9.5059065      9.6563297      0.2            91.792167    
     12900   0.21721089     0.00139319     0.00139319     0              0              681.82844      1508.3299     -144.85747      0              559.98461      0              0              9.504944       9.6540543      0.2            91.761245    
     13000   0.22484298     0.0016225626   0.0016225626   0              0              1098.7693      2193.6417      3.7117083      0              316.3351       0              0              9.5039815      9.6607737      0.2            91.815814    
     13100   0.21680476     0.001693883    0.001693883    0              0              830.09333      1467.1919      192.78602      0             -139.20923      0              0              9.5030189      9.6593875      0.2            91.793342    
     13200   0.21781503     0.0014610194   0.0014610194   0              0              970.22585      2258.8001     -318.51868      0             -503.06365      0              0              9.5020564      9.6581996      0.2            91.772757    
     13300   0.2174174      0.0017327627   0.0017327627   0              0              1277.6563      2100.1414      454.99303      0             -117.44241      0              0              9.5010939      9.6525601      0.2            91.70988     
     13400   0.16831054     0.0014772774   0.0014772774   0              0             -221.87298      155.87397     -599.78786      0              398.65779      0              0              9.5001313      9.6620912      0.2            91.791136    
     13500   0.24297127     0.0014674414   0.0014674414   0              0              941.27992      1236.3821      646.01896      0             -102.93579      0              0              9.4991688      9.6624399      0.2            91.785148    
     13600   0.22227472     0.0017108218   0.0017108218   0              0             -424.53456     -228.38607     -620.88214      0              287.74686      0              0              9.4982062      9.668453       0.2            91.832961    
     13700   0.25607718     0.0014350334   0.0014350334   0              0              811.95012      1037.7268      586.01179      0              1446.9818      0              0              9.4972437      9.6516782      0.2            91.66434     
     13800   0.21619955     0.0017124505   0.0017124505   0              0              248.02798      1118.0729     -622.1987       0              798.80999      0              0              9.4962812      9.6509481      0.2            91.648117    
     13900   0.17450934     0.0013824011   0.0013824011   0              0              932.06519      1407.9553      455.97166      0             -109.52788      0              0              9.4953186      9.6500288      0.2            91.630099    
     14000   0.19692373     0.0014478528   0.0014478528   0              0              456.1968       1354.8875     -442.68093      0              196.03049      0              0              9.4943561      9.6602021      0.2            91.717399    
     14100   0.20256458     0.0017045596   0.0017045596   0              0              1497.988       2642.8472      352.93615      0              288.69626      0              0              9.4933936      9.6533574      0.2            91.643121    
     14200   0.17563788     0.0015389008   0.0015389008   0              0              501.18411      1272.8427     -270.6606       0             -9.3526656      0              0              9.492431       9.6524135      0.2            91.624869    
     14300   0.20421277     0.0014924617   0.0014924617   0              0              1206.3884      2094.0377      318.5774       0             -113.87751      0              0              9.4914685      9.6529601      0.2            91.620766    
     14400   0.16999856     0.0015680625   0.0015680625   0              0              934.77262      2201.9615     -332.58789      0             -239.3802       0              0              9.490506       9.6681095      0.2            91.755251    
     14500   0.21118747     0.0015462062   0.0015462062   0              0              931.78305      1623.8953      239.4826       0             -445.32865      0              0              9.4895434      9.6671683      0.2            91.737014    
     14600   0.21719461     0.0016012285   0.0016012285   0              0              877.70811      1942.3627     -187.13374      0             -330.49594      0              0              9.4885809      9.6773704      0.2            91.824512    
     14700   0.23683528     0.0016333046   0.0016333046   0              0              704.23129      1355.8145      52.481643      0             -121.45298      0              0              9.4876184      9.6722663      0.2            91.766771    
     14800   0.1561844      0.0015957691   0.0015957691   0              0              826.16665      1737.5459     -85.363836      0              110.82737      0              0              9.4866558      9.6628543      0.2            91.668173    
     14900   0.21275025     0.0015389021   0.0015389021   0              0              693.79214      1311.3821      76.02856       0             -55.72452       0              0              9.4856933      9.6607862      0.2            91.639255    
     15000   0.17724034     0.0017326033   0.0017326033   0              0              1233.5455      2381.1706      85.723029      0              582.84814      0              0              9.4847307      9.6552519      0.2            91.577464    
     15100   0.21611606     0.0016848433   0.0016848433   0              0              827.69266      1774.413      -119.20254      0              459.135        0              0              9.4837682      9.6609264      0.2            91.621987    
     15200   0.22047104     0.0017873444   0.0017873444   0              0              717.05755      1287.6819      146.28143      0             -153.72999      0              0              9.4828057      9.6659382      0.2            91.660213    
     15300   0.20458108     0.0016663907   0.0016663907   0              0              942.29727      2028.7921     -144.34217      0              698.30629      0              0              9.4818431      9.6648678      0.2            91.64076     
     15400   0.19489206     0.0018426403   0.0018426403   0              0              1043.641       1875.6201      211.46216      0              897.54166      0              0              9.4808806      9.6597108      0.2            91.582564    
     15500   0.23751976     0.0016937059   0.0016937059   0              0              494.18028      1255.6463     -267.4971       0              395.43594      0              0              9.4799181      9.6664382      0.2            91.637042    
     15600   0.21585709     0.0015973964   0.0015973964   0              0              1584.0519      2820.7939      347.15448      0              491.46558      0              0              9.4789555      9.6554753      0.2            91.523821    
     15700   0.22815648     0.0014990748   0.0014990748   0              0              984.08982      2319.3369     -351.31319      0              166.55913      0              0              9.477993       9.6614537      0.2            91.57119     
     15800   0.17495817     0.0019808229   0.0019808229   0              0              1564.7788      2779.2153      350.14356      0              193.32914      0              0              9.4770305      9.6534773      0.2            91.486299    
     15900   0.23102827     0.0015724331   0.0015724331   0              0              1085.5786      2433.7879     -262.7749       0              360.36131      0              0              9.4760679      9.6617874      0.2            91.555753    
     16000   0.22163124     0.0015218681   0.0015218681   0              0              1436.3197      2593.2032      279.2556       0              127.0208       0              0              9.4751054      9.6635968      0.2            91.563598    
     16100   0.18934302     0.0018291994   0.0018291994   0              0              1118.0465      2579.2276     -343.31538      0              357.3838       0              0              9.4741429      9.6649221      0.2            91.566853    
     16200   0.23795361     0.0019533921   0.0019533921   0              0              1305.6805      2172.4431      438.76788      0              516.85898      0              0              9.4731803      9.6653667      0.2            91.561762    
     16300   0.24508333     0.0017206106   0.0017206106   0              0              644.78192      1987.6799     -698.30543      0             -221.81672      0              0              9.4722178      9.6644397      0.2            91.543678    
     16400   0.2128708      0.0016946696   0.0016946696   0              0              1866.3178      3049.9156      682.49916      0             -254.14941      0              0              9.4712552      9.65416        0.2            91.437013    
     16500   0.17791655     0.0015514878   0.0015514878   0              0              248.84673      1286.8907     -789.35921      0             -777.12288      0              0              9.4702927      9.6616788      0.2            91.498926    
     16600   0.25406609     0.0016009755   0.0016009755   0              0              1706.9638      2655.7642      757.98377      0             -94.740459      0              0              9.4693302      9.6521449      0.2            91.399347    
     16700   0.18621686     0.0018248097   0.0018248097   0              0              426.33119      1612.1354     -759.65527      0             -386.67857      0              0              9.4683676      9.661529       0.2            91.478908    
     16800   0.21064191     0.0018290438   0.0018290438   0              0              1546.6541      2383.6588      709.49655      0              176.14564      0              0              9.4674051      9.6642358      0.2            91.495235    
     16900   0.2248291      0.0018942277   0.0018942277   0              0              651.49014      1908.2866     -605.44912      0              59.811662      0              0              9.4664426      9.664588       0.2            91.489267    
     17000   0.21603413     0.0019052023   0.0019052023   0              0              1416.3778      2254.5791      577.99348      0             -415.78821      0              0              9.46548        9.6569629      0.2            91.40779     
     17100   0.18104768     0.0018568828   0.0018568828   0              0              625.32851      1754.4772     -504.00312      0             -614.94349      0              0              9.4645175      9.6605711      0.2            91.432644    
     17200   0.2756409      0.0017440269   0.0017440269   0              0              1274.7759      2194           355.3865       0             -384.73152      0              0              9.463555       9.6612869      0.2            91.43012     
     17300   0.24555366     0.0018646834   0.0018646834   0              0              677.46491      1516.9258     -162.19676      0              490.031        0              0              9.4625924      9.6621664      0.2            91.429142    
     17400   0.22925512     0.0017359313   0.0017359313   0              0              739.20335      1481.9354     -3.708275       0             -219.80745      0              0              9.4616299      9.6636889      0.2            91.434248    
     17500   0.19274304     0.0018318844   0.0018318844   0              0              697.77739      1209.0707      186.34894      0              171.60512      0              0              9.4606674      9.6654252      0.2            91.441373    
     17600   0.20527331     0.0017291177   0.0017291177   0              0              689.21232      1746.162      -367.90166      0              495.39113      0              0              9.4597048      9.672083       0.2            91.49505     
     17700   0.17999744     0.001732272    0.001732272    0              0              1296.6924      2034.0888      559.14464      0              1032.674       0              0              9.4587423      9.669352       0.2            91.459908    
     17800   0.19164316     0.0019149099   0.0019149099   0              0             -67.719214      704.10893     -839.71266      0              538.0216       0              0              9.4577797      9.6773176      0.2            91.525938    
     17900   0.20383397     0.0016894181   0.0016894181   0              0              1759.2888      2439.0951      1079.2876      0              679.41755      0              0              9.4568172      9.6659387      0.2            91.409016    
     18000   0.18887851     0.0019600184   0.0019600184   0              0              162.74333      1647.5243     -1322.2226      0             -90.458461      0              0              9.4558547      9.6802965      0.2            91.535477    
     18100   0.2014935      0.0018171776   0.0018171776   0              0              2260.9154      3170.6523      1351.0029      0              352.24112      0              0              9.4548921      9.6652404      0.2            91.383806    
     18200   0.18194701     0.0021720965   0.0021720965   0              0              286.05237      1854.3621     -1282.43        0              841.35384      0              0              9.4539296      9.6743629      0.2            91.460746    
     18300   0.17220349     0.001914754    0.001914754    0              0              1736.2182      2144.0136      1328.2444      0              580.33395      0              0              9.4529671      9.6648698      0.2            91.361696    
     18400   0.20855539     0.0017831242   0.0017831242   0              0             -227.96904      771.46606     -1227.5682      0              399.45157      0              0              9.4520045      9.6771308      0.2            91.468285    
     18500   0.28691014     0.0018922263   0.0018922263   0              0              1786.6505      2488.1764      1084.9509      0             -385.49993      0              0              9.451042       9.659943       0.2            91.296527    
     18600   0.22256872     0.0021236096   0.0021236096   0              0              287.06539      1473.8011     -899.85189      0              94.01142       0              0              9.4500795      9.6714964      0.2            91.39641     
     18700   0.19385355     0.0016794455   0.0016794455   0              0              1117.509       1596.8122      638.04014      0              393.32508      0              0              9.4491169      9.676691       0.2            91.436185    
     18800   0.20363565     0.0016397763   0.0016397763   0              0              590.20301      1498.52       -318.25822      0              17.602065      0              0              9.4481544      9.673233       0.2            91.394199    
     18900   0.22016844     0.0021366207   0.0021366207   0              0              1150.0434      2341.8173     -41.915305      0              385.69262      0              0              9.4471919      9.6702969      0.2            91.35715     
     19000   0.2338565      0.0017116507   0.0017116507   0              0              1031.1746      1777.1891      284.98602      0              74.046819      0              0              9.4462293      9.6713724      0.2            91.358002    
     19100   0.21453002     0.00199453     0.00199453     0              0              879.18459      2345.399      -587.20586      0              797.23745      0              0              9.4452668      9.683158       0.2            91.460011    
     19200   0.24980814     0.0017930624   0.0017930624   0              0              2134.7697      3490.5999      778.7455       0              752.02168      0              0              9.4443042      9.6764654      0.2            91.387483    
     19300   0.19638007     0.0022465584   0.0022465584   0              0              624.80872      2044.2642     -794.81656      0             -60.643113      0              0              9.4433417      9.684744       0.2            91.456347    
     19400   0.19724022     0.0020387755   0.0020387755   0              0              1377.5292      1926.1014      828.77057      0              867.67295      0              0              9.4423792      9.6746164      0.2            91.351396    
     19500   0.21066127     0.0019112446   0.0019112446   0              0              1161.2318      3084.2216     -761.93329      0             -46.704637      0              0              9.4414166      9.6786957      0.2            91.380598    
     19600   0.19726583     0.0021818842   0.0021818842   0              0              1226.9727      1706.7875      746.96271      0             -298.54745      0              0              9.4404541      9.6808207      0.2            91.391343    
     19700   0.20048168     0.0020909817   0.0020909817   0              0              427.7976       1619.1829     -763.77153      0              1018.4823      0              0              9.4394916      9.6913592      0.2            91.481503    
     19800   0.22547024     0.0022385755   0.0022385755   0              0              1502.0529      2430.5092      573.39894      0              162.575        0              0              9.438529       9.6767582      0.2            91.334363    
     19900   0.21746103     0.0023108442   0.0023108442   0              0              248.83128      1017.0013     -519.53064      0             -205.04712      0              0              9.4375665      9.6802382      0.2            91.357892    
     20000   0.20871031     0.002081455    0.002081455    0              0              1036.0058      1779.5084      292.34516      0              461.3383       0              0              9.436604       9.6821152      0.2            91.366286    
     20100   0.22832537     0.0021001202   0.0021001202   0              0              1037.45        2293.4936     -218.76099      0              621.74473      0              0              9.4356414      9.6893013      0.2            91.424773    
     20200   0.19450264     0.0021841661   0.0021841661   0              0              916.40205      1838.3759     -5.7608818      0              130.7484       0              0              9.4346789      9.6817174      0.2            91.343895    
     20300   0.22221067     0.0019698738   0.0019698738   0              0              944.00691      1558.0872      329.77675      0              286.22458      0              0              9.4337164      9.6778008      0.2            91.297627    
     20400   0.15100239     0.0019740609   0.0019740609   0              0              432.96149      1300.3888     -434.61663      0              91.96159       0              0              9.4327538      9.6850044      0.2            91.356262    
     20500   0.17416995     0.001884378    0.001884378    0              0              1427.0162      2258.7706      595.0706       0              280.01155      0              0              9.4317913      9.6867106      0.2            91.363033    
     20600   0.20843496     0.0020505403   0.0020505403   0              0              891.95844      2398.069      -614.34118      0              686.31706      0              0              9.4308287      9.6976457      0.2            91.456836    
     20700   0.28067727     0.0023644707   0.0023644707   0              0              1473.7192      2325.8826      621.35412      0              443.97923      0              0              9.4298662      9.6879279      0.2            91.355864    
     20800   0.23758305     0.0021697644   0.0021697644   0              0              474.5616       1514.7129     -565.79568      0              787.0171       0              0              9.4289037      9.69119        0.2            91.377297    
     20900   0.21762983     0.0020102712   0.0020102712   0              0              1095.9103      1616.4446      575.24106      0              22.118315      0              0              9.4279411      9.6865906      0.2            91.324606    
     21000   0.24311935     0.0024366764   0.0024366764   0              0              1029.7609      2490.087      -430.75942      0             -338.70991      0              0              9.4269786      9.686784       0.2            91.317105    
     21100   0.25964946     0.0021962139   0.0021962139   0              0              1046.4653      1882.9414      209.7966       0             -45.493512      0              0              9.4260161      9.6886354      0.2            91.325233    
     21200   0.16628703     0.0021718999   0.0021718999   0              0              1517.7565      2946.8516      88.451496      0              584.53017      0              0              9.4250535      9.6847346      0.2            91.279142    
     21300   0.15909596     0.0023114869   0.0023114869   0              0              1238.4666      2802.4168     -325.66301      0              1054.6722      0              0              9.424091       9.6894934      0.2            91.314668    
     21400   0.22492746     0.0022050819   0.0022050819   0              0              1615.9043      2794.0494      437.56096      0              461.66203      0              0              9.4231285      9.6802319      0.2            91.218069    
     21500   0.26307119     0.0024356155   0.0024356155   0              0              608.27806      1761.2817     -544.95395      0              806.54072      0              0              9.4221659      9.6876678      0.2            91.278814    
     21600   0.22637588     0.002463876    0.002463876    0              0              2175.7499      3763.4633      587.87467      0              608.98474      0              0              9.4212034      9.6752389      0.2            91.152394    
     21700   0.24260753     0.0024549389   0.0024549389   0              0              790.84004      2185.0152     -603.48275      0              275.3388       0              0              9.4202409      9.6806096      0.2            91.193674    
     21800   0.24923869     0.0021730639   0.0021730639   0              0              1234.3136      1942.9247      525.53254      0              270.51356      0              0              9.4192783      9.6740431      0.2            91.122504    
     21900   0.18585761     0.0021690365   0.0021690365   0              0              698.13564      1876.6356     -480.57103      0              283.64718      0              0              9.4183158      9.6786378      0.2            91.156467    
     22000   0.21947373     0.0021925786   0.0021925786   0              0              1174.0309      2011.7553      336.11684      0             -462.22991      0              0              9.4173532      9.6686902      0.2            91.053471    
     22100   0.21718721     0.0022791445   0.0022791445   0              0              723.4746       1669.297      -222.49804      0             -203.1193       0              0              9.4163907      9.6693279      0.2            91.050169    
     22200   0.17174911     0.0023835218   0.0023835218   0              0              1655.5521      3136.0933      174.82203      0              211.28894      0              0              9.4154282      9.6722301      0.2            91.068188    
     22300   0.21911641     0.0023782926   0.0023782926   0              0              1638.1147      3345.1743     -69.115262      0             -5.1128511      0              0              9.4144656      9.6738962      0.2            91.074563    
     22400   0.17834549     0.0024329326   0.0024329326   0              0              1386.9658      2945.0686     -171.30996      0              520.98669      0              0              9.4135031      9.6718508      0.2            91.045997    
     22500   0.2184263      0.0021610974   0.0021610974   0              0              1686.4952      3088.6739      284.13225      0              226.99338      0              0              9.4125406      9.6675231      0.2            90.995954    
     22600   0.20625524     0.0023583718   0.0023583718   0              0              933.75442      2250.2076     -382.91314      0              81.962256      0              0              9.411578       9.67058        0.2            91.015418    
     22700   0.23103062     0.0021896192   0.0021896192   0              0              1485.8675      2494.6858      476.85607      0             -139.69233      0              0              9.4106155      9.6699077      0.2            90.999783    
     22800   0.22153863     0.002299297    0.002299297    0              0              609.96452      1780.618      -560.86817      0              323.84714      0              0              9.409653       9.6793633      0.2            91.079449    
     22900   0.23133886     0.0024784757   0.0024784757   0              0              1255.1688      1963.985       546.16875      0              336.13978      0              0              9.4086904      9.6778828      0.2            91.056203    
     23000   0.19958133     0.0025464719   0.0025464719   0              0              5.1924731      543.68147     -533.45162      0              495.17095      0              0              9.4077279      9.6818008      0.2            91.083747    
     23100   0.19265005     0.002577627    0.002577627    0              0              1421.4036      2446.0591      396.56161      0              345.36399      0              0              9.4067654      9.6705736      0.2            90.968817    
     23200   0.19251703     0.0023737374   0.0023737374   0              0              228.47053      701.37514     -244.61996      0              15.902034      0              0              9.4058028      9.6850133      0.2            91.095325    
     23300   0.22267943     0.0023002966   0.0023002966   0              0              834.57977      1530.4888      138.49424      0              205.85394      0              0              9.4048403      9.6825941      0.2            91.063251    
     23400   0.21676184     0.0022460047   0.0022460047   0              0              850.93685      1770.647      -68.934304      0              381.28758      0              0              9.4038777      9.6814741      0.2            91.043399    
     23500   0.17460833     0.0022652426   0.0022652426   0              0              839.81408      1785.6322     -106.1367       0              335.11089      0              0              9.4029152      9.6813938      0.2            91.033325    
     23600   0.19804028     0.0022344036   0.0022344036   0              0              1214.4902      2228.009       200.81216      0              95.465008      0              0              9.4019527      9.6838683      0.2            91.047272    
     23700   0.19340631     0.0022273601   0.0022273601   0              0              1119.5907      2452.812      -213.82312      0              514.33763      0              0              9.4009901      9.6878942      0.2            91.075798    
     23800   0.26159237     0.0022838199   0.0022838199   0              0              1198.7313      2070.2368      327.03069      0              339.75738      0              0              9.4000276      9.6854639      0.2            91.043628    
     23900   0.18931671     0.0023220008   0.0023220008   0              0              803.45768      1875.9608     -269.23087      0              653.58695      0              0              9.3990651      9.678581       0.2            90.969613    
     24000   0.15980396     0.0023247999   0.0023247999   0              0              501.13759      790.74807      211.33644      0              1056.2049      0              0              9.3981025      9.6788955      0.2            90.963252    
     24100   0.18767301     0.0023887911   0.0023887911   0              0              730.14198      1640.4083     -180.31252      0              903.85252      0              0              9.39714        9.6774441      0.2            90.940297    
     24200   0.17762325     0.0022060829   0.0022060829   0              0              746.89912      1269.8047      223.82471      0              1091.5782      0              0              9.3961775      9.6713973      0.2            90.874166    
     24300   0.23091592     0.002350977    0.002350977    0              0              386.34919      907.38181     -134.87237      0              677.36038      0              0              9.3952149      9.6740561      0.2            90.889836    
     24400   0.16842586     0.0023327588   0.0023327588   0              0              976.75682      1856.2128      97.112408      0              735.9249       0              0              9.3942524      9.6781279      0.2            90.918777    
     24500   0.2469171      0.0024018461   0.0024018461   0              0              504.86453      936.55312      72.973654      0              26.931106      0              0              9.3932899      9.6881889      0.2            91.003967    
     24600   0.21282368     0.0022828294   0.0022828294   0              0              423.88178      977.87975     -130.28029      0              410.71942      0              0              9.3923273      9.6881332      0.2            90.994119    
     24700   0.1710485      0.0023354802   0.0023354802   0              0              1218.0551      2119.8983      316.01948      0              599.38987      0              0              9.3913648      9.6841135      0.2            90.947043    
     24800   0.22208007     0.0023060557   0.0023060557   0              0              808.40495      1975.6004     -358.93428      0              1021.7495      0              0              9.3904022      9.6866997      0.2            90.962007    
     24900   0.19693589     0.0024625134   0.0024625134   0              0              1179.0276      1998.7922      359.078        0              870.03         0              0              9.3894397      9.6877137      0.2            90.962204    
     25000   0.19537124     0.0025201093   0.0025201093   0              0              402.25213      1117.7282     -313.43029      0              974.92833      0              0              9.3884772      9.6946991      0.2            91.018461    
     25100   0.20025813     0.0023611619   0.0023611619   0              0              1617.0081      2884.2931      349.54792      0              663.89869      0              0              9.3875146      9.6849626      0.2            90.917729    
     25200   0.2120409      0.0024778061   0.0024778061   0              0              1295.2082      3028.8489     -438.59359      0              1023.4934      0              0              9.3865521      9.6856219      0.2            90.914594    
     25300   0.15122344     0.0024756256   0.0024756256   0              0              1889.5058      3424.4736      354.35201      0              1143.8065      0              0              9.3855896      9.6895169      0.2            90.941829    
     25400   0.15919571     0.002373193    0.002373193    0              0              727.93799      1672.2492     -216.53994      0              798.54006      0              0              9.384627       9.6871708      0.2            90.910485    
     25500   0.18861327     0.0023234126   0.0023234126   0              0              957.89003      1924.5014     -8.8933439      0              333.47046      0              0              9.3836645      9.6908934      0.2            90.936093    
     25600   0.18681334     0.0023625363   0.0023625363   0              0              1023.7396      1846.096       201.17665      0              715.54537      0              0              9.382702       9.6903477      0.2            90.921644    
     25700   0.21786009     0.0023971321   0.0023971321   0              0              414.7585       1272.0795     -442.73105      0              967.18804      0              0              9.3817394      9.6909697      0.2            90.918152    
     25800   0.23084731     0.0024776502   0.0024776502   0              0              931.24033      1257.3876      604.91249      0              1481.1902      0              0              9.3807769      9.694755       0.2            90.944333    
     25900   0.24298946     0.0026889686   0.0026889686   0              0             -27.205824      654.83506     -709.44168      0              738.46161      0              0              9.3798144      9.6984993      0.2            90.970123    
     26000   0.18477003     0.0027068909   0.0027068909   0              0              1304.6447      1910.7288      698.37656      0              1245.8426      0              0              9.3788518      9.6876792      0.2            90.859307    
     26100   0.15865355     0.0025776965   0.0025776965   0              0             -269.61237      124.60121     -663.99975      0              810.96726      0              0              9.3778893      9.6863683      0.2            90.83769     
     26200   0.20170604     0.0024677398   0.0024677398   0              0              993.57811      1313.6901      673.30176      0              493.85552      0              0              9.3769267      9.6876227      0.2            90.840129    
     26300   0.2124559      0.0024261359   0.0024261359   0              0             -35.281823      433.32871     -504.05248      0              653.02558      0              0              9.3759642      9.6908574      0.2            90.861132    
     26400   0.19736039     0.0024167415   0.0024167415   0              0              1090.4658      2003.8871      176.85468      0              961.82091      0              0              9.3750017      9.6911249      0.2            90.854312    
     26500   0.22566578     0.0025833677   0.0025833677   0              0              772.1625       1238.2987      305.87855      0              1221.3973      0              0              9.3740391      9.6826682      0.2            90.765711    
     26600   0.22317933     0.002452234    0.002452234    0              0             -234.3673       385.79472     -854.68826      0              931.06964      0              0              9.3730766      9.695596       0.2            90.877564    
     26700   0.23128146     0.0026541233   0.0026541233   0              0              1951.1937      2547.7544      1354.4526      0              1018.918       0              0              9.3721141      9.6851921      0.2            90.770725    
     26800   0.18375859     0.0024100656   0.0024100656   0              0             -182.70833      1341.7835     -1707.3769      0              542.69769      0              0              9.3711515      9.7017559      0.2            90.916625    
     26900   0.19722254     0.0024453781   0.0024453781   0              0              2356.7203      2970.9106      1742.3754      0              159.35745      0              0              9.370189       9.6842129      0.2            90.742905    
     27000   0.21035297     0.0026911148   0.0026911148   0              0             -37.355532      1322.9071     -1397.816       0              419.4804       0              0              9.3692265      9.6993646      0.2            90.875543    
     27100   0.20799941     0.0025598278   0.0025598278   0              0              1142.9338      1496.1614      789.56064      0              429.87129      0              0              9.3682639      9.6891957      0.2            90.770943    
     27200   0.16734142     0.002605602    0.002605602    0              0              972.111        2039.7775     -95.755317      0              851.44384      0              0              9.3673014      9.6923979      0.2            90.791612    
     27300   0.24360152     0.0025112655   0.0025112655   0              0              695.74147      1950.4264     -559.11917      0              331.91535      0              0              9.3663389      9.6939687      0.2            90.796995    
     27400   0.17849547     0.0026773422   0.0026773422   0              0              1706.8354      2281.5706      1131.9333      0              1179.3748      0              0              9.3653763      9.685069       0.2            90.704315    
     27500   0.20571045     0.0025994625   0.0025994625   0              0              647.97671      2601.728      -1305.9484      0              671.05156      0              0              9.3644138      9.6988981      0.2            90.824495    
     27600   0.19602229     0.0028902871   0.0028902871   0              0              1794.5697      2302.8698      1286.057       0             -5.9139501      0              0              9.3634512      9.6900635      0.2            90.732437    
     27700   0.22245092     0.0024758789   0.0024758789   0              0              573.2257       2169.1785     -1022.9285      0              184.04099      0              0              9.3624887      9.7012214      0.2            90.827576    
     27800   0.18453918     0.0026687229   0.0026687229   0              0              1608.9508      2586.7538      630.98823      0              793.61775      0              0              9.3615262      9.695629       0.2            90.765884    
     27900   0.19967393     0.0027042528   0.0027042528   0              0              1256.0053      2623.125      -111.28786      0              764.58882      0              0              9.3605636      9.6966564      0.2            90.766169    
     28000   0.20080737     0.0026217728   0.0026217728   0              0              923.39899      2030.9159     -184.29999      0              216.45061      0              0              9.3596011      9.6992342      0.2            90.780963    
     28100   0.19729567     0.0027154554   0.0027154554   0              0              1721.4484      2948.1133      494.55803      0              458.66833      0              0              9.3586386      9.6950749      0.2            90.732702    
[...]
     43100   0.21422336     0.0027922638   0.0027922638   0              0              186.31808      476.73515     -104.28051      0              477.78481      0              0              9.2142582      9.6792917      0.2            89.187493    
     43200   0.17575742     0.0030990434   0.0030990434   0              0              710.45327      1213.8236      206.88482      0              13.534814      0              0              9.2132957      9.6714766      0.2            89.106173    
     43300   0.16814824     0.0029787024   0.0029787024   0              0              269.78579      859.38796     -319.99996      0              299.2793       0              0              9.2123331      9.6802211      0.2            89.177422    
     43400   0.17932304     0.0029736537   0.0029736537   0              0              364.95138      575.95894      153.77368      0              535.16529      0              0              9.2113706      9.6793126      0.2            89.159736    
     43500   0.17820745     0.0030363528   0.0030363528   0              0              644.46159      1238.4398      50.291711      0              973.72546      0              0              9.2104081      9.6808614      0.2            89.164684    
     43600   0.1764529      0.0027917671   0.0027917671   0              0              160.85593      549.12651     -227.57273      0              366.7995       0              0              9.2094455      9.6827111      0.2            89.1724      
     43700   0.16764134     0.0028230175   0.0028230175   0              0              761.76253      1151.5811      371.77811      0             -10.291291      0              0              9.208483       9.6742774      0.2            89.085419    
     43800   0.1630969      0.0029601983   0.0029601983   0              0             -202.43501     -201.47796     -203.56319      0             -52.4432        0              0              9.2075205      9.6759961      0.2            89.091932    
     43900   0.2306477      0.0029114517   0.0029114517   0              0              749.07689      1337.9791      160.00858      0              444.36988      0              0              9.2065579      9.6811381      0.2            89.129958    
     44000   0.17735899     0.0027748575   0.0027748575   0              0              591.96844      1112.4944      71.269163      0              95.322765      0              0              9.2055954      9.6801011      0.2            89.111094    
     44100   0.23359143     0.002923367    0.002923367    0              0              209.68139      653.9209      -234.72869      0              132.46841      0              0              9.2046329      9.6817971      0.2            89.117388    
     44200   0.17066864     0.002741491    0.002741491    0              0              768.13693      1190.5772      345.49648      0              157.96721      0              0              9.2036703      9.6828181      0.2            89.117465    
     44300   0.18611706     0.002883243    0.002883243    0              0              159.24973      688.23512     -369.90746      0              342.32786      0              0              9.2027078      9.6841651      0.2            89.120542    
     44400   0.17705725     0.0027134487   0.0027134487   0              0              638.57522      943.02722      333.92695      0              778.6805       0              0              9.2017452      9.685373       0.2            89.122335    
     44500   0.210132       0.002740236    0.002740236    0              0              289.52772      642.46914     -63.601619      0             -296.80842      0              0              9.2007827      9.6855186      0.2            89.114352    
     44600   0.21431205     0.0027383033   0.0027383033   0              0              178.37892      574.33795     -217.74883      0              884.06357      0              0              9.1998202      9.6874471      0.2            89.122771    
     44700   0.18539461     0.0028877881   0.0028877881   0              0              165.27463     -163.85267      494.23906      0              349.58814      0              0              9.1988576      9.6811372      0.2            89.055403    
     44800   0.19352008     0.0029996792   0.0029996792   0              0              244.36758      1022.161      -533.59477      0             -127.91354      0              0              9.1978951      9.6824648      0.2            89.058295    
     44900   0.20859523     0.0028416251   0.0028416251   0              0              607.7718       804.01971      411.3189       0              141.58765      0              0              9.1969326      9.6861714      0.2            89.083065    
     45000   0.18030083     0.0027090369   0.0027090369   0              0              167.24119      489.34897     -155.05464      0              535.18238      0              0              9.19597        9.6830688      0.2            89.04521     
     45100   0.17516381     0.0029736356   0.0029736356   0              0             -236.13903     -371.70647     -100.72301      0              717.56444      0              0              9.1950075      9.6869898      0.2            89.071944    
     45200   0.23827183     0.002732479    0.002732479    0              0              201.6868       64.297764      338.89014      0              693.83971      0              0              9.194045       9.6835454      0.2            89.030951    
     45300   0.24860957     0.002572448    0.002572448    0              0             -450.14396     -430.35675     -470.12024      0              629.43883      0              0              9.1930824      9.6895097      0.2            89.076461    
     45400   0.17472777     0.0029404      0.0029404      0              0              309.70949      250.77415      368.47682      0              456.19123      0              0              9.1921199      9.6756622      0.2            88.939847    
     45500   0.19127936     0.0028865365   0.0028865365   0              0             -499.36611     -845.45786     -153.49627      0              506.32137      0              0              9.1911574      9.68299        0.2            88.997885    
     45600   0.14321644     0.0027560265   0.0027560265   0              0              217.0749       546.10383     -112.14215      0              726.24507      0              0              9.1901948      9.6858132      0.2            89.01451     
     45700   0.21740618     0.0028405045   0.0028405045   0              0              246.65716      232.69814      260.42119      0              1129.7746      0              0              9.1892323      9.6846463      0.2            88.994465    
     45800   0.18679438     0.0026717577   0.0026717577   0              0             -464.71185     -425.87011     -503.74756      0              838.88578      0              0              9.1882697      9.687044       0.2            89.007173    
     45900   0.21384938     0.0026680282   0.0026680282   0              0             -65.187939     -476.79525      346.27939      0              414.94517      0              0              9.1873072      9.6859971      0.2            88.988231    
     46000   0.20825641     0.0027093717   0.0027093717   0              0              27.7443        72.290608     -17.021208      0             -80.158049      0              0              9.1863447      9.6929477      0.2            89.042758    
     46100   0.25016163     0.0025591913   0.0025591913   0              0              383.87787      942.77838     -175.23502      0              663.11919      0              0              9.1853821      9.6893449      0.2            89.000335    
     46200   0.18202806     0.0027165373   0.0027165373   0              0              499.56297      667.1074       331.83051      0              231.3006       0              0              9.1844196      9.6786486      0.2            88.89277     
     46300   0.28013778     0.0027303531   0.0027303531   0              0              188.53497      748.77871     -371.91937      0              268.72993      0              0              9.1834571      9.6927399      0.2            89.012861    
     46400   0.22531164     0.002721695    0.002721695    0              0              243.39191      178.26116      308.35565      0             -412.14669      0              0              9.1824945      9.6842837      0.2            88.925882    
     46500   0.21638751     0.0028966288   0.0028966288   0              0              376.59019      924.18505     -171.17765      0              506.87082      0              0              9.181532       9.6844738      0.2            88.918306    
     46600   0.25064076     0.0027179535   0.0027179535   0              0              702.57795      1333.7559      71.237914      0              811.42643      0              0              9.1805695      9.6880239      0.2            88.941576    
     46700   0.19339567     0.0026360593   0.0026360593   0              0              328.9501       693.2745      -35.541122      0              664.86006      0              0              9.1796069      9.6924938      0.2            88.973283    
     46800   0.21730501     0.0027348991   0.0027348991   0              0              296.4672       753.33973     -160.58267      0              510.97929      0              0              9.1786444      9.6922035      0.2            88.961289    
     46900   0.19767328     0.0026587872   0.0026587872   0              0              329.27692      255.3404       402.99897      0              188.89604      0              0              9.1776819      9.6808044      0.2            88.847343    
     47000   0.20686279     0.0027562724   0.0027562724   0              0              344.73096      1053.8941     -364.60648      0              155.59873      0              0              9.1767193      9.6923303      0.2            88.943795    
     47100   0.22276346     0.0030510847   0.0030510847   0              0              313.15129      345.51094      280.59491      0              110.32521      0              0              9.1757568      9.6774769      0.2            88.798174    
     47200   0.16344357     0.0028315617   0.0028315617   0              0              703.04356      1444.6891     -38.798332      0              122.5657       0              0              9.1747942      9.6842013      0.2            88.850555    
     47300   0.20584194     0.0029474025   0.0029474025   0              0              717.96156      1441.579      -5.8392209      0              192.98959      0              0              9.1738317      9.6847982      0.2            88.846709    
     47400   0.22969196     0.0027492596   0.0027492596   0              0              420.37537      728.33607      112.25526      0              184.2681       0              0              9.1728692      9.6900914      0.2            88.885941    
     47500   0.21660088     0.0026081023   0.0026081023   0              0              495.23747      1178.8937     -188.61631      0              633.99983      0              0              9.1719066      9.6895327      0.2            88.87149     
     47600   0.18373863     0.002937497    0.002937497    0              0             -66.567831     -414.83232      281.53483      0             -141.88691      0              0              9.1709441      9.6874527      0.2            88.843087    
     47700   0.22490319     0.002736588    0.002736588    0              0              252.49172      873.74885     -368.9225       0             -24.667045      0              0              9.1699816      9.6887793      0.2            88.845928    
     47800   0.23076079     0.0030097996   0.0030097996   0              0              557.30311      838.37155      276.05238      0              275.36895      0              0              9.169019       9.6898243      0.2            88.846184    
     47900   0.18541252     0.0026282525   0.0026282525   0              0              149.39201      342.05707     -43.484182      0             -44.797613      0              0              9.1680565      9.6818052      0.2            88.763337    
     48000   0.19119633     0.0029589186   0.0029589186   0              0              265.21593      915.34111     -385.08796      0              305.62824      0              0              9.167094       9.68362        0.2            88.770655    
     48100   0.21029823     0.00255645     0.00255645     0              0              778.8975       771.59099      786.03042      0              737.35123      0              0              9.1661314      9.6817927      0.2            88.744584    
     48200   0.19070089     0.0028247987   0.0028247987   0              0             -352.32585      77.510043     -782.34449      0              421.05102      0              0              9.1651689      9.694422       0.2            88.851015    
     48300   0.20408107     0.0028762912   0.0028762912   0              0              1063.8917      1436.8005      690.80876      0              448.02959      0              0              9.1642064      9.6874132      0.2            88.777453    
     48400   0.18471842     0.0029288123   0.0029288123   0              0             -291.02257     -373.16742     -209.13374      0             -286.64536      0              0              9.1632438      9.6909211      0.2            88.800273    
     48500   0.21011345     0.0026509706   0.0026509706   0              0              625.3775       1610.5927     -359.99782      0              570.75241      0              0              9.1622813      9.689386       0.2            88.77688     
     48600   0.19562979     0.0028532171   0.0028532171   0              0              899.46233      822.02449      976.67899      0             -466.29718      0              0              9.1613187      9.6849169      0.2            88.726611    
     48700   0.24207218     0.0027658195   0.0027658195   0              0             -426.97421      398.07771     -1252.1962      0             -68.36233       0              0              9.1603562      9.6980841      0.2            88.837905    
     48800   0.17372074     0.0028254873   0.0028254873   0              0              1069.2359      1152.0876      986.21102      0             -529.00274      0              0              9.1593937      9.6883571      0.2            88.739477    
     48900   0.24819723     0.0027457361   0.0027457361   0              0              442.93084      1031.9526     -146.26916      0              375.67135      0              0              9.1584311      9.6919966      0.2            88.763484    
     49000   0.20438457     0.0028608937   0.0028608937   0              0              86.3979        908.10361     -735.50292      0             -416.75445      0              0              9.1574686      9.6922019      0.2            88.756034    
     49100   0.25133184     0.0028812148   0.0028812148   0              0              1196.9316      1064.6797      1328.9658      0             -340.28976      0              0              9.1565061      9.6793384      0.2            88.628921    
     49200   0.20999227     0.0027253504   0.0027253504   0              0             -603.01845      267.54361     -1473.7903      0             -13.315153      0              0              9.1555435      9.6792358      0.2            88.618664    
     49300   0.19451918     0.0028657728   0.0028657728   0              0              150.35674     -714.17626      1014.6984      0              221.03492      0              0              9.154581       9.6739578      0.2            88.56103     
     49400   0.23576539     0.0028263755   0.0028263755   0              0              370.94019      933.39215     -191.6878       0             -218.12589      0              0              9.1536185      9.6832057      0.2            88.636371    
     49500   0.20890536     0.0026983955   0.0026983955   0              0             -370.79515     -15.843567     -725.93285      0              226.26857      0              0              9.1526559      9.6919514      0.2            88.707096    
     49600   0.25770504     0.0025016468   0.0025016468   0              0              1247.2503      1346.0745      1148.2504      0              370.73322      0              0              9.1516934      9.677775       0.2            88.568029    
     49700   0.21207341     0.0028577811   0.0028577811   0              0             -583.05024      79.215718     -1245.4954      0              268.92711      0              0              9.1507309      9.686739       0.2            88.640741    
     49800   0.19739437     0.0028390555   0.0028390555   0              0              1103.4494      1364.4103      842.32039      0             -193.31895      0              0              9.1497683      9.6753645      0.2            88.527343    
     49900   0.23783397     0.0028912322   0.0028912322   0              0              402.89029      997.8849      -192.26786      0              428.60381      0              0              9.1488058      9.6817851      0.2            88.576772    
     50000   0.22636156     0.0029059073   0.0029059073   0              0              407.73967      1237.5131     -422.21392      0              270.61499      0              0              9.1478432      9.6771963      0.2            88.525475    
     50100   0.23223849     0.0027591694   0.0027591694   0              0              642.82606      472.31555      813.16186      0              571.78435      0              0              9.1468807      9.6685548      0.2            88.437117    
     50200   0.16482713     0.0027683588   0.0027683588   0              0             -746.93963     -537.64478     -956.43108      0              1241.2498      0              0              9.1459182      9.6818063      0.2            88.549008    
     50300   0.24444811     0.0027581945   0.0027581945   0              0              376.25571     -16.28272       768.56795      0              49.231882      0              0              9.1449556      9.6760168      0.2            88.486744    
     50390   0.18578913     0.0028319234   0.0028319234   0              0              777.70915      655.68238      899.58173      0             -82.922745      0              0              9.1440894      9.6744015      0.2            88.463591    
Loop time of 1.09022 on 1 procs for 50000 steps with 59 atoms

Performance: 39624.942 ns/day, 0.001 hours/ns, 45862.202 timesteps/s
98.9% CPU use with 1 MPI tasks x 1 OpenMP threads

MPI task timing breakdown:
Section |  min time  |  avg time  |  max time  |%varavg| %total
---------------------------------------------------------------
Pair    | 0          | 0          | 0          |   0.0 |  0.00
Bond    | 0.17081    | 0.17081    | 0.17081    |   0.0 | 15.67
Neigh   | 0          | 0          | 0          |   0.0 |  0.00
Comm    | 0.35987    | 0.35987    | 0.35987    |   0.0 | 33.01
Output  | 0.0066909  | 0.0066909  | 0.0066909  |   0.0 |  0.61
Modify  | 0.52649    | 0.52649    | 0.52649    |   0.0 | 48.29
Other   |            | 0.02636    |            |       |  2.42

Nlocal:             59 ave          59 max          59 min
Histogram: 1 0 0 0 0 0 0 0 0 0
Nghost:            503 ave         503 max         503 min
Histogram: 1 0 0 0 0 0 0 0 0 0
Neighs:              0 ave           0 max           0 min
Histogram: 1 0 0 0 0 0 0 0 0 0

Total # of neighbors = 0
Ave neighs/atom = 0
Ave special neighs/atom = 24.101695
Neighbor list builds = 0
Dangerous builds = 0


Total wall time: 0:00:01
