ITEM: TIMESTEP
500
ITEM: NUMBER OF ATOMS
50
ITEM: BOX BOUNDS pp pp pp
-4.8342763787154999e+00 4.8342763787154999e+00
-4.8367940107616789e+00 4.8367940107616789e+00
-1.0000000000000001e-01 1.0000000000000001e-01
ITEM: ATOMS id type xs ys zs
8 1 0.0636774 0.0916164 0.499824
1 1 0.219381 0.0722331 0.499189
41 1 0.425005 0.026808 0.499636
16 1 0.592229 0.0457598 0.500428
13 1 0.876371 0.0636529 0.49928
77 1 0.0400329 0.196061 0.500791
29 1 0.32847 0.16078 0.498684
20 1 0.485238 0.14254 0.499229
44 1 0.54006 0.24111 0.499821
5 1 0.660901 0.171036 0.498868
66 1 0.786683 0.125717 0.500387
21 1 0.828823 0.20205 0.500094
35 1 0.945068 0.160569 0.50149
69 1 0.03854 0.255767 0.500384
53 1 0.0793728 0.313214 0.499684
10 1 0.149612 0.217419 0.5006
33 1 0.265959 0.27123 0.499639
7 1 0.41272 0.275171 0.499404
3 1 0.645413 0.313042 0.498981
79 1 0.737706 0.249253 0.501211
39 1 0.933142 0.284718 0.50014
56 1 0.00174432 0.364966 0.502207
6 1 0.216998 0.405386 0.500932
60 1 0.362203 0.389651 0.499345
62 1 0.443808 0.368964 0.500904
54 1 0.520014 0.339709 0.499356
12 1 0.589594 0.462116 0.501901
55 1 0.717459 0.424141 0.500371
36 1 0.791497 0.336879 0.501654
70 1 0.879944 0.363091 0.500969
4 1 0.063729 0.470965 0.500873
14 1 0.209631 0.532912 0.499734
50 1 0.319165 0.489509 0.50041
2 1 0.442682 0.479225 0.50126
31 1 0.699276 0.541705 0.500553
28 1 0.806093 0.481084 0.500037
34 1 0.916762 0.450735 0.498346
17 1 0.0969646 0.624621 0.499344
25 1 0.222359 0.663775 0.500477
9 1 0.282092 0.796631 0.498502
24 1 0.0922083 0.916189 0.500393
11 1 0.114871 0.772027 0.499998
57 1 0.193518 0.860074 0.501255
26 1 0.572112 0.910434 0.499043
43 1 0.196257 0.94719 0.500038
15 1 0.319374 0.95203 0.499763
40 1 0.442259 0.902913 0.498629
74 1 0.495802 0.986915 0.500204
65 1 0.653461 0.947011 0.500127
18 1 0.737647 0.0259889 0.501015
ITEM: TIMESTEP
750
ITEM: NUMBER OF ATOMS
50
ITEM: BOX BOUNDS pp pp pp
-4.8330676053381199e+00 4.8330676053381199e+00
-4.8410465451181883e+00 4.8410465451181883e+00
-1.0000000000000001e-01 1.0000000000000001e-01
ITEM: ATOMS id type xs ys zs
8 1 0.0630218 0.0923003 0.49982
1 1 0.219705 0.0727437 0.499644
41 1 0.425634 0.0260036 0.500787
16 1 0.592758 0.0464635 0.500825
13 1 0.876744 0.0649014 0.500781
77 1 0.0400372 0.196296 0.502418
29 1 0.328688 0.161577 0.498472
20 1 0.485296 0.142611 0.49995
44 1 0.539839 0.240584 0.501312
5 1 0.662149 0.170647 0.49804
66 1 0.786644 0.126203 0.500794
21 1 0.82887 0.202981 0.500089
35 1 0.94452 0.161128 0.501906
69 1 0.0390626 0.255959 0.502047
53 1 0.0800372 0.313321 0.500992
10 1 0.149519 0.217207 0.499744
33 1 0.265353 0.271663 0.500019
7 1 0.412803 0.275471 0.499403
3 1 0.644955 0.312217 0.497651
79 1 0.737496 0.249323 0.501342
39 1 0.933614 0.285437 0.500102
56 1 0.00277667 0.364949 0.503031
6 1 0.217235 0.405509 0.501846
60 1 0.36236 0.389425 0.49917
62 1 0.443923 0.369092 0.500187
54 1 0.519773 0.339715 0.498577
12 1 0.590431 0.461873 0.500885
55 1 0.718269 0.423298 0.499908
36 1 0.791208 0.337114 0.502402
70 1 0.880654 0.363429 0.499993
4 1 0.0646749 0.471171 0.500177
14 1 0.210434 0.533197 0.500258
50 1 0.31944 0.490299 0.50057
2 1 0.442917 0.479694 0.502874
31 1 0.699374 0.541494 0.501194
28 1 0.806456 0.481574 0.500938
34 1 0.91723 0.450694 0.497635
17 1 0.0979611 0.625567 0.500096
25 1 0.222406 0.663989 0.49857
9 1 0.280844 0.79729 0.498183
24 1 0.0915294 0.916701 0.499661
11 1 0.115283 0.7723 0.500675
57 1 0.192827 0.860927 0.500967
26 1 0.571498 0.911574 0.499325
43 1 0.195716 0.948065 0.497873
15 1 0.31899 0.951919 0.499945
40 1 0.442124 0.903612 0.49606
74 1 0.496837 0.986712 0.499899
65 1 0.653812 0.947254 0.499661
18 1 0.73837 0.0256569 0.501281
ITEM: TIMESTEP
1000
ITEM: NUMBER OF ATOMS
50
ITEM: BOX BOUNDS pp pp pp
-4.8318588319607407e+00 4.8318588319607407e+00
-4.8342899238773720e+00 4.8342899238773720e+00
-1.0000000000000001e-01 1.0000000000000001e-01
ITEM: ATOMS id type xs ys zs
8 1 0.0636994 0.0925188 0.500512
1 1 0.219244 0.0730234 0.500487
41 1 0.425598 0.026032 0.499284
16 1 0.593248 0.0457865 0.502006
13 1 0.876325 0.0639668 0.500008
77 1 0.0406882 0.196749 0.503397
29 1 0.328493 0.160818 0.497269
20 1 0.485624 0.14221 0.500479
44 1 0.540572 0.241044 0.502885
5 1 0.661772 0.171589 0.498783
66 1 0.786839 0.126473 0.502242
21 1 0.829528 0.2029 0.501143
35 1 0.945192 0.161116 0.50224
69 1 0.0397352 0.256246 0.502126
53 1 0.0800413 0.314274 0.502778
10 1 0.150192 0.217489 0.500623
33 1 0.267368 0.271412 0.499519
7 1 0.413495 0.275128 0.498992
3 1 0.645599 0.31303 0.497129
79 1 0.738647 0.249625 0.500044
39 1 0.934292 0.285264 0.499406
56 1 0.00227146 0.365354 0.502428
6 1 0.218359 0.405321 0.502007
60 1 0.362571 0.388635 0.501036
62 1 0.444245 0.368651 0.499133
54 1 0.520348 0.339803 0.499266
12 1 0.591311 0.462903 0.500935
55 1 0.718728 0.424542 0.498575
36 1 0.791436 0.337965 0.502122
70 1 0.880945 0.363309 0.499776
4 1 0.0648547 0.471033 0.499174
14 1 0.211665 0.532831 0.498684
50 1 0.320618 0.489797 0.498042
2 1 0.443833 0.479537 0.503684
31 1 0.699771 0.542203 0.502258
28 1 0.806765 0.48185 0.502234
34 1 0.917599 0.451332 0.498638
17 1 0.0976535 0.624996 0.498014
25 1 0.222712 0.663788 0.49854
9 1 0.281654 0.798178 0.496912
24 1 0.0905765 0.916546 0.500029
11 1 0.115228 0.772438 0.502067
57 1 0.193027 0.861005 0.502115
26 1 0.572021 0.910246 0.499449
43 1 0.194775 0.948309 0.496879
15 1 0.318552 0.952517 0.499483
40 1 0.44219 0.903656 0.497013
74 1 0.496908 0.987412 0.501792
65 1 0.654331 0.946482 0.499114
18 1 0.738082 0.0256361 0.501604
ITEM: TIMESTEP
1250
ITEM: NUMBER OF ATOMS
50
ITEM: BOX BOUNDS pp pp pp
-4.8306500585833607e+00 4.8306500585833607e+00
-4.8391472750632296e+00 4.8391472750632296e+00
-1.0000000000000001e-01 1.0000000000000001e-01
ITEM: ATOMS id type xs ys zs
8 1 0.0637822 0.0921823 0.498413
1 1 0.218458 0.0728435 0.499056
41 1 0.425082 0.0258692 0.498837
16 1 0.592677 0.0459574 0.504718
13 1 0.876394 0.0639673 0.500824
77 1 0.0402183 0.196842 0.503021
29 1 0.328151 0.160846 0.499789
20 1 0.485947 0.141766 0.499657
44 1 0.54105 0.239954 0.501293
5 1 0.662298 0.171339 0.499669
66 1 0.78676 0.126475 0.50302
21 1 0.82972 0.202683 0.501849
35 1 0.945072 0.160645 0.501416
69 1 0.0397596 0.256639 0.502416
53 1 0.080113 0.314497 0.502312
10 1 0.149725 0.217764 0.502031
33 1 0.267507 0.272188 0.498762
7 1 0.413824 0.274475 0.498503
3 1 0.646066 0.313085 0.495949
79 1 0.738805 0.249947 0.500185
39 1 0.933565 0.285042 0.500566
56 1 0.0022209 0.364932 0.503394
6 1 0.218839 0.405372 0.503553
60 1 0.363261 0.388766 0.501647
62 1 0.444644 0.368216 0.4993
54 1 0.520446 0.33911 0.499526
12 1 0.591036 0.462481 0.500566
55 1 0.718866 0.425054 0.500162
36 1 0.791597 0.33761 0.502045
70 1 0.880299 0.363495 0.49884
4 1 0.0656137 0.469986 0.497486
14 1 0.211616 0.532622 0.498165
50 1 0.320377 0.490126 0.497159
2 1 0.444508 0.478622 0.502391
31 1 0.699876 0.54244 0.502389
28 1 0.807486 0.481762 0.500518
34 1 0.91814 0.45047 0.497961
17 1 0.0987264 0.62522 0.497688
25 1 0.224672 0.663788 0.497938
9 1 0.282458 0.797924 0.49744
24 1 0.0913684 0.916208 0.500735
11 1 0.116488 0.772721 0.501173
57 1 0.193793 0.861456 0.504047
26 1 0.572478 0.910439 0.499739
43 1 0.194993 0.948336 0.499213
15 1 0.318617 0.952622 0.500327
40 1 0.44229 0.903678 0.496808
74 1 0.496481 0.98701 0.503755
65 1 0.653755 0.947089 0.498321
18 1 0.738212 0.0263866 0.501032
ITEM: TIMESTEP
1500
ITEM: NUMBER OF ATOMS
50
ITEM: BOX BOUNDS pp pp pp
-4.8294412852059807e+00 4.8294412852059807e+00
-4.8492383796833591e+00 4.8492383796833591e+00
-1.0000000000000001e-01 1.0000000000000001e-01
ITEM: ATOMS id type xs ys zs
8 1 0.0631792 0.0932338 0.498326
1 1 0.218736 0.0721868 0.496734
41 1 0.425283 0.0258964 0.499186
16 1 0.593052 0.0460183 0.505163
13 1 0.877152 0.0640336 0.501137
77 1 0.0400712 0.196968 0.502468
29 1 0.327524 0.161881 0.501252
20 1 0.485779 0.142305 0.501254
44 1 0.540576 0.240967 0.500547
5 1 0.662225 0.171906 0.499549
66 1 0.787854 0.12605 0.50236
21 1 0.828823 0.202293 0.500644
35 1 0.94439 0.1614 0.501035
69 1 0.039855 0.256595 0.503604
53 1 0.0808641 0.313715 0.503371
10 1 0.149876 0.217128 0.502937
33 1 0.266188 0.272336 0.498294
7 1 0.413568 0.275047 0.498688
3 1 0.645665 0.313425 0.494612
79 1 0.738324 0.250127 0.499313
39 1 0.932858 0.286059 0.500258
56 1 0.00290324 0.364744 0.503943
6 1 0.217818 0.405576 0.504246
60 1 0.363305 0.388255 0.502387
62 1 0.44476 0.368397 0.499586
54 1 0.520383 0.339344 0.498439
12 1 0.591144 0.462632 0.501599
55 1 0.718199 0.424149 0.500251
36 1 0.791864 0.337371 0.503838
70 1 0.880488 0.364483 0.497049
4 1 0.0660917 0.470391 0.498033
14 1 0.211836 0.53343 0.498842
50 1 0.320018 0.489725 0.496353
2 1 0.444049 0.478798 0.503168
31 1 0.700075 0.541111 0.501274
28 1 0.806971 0.47982 0.501354
34 1 0.918183 0.451303 0.500416
17 1 0.0987438 0.625043 0.497837
25 1 0.224246 0.664538 0.499726
9 1 0.283269 0.798104 0.497025
24 1 0.0913133 0.91527 0.499157
11 1 0.116263 0.772055 0.50157
57 1 0.193619 0.860277 0.502386
26 1 0.572774 0.910714 0.49892
43 1 0.194785 0.947429 0.498211
15 1 0.318751 0.952544 0.498595
40 1 0.443014 0.904103 0.495234
74 1 0.497035 0.987344 0.503797
65 1 0.65434 0.947322 0.495359
18 1 0.737944 0.0269746 0.502289
ITEM: TIMESTEP
1750
ITEM: NUMBER OF ATOMS
50
ITEM: BOX BOUNDS pp pp pp
-4.8282325118286016e+00 4.8282325118286016e+00
-4.8419917604209148e+00 4.8419917604209148e+00
-1.0000000000000001e-01 1.0000000000000001e-01
ITEM: ATOMS id type xs ys zs
8 1 0.0636021 0.0928055 0.498442
1 1 0.219477 0.0722504 0.496805
41 1 0.424997 0.0266835 0.50009
16 1 0.592995 0.0455044 0.505777
13 1 0.876774 0.0639519 0.499888
77 1 0.0404655 0.197174 0.501124
29 1 0.327851 0.161435 0.502602
20 1 0.484838 0.142318 0.502736
44 1 0.539852 0.240516 0.49928
5 1 0.662411 0.170382 0.497768
66 1 0.785821 0.125218 0.501097
21 1 0.828338 0.201768 0.501981
35 1 0.945149 0.161872 0.502996
69 1 0.0398272 0.256834 0.501465
53 1 0.0812855 0.314168 0.501925
10 1 0.150048 0.217448 0.502471
33 1 0.266642 0.272508 0.497895
7 1 0.412762 0.274386 0.50041
3 1 0.645281 0.312445 0.494335
79 1 0.737959 0.249334 0.498132
39 1 0.931944 0.286031 0.500626
56 1 0.00231761 0.364494 0.505257
6 1 0.217416 0.405671 0.503545
60 1 0.362304 0.388371 0.503853
62 1 0.444083 0.368055 0.49961
54 1 0.519838 0.339264 0.499432
12 1 0.59179 0.46304 0.501496
55 1 0.7184 0.423771 0.499004
36 1 0.791191 0.336984 0.507306
70 1 0.880084 0.364885 0.498283
4 1 0.0656131 0.469913 0.499884
14 1 0.211399 0.532927 0.498895
50 1 0.32003 0.489195 0.496889
2 1 0.444002 0.478276 0.504219
31 1 0.70085 0.541556 0.500912
28 1 0.807191 0.479791 0.501206
34 1 0.918063 0.451837 0.500829
17 1 0.0979011 0.625146 0.497768
25 1 0.22285 0.66468 0.498816
9 1 0.283558 0.797991 0.496994
24 1 0.0924576 0.915061 0.497907
11 1 0.117138 0.771819 0.503722
57 1 0.194874 0.860356 0.504524
26 1 0.571091 0.910774 0.499007
43 1 0.195608 0.947453 0.498487
15 1 0.318589 0.952537 0.498968
40 1 0.441807 0.903015 0.497854
74 1 0.496165 0.987088 0.503092
65 1 0.653037 0.945974 0.495816
18 1 0.737808 0.0245016 0.500619
ITEM: TIMESTEP
2000
ITEM: NUMBER OF ATOMS
50
ITEM: BOX BOUNDS pp pp pp
-4.8270237384512216e+00 4.8270237384512216e+00
-4.8411465420604483e+00 4.8411465420604483e+00
-1.0000000000000001e-01 1.0000000000000001e-01
ITEM: ATOMS id type xs ys zs
8 1 0.0629206 0.0918818 0.50069
1 1 0.21815 0.0717863 0.496949
41 1 0.424595 0.0272381 0.500655
16 1 0.592574 0.0451831 0.505839
13 1 0.876568 0.063498 0.499474
77 1 0.0402823 0.196254 0.501277
29 1 0.326623 0.161239 0.501564
20 1 0.485082 0.141852 0.503143
44 1 0.539886 0.240653 0.499648
5 1 0.660419 0.171243 0.50156
66 1 0.786316 0.125451 0.501796
21 1 0.828544 0.201708 0.501912
35 1 0.944606 0.161062 0.500848
69 1 0.0400552 0.256149 0.499812
53 1 0.0808664 0.314346 0.501336
10 1 0.149749 0.217271 0.501571
33 1 0.265554 0.271874 0.4977
7 1 0.412511 0.274585 0.500977
3 1 0.644968 0.313441 0.494769
79 1 0.7378 0.249327 0.498791
39 1 0.93161 0.285737 0.501256
56 1 0.00250588 0.363992 0.505082
6 1 0.217626 0.405547 0.503968
60 1 0.362147 0.38873 0.504626
62 1 0.443787 0.368256 0.499593
54 1 0.519616 0.338983 0.500082
12 1 0.59107 0.463164 0.50149
55 1 0.718299 0.424302 0.500511
36 1 0.79108 0.337697 0.507257
70 1 0.879944 0.365 0.498562
4 1 0.0657943 0.469834 0.50097
14 1 0.211515 0.533784 0.499317
50 1 0.320459 0.490008 0.49712
2 1 0.444012 0.478462 0.506126
31 1 0.699905 0.541514 0.500758
28 1 0.807037 0.481101 0.502302
34 1 0.918014 0.4524 0.502117
17 1 0.0972462 0.624851 0.498916
25 1 0.222673 0.664942 0.497943
9 1 0.283672 0.79788 0.497176
24 1 0.0914914 0.91476 0.497447
11 1 0.116702 0.771401 0.503934
57 1 0.194638 0.860792 0.5049
26 1 0.571704 0.910252 0.498834
43 1 0.195401 0.947272 0.499433
15 1 0.318778 0.952555 0.498178
40 1 0.442136 0.903364 0.49742
74 1 0.495632 0.987334 0.504234
65 1 0.653865 0.946125 0.49625
18 1 0.73756 0.0252628 0.498462
ITEM: TIMESTEP
2250
ITEM: NUMBER OF ATOMS
50
ITEM: BOX BOUNDS pp pp pp
-4.8258149650738424e+00 4.8258149650738424e+00
-4.8414356803525429e+00 4.8414356803525429e+00
-1.0000000000000001e-01 1.0000000000000001e-01
ITEM: ATOMS id type xs ys zs
8 1 0.0635491 0.0923371 0.499561
1 1 0.219395 0.0720199 0.497979
41 1 0.424837 0.0264782 0.500807
16 1 0.592872 0.0449355 0.506193
13 1 0.876701 0.0640566 0.500508
77 1 0.0396577 0.197084 0.501884
29 1 0.327255 0.162059 0.500898
20 1 0.485149 0.142311 0.503357
44 1 0.539473 0.240884 0.499875
5 1 0.661404 0.170707 0.50303
66 1 0.786179 0.125248 0.500743
21 1 0.828102 0.202058 0.503103
35 1 0.944775 0.16085 0.499519
69 1 0.0390089 0.256927 0.500476
53 1 0.0804669 0.314373 0.500321
10 1 0.149263 0.217212 0.501076
33 1 0.265343 0.272397 0.498549
7 1 0.412166 0.27628 0.502739
3 1 0.645087 0.312964 0.496108
79 1 0.737391 0.249275 0.499981
39 1 0.932168 0.285444 0.500893
56 1 0.00172626 0.364217 0.506153
6 1 0.217277 0.406497 0.503636
60 1 0.362922 0.390224 0.502769
62 1 0.444376 0.369764 0.499463
54 1 0.519664 0.339305 0.499199
12 1 0.590834 0.462759 0.49911
55 1 0.718234 0.42429 0.498277
36 1 0.791004 0.337288 0.5086
70 1 0.880065 0.364596 0.498912
4 1 0.0662568 0.469677 0.500852
14 1 0.211228 0.534196 0.497535
50 1 0.320652 0.490042 0.497061
2 1 0.444063 0.480076 0.506132
31 1 0.700087 0.541908 0.503375
28 1 0.807209 0.480906 0.50084
34 1 0.917627 0.452023 0.502538
17 1 0.0969794 0.624432 0.498963
25 1 0.222538 0.664909 0.499193
9 1 0.283909 0.796549 0.497404
24 1 0.092723 0.914501 0.498421
11 1 0.118222 0.77157 0.503723
57 1 0.195596 0.860444 0.503415
26 1 0.572531 0.909985 0.497842
43 1 0.195816 0.947223 0.497436
15 1 0.319556 0.951408 0.497595
40 1 0.442885 0.902737 0.497221
74 1 0.495989 0.98709 0.50237
65 1 0.653985 0.946108 0.494854
18 1 0.738124 0.0248013 0.498577
ITEM: TIMESTEP
2500
ITEM: NUMBER OF ATOMS
50
ITEM: BOX BOUNDS pp pp pp
-4.8246061916964624e+00 4.8246061916964624e+00
-4.8373747152958160e+00 4.8373747152958160e+00
-1.0000000000000001e-01 1.0000000000000001e-01
ITEM: ATOMS id type xs ys zs
8 1 0.0634434 0.0917894 0.499613
1 1 0.219188 0.0718975 0.496516
41 1 0.425344 0.0270711 0.499755
16 1 0.592587 0.0452111 0.505345
13 1 0.876853 0.0634266 0.5005
77 1 0.0399522 0.196131 0.501933
29 1 0.327176 0.162268 0.501315
20 1 0.485353 0.142988 0.505723
44 1 0.539871 0.241342 0.500568
5 1 0.661447 0.170852 0.504163
66 1 0.786621 0.125378 0.499765
21 1 0.82797 0.201977 0.503321
35 1 0.944409 0.160859 0.500439
69 1 0.0388379 0.255945 0.499539
53 1 0.0794819 0.313799 0.501923
10 1 0.149696 0.217248 0.500511
33 1 0.265535 0.273237 0.499081
7 1 0.412641 0.275368 0.502162
3 1 0.644988 0.313344 0.49691
79 1 0.737196 0.249764 0.499505
39 1 0.932318 0.285786 0.500403
56 1 0.00143134 0.365117 0.504376
6 1 0.216691 0.406518 0.503981
60 1 0.361616 0.389448 0.504088
62 1 0.443388 0.368964 0.500294
54 1 0.519581 0.340382 0.496763
12 1 0.591076 0.464531 0.499851
55 1 0.718127 0.425172 0.498311
36 1 0.790832 0.337802 0.508314
70 1 0.879582 0.36465 0.49737
4 1 0.0663249 0.46926 0.500395
14 1 0.211067 0.534313 0.496965
50 1 0.319757 0.490054 0.49664
2 1 0.443175 0.47949 0.504795
31 1 0.700701 0.542322 0.503207
28 1 0.807887 0.480935 0.502692
34 1 0.918803 0.451556 0.500438
17 1 0.0968808 0.625209 0.499408
25 1 0.222106 0.664959 0.500451
9 1 0.283045 0.797408 0.49777
24 1 0.092265 0.915485 0.49751
11 1 0.117106 0.771617 0.503784
57 1 0.194301 0.860267 0.50388
26 1 0.572209 0.909856 0.498413
43 1 0.19605 0.947481 0.49741
15 1 0.318839 0.95212 0.496614
40 1 0.442223 0.902008 0.495703
74 1 0.496008 0.986559 0.501747
65 1 0.65424 0.946031 0.493976
18 1 0.738095 0.025303 0.498712
ITEM: TIMESTEP
2750
ITEM: NUMBER OF ATOMS
50
ITEM: BOX BOUNDS pp pp pp
-4.8233974183190824e+00 4.8233974183190824e+00
-4.8374668038171604e+00 4.8374668038171604e+00
-1.0000000000000001e-01 1.0000000000000001e-01
ITEM: ATOMS id type xs ys zs
8 1 0.063677 0.0919929 0.498877
1 1 0.218922 0.0727177 0.494852
41 1 0.424853 0.0268193 0.500853
16 1 0.592725 0.0450037 0.503378
13 1 0.876695 0.0636446 0.500693
77 1 0.0406269 0.196124 0.503219
29 1 0.327709 0.161666 0.500963
20 1 0.485365 0.142609 0.506262
44 1 0.539557 0.240976 0.502126
5 1 0.661324 0.170425 0.502502
66 1 0.786683 0.126018 0.499032
21 1 0.828374 0.202254 0.502732
35 1 0.944914 0.161066 0.499674
69 1 0.0389207 0.255618 0.500666
53 1 0.079361 0.313847 0.501224
10 1 0.149923 0.217637 0.500571
33 1 0.265849 0.272636 0.498574
7 1 0.412527 0.275796 0.503476
3 1 0.645266 0.312641 0.497592
79 1 0.737568 0.249081 0.499889
39 1 0.931785 0.286346 0.500723
56 1 0.00210641 0.364704 0.504241
6 1 0.216547 0.406264 0.503154
60 1 0.362627 0.38955 0.505531
62 1 0.444163 0.369286 0.497484
54 1 0.519817 0.339723 0.496795
12 1 0.590999 0.463464 0.499814
55 1 0.718064 0.42461 0.498894
36 1 0.790923 0.337067 0.506334
70 1 0.878931 0.364621 0.497094
4 1 0.0662376 0.469829 0.498572
14 1 0.210727 0.534906 0.496276
50 1 0.319312 0.490903 0.497088
2 1 0.443442 0.480081 0.505069
31 1 0.70066 0.542336 0.501364
28 1 0.807345 0.480915 0.504139
34 1 0.918027 0.451626 0.499628
17 1 0.0962933 0.62515 0.498011
25 1 0.221418 0.666154 0.500428
9 1 0.284263 0.797683 0.497943
24 1 0.0917331 0.915154 0.497744
11 1 0.117049 0.771995 0.505858
57 1 0.194859 0.860444 0.503296
26 1 0.572339 0.910287 0.49995
43 1 0.195641 0.947694 0.499153
15 1 0.318775 0.952519 0.498842
40 1 0.442118 0.902452 0.495238
74 1 0.496007 0.98664 0.504289
65 1 0.654607 0.945686 0.49305
18 1 0.73825 0.0254889 0.497593
ITEM: TIMESTEP
3000
ITEM: NUMBER OF ATOMS
50
ITEM: BOX BOUNDS pp pp pp
-4.8221886449417033e+00 4.8221886449417033e+00
-4.8494338122807283e+00 4.8494338122807283e+00
-1.0000000000000001e-01 1.0000000000000001e-01
ITEM: ATOMS id type xs ys zs
8 1 0.0635077 0.0914449 0.498136
1 1 0.219036 0.0717661 0.49504
41 1 0.425414 0.0264951 0.501306
16 1 0.591869 0.0449558 0.504565
13 1 0.876535 0.0632768 0.50038
77 1 0.0407168 0.195485 0.502415
29 1 0.32622 0.16283 0.499635
20 1 0.485899 0.1427 0.505817
44 1 0.538946 0.241291 0.502512
5 1 0.660359 0.170594 0.502329
66 1 0.786537 0.125395 0.499824
21 1 0.828617 0.20149 0.503256
35 1 0.945051 0.160152 0.499627
69 1 0.0394183 0.254872 0.501704
53 1 0.0800365 0.312269 0.50293
10 1 0.150594 0.216305 0.50129
33 1 0.265352 0.273873 0.499602
7 1 0.412159 0.275354 0.503389
3 1 0.644491 0.312779 0.496567
79 1 0.736994 0.248761 0.498482
39 1 0.933453 0.285081 0.501792
56 1 0.00290564 0.364151 0.504777
6 1 0.217624 0.407362 0.502538
60 1 0.361644 0.389937 0.506194
62 1 0.442886 0.36891 0.499798
54 1 0.519017 0.339843 0.496906
12 1 0.590183 0.462149 0.500384
55 1 0.718293 0.423154 0.498339
36 1 0.791018 0.336224 0.50643
70 1 0.880067 0.363135 0.496328
4 1 0.0654165 0.47 0.49593
14 1 0.210517 0.535059 0.496691
50 1 0.319555 0.490868 0.495481
2 1 0.443156 0.479755 0.500847
31 1 0.699921 0.540509 0.500283
28 1 0.807064 0.479915 0.503711
34 1 0.918071 0.450337 0.498789
17 1 0.0956026 0.624526 0.496448
25 1 0.22058 0.665388 0.500189
9 1 0.282922 0.797227 0.497707
24 1 0.0918886 0.914979 0.496362
11 1 0.117672 0.771358 0.50486
57 1 0.194814 0.860728 0.503088
26 1 0.571711 0.910425 0.499981
43 1 0.195322 0.947624 0.498016
15 1 0.319185 0.952079 0.499297
40 1 0.442237 0.901357 0.496812
74 1 0.495531 0.985624 0.50627
65 1 0.654182 0.946328 0.491708
18 1 0.737735 0.0257321 0.498053
ITEM: TIMESTEP
3250
ITEM: NUMBER OF ATOMS
50
ITEM: BOX BOUNDS pp pp pp
-4.8209798715643233e+00 4.8209798715643233e+00
-4.8527721526608811e+00 4.8527721526608811e+00
-1.0000000000000001e-01 1.0000000000000001e-01
ITEM: ATOMS id type xs ys zs
8 1 0.0629306 0.0914909 0.499304
1 1 0.219265 0.0710616 0.494284
41 1 0.425947 0.0262573 0.502835
16 1 0.590969 0.0449941 0.504737
13 1 0.875785 0.0639449 0.500391
77 1 0.0396593 0.19524 0.50244
29 1 0.325616 0.162798 0.497648
20 1 0.483925 0.142388 0.504773
44 1 0.538419 0.24102 0.503751
5 1 0.659476 0.170939 0.502826
66 1 0.785905 0.125985 0.499308
21 1 0.827669 0.202253 0.503817
35 1 0.943808 0.160404 0.4999
69 1 0.0393038 0.255093 0.502506
53 1 0.0804974 0.3125 0.503279
10 1 0.14977 0.215407 0.499864
33 1 0.265158 0.272855 0.499399
7 1 0.411732 0.275995 0.501806
3 1 0.644134 0.31316 0.497255
79 1 0.736614 0.248789 0.498367
39 1 0.932758 0.285048 0.500317
56 1 0.0026151 0.363911 0.504357
6 1 0.218006 0.407629 0.501653
60 1 0.361652 0.39 0.506192
62 1 0.443298 0.369338 0.498195
54 1 0.519316 0.339198 0.496689
12 1 0.590536 0.462343 0.500077
55 1 0.71753 0.423015 0.500484
36 1 0.790249 0.336005 0.50674
70 1 0.87922 0.363025 0.494682
4 1 0.0646425 0.470101 0.498794
14 1 0.209957 0.534798 0.497233
50 1 0.319412 0.491725 0.496771
2 1 0.442779 0.479545 0.500704
31 1 0.699803 0.540172 0.501932
28 1 0.806785 0.479092 0.503226
34 1 0.91747 0.449942 0.498223
17 1 0.0951623 0.624898 0.494254
25 1 0.219967 0.666066 0.497382
9 1 0.283087 0.796955 0.498948
24 1 0.0924188 0.914176 0.495307
11 1 0.118503 0.77093 0.505996
57 1 0.195066 0.860123 0.502348
26 1 0.571398 0.909723 0.501027
43 1 0.19622 0.946837 0.50028
15 1 0.319536 0.951062 0.497453
40 1 0.442477 0.90061 0.497584
74 1 0.495551 0.984752 0.50821
65 1 0.65359 0.947091 0.490661
18 1 0.737028 0.0267478 0.498889
ITEM: TIMESTEP
3500
ITEM: NUMBER OF ATOMS
50
ITEM: BOX BOUNDS pp pp pp
-4.8197710981869442e+00 4.8197710981869442e+00
-4.8409393231058058e+00 4.8409393231058058e+00
-1.0000000000000001e-01 1.0000000000000001e-01
ITEM: ATOMS id type xs ys zs
8 1 0.0626488 0.0907246 0.500619
1 1 0.218422 0.0715147 0.492675
41 1 0.426054 0.0256001 0.504574
16 1 0.591092 0.0447565 0.504725
13 1 0.875196 0.0641132 0.500341
77 1 0.0394199 0.194977 0.503385
29 1 0.326195 0.161628 0.496426
20 1 0.483966 0.142752 0.504451
44 1 0.538322 0.241619 0.503795
5 1 0.659421 0.170776 0.501773
66 1 0.785852 0.126664 0.499309
21 1 0.828011 0.202879 0.504503
35 1 0.943462 0.160317 0.500879
69 1 0.0384454 0.254666 0.501909
53 1 0.0802506 0.312225 0.502527
10 1 0.149435 0.215379 0.498519
33 1 0.264137 0.272966 0.501036
7 1 0.411084 0.276062 0.501538
3 1 0.644328 0.312552 0.495267
79 1 0.736556 0.248682 0.497822
39 1 0.932968 0.284771 0.499868
56 1 0.00324727 0.363612 0.504209
6 1 0.216192 0.406718 0.503561
60 1 0.360203 0.390311 0.507818
62 1 0.442115 0.369634 0.498328
54 1 0.518282 0.340195 0.497748
12 1 0.589569 0.463348 0.498408
55 1 0.717102 0.423038 0.499982
36 1 0.79073 0.335977 0.50657
70 1 0.879451 0.362637 0.496881
4 1 0.0645511 0.469888 0.49734
14 1 0.209555 0.533842 0.497298
50 1 0.318373 0.492142 0.495517
2 1 0.442588 0.48007 0.5014
31 1 0.699045 0.541155 0.503132
28 1 0.805811 0.479502 0.502829
34 1 0.916848 0.450206 0.496524
17 1 0.0950817 0.624446 0.492134
25 1 0.219334 0.665436 0.49987
9 1 0.283604 0.796226 0.496169
24 1 0.0925905 0.914303 0.494102
11 1 0.117601 0.771761 0.505092
57 1 0.195494 0.86004 0.502134
26 1 0.571447 0.909406 0.503759
43 1 0.196045 0.946604 0.498622
15 1 0.319112 0.951828 0.497525
40 1 0.44173 0.90004 0.498187
74 1 0.496009 0.98373 0.507141
65 1 0.653306 0.946539 0.491713
18 1 0.736747 0.0262581 0.499193
ITEM: TIMESTEP
3750
ITEM: NUMBER OF ATOMS
50
ITEM: BOX BOUNDS pp pp pp
-4.8185623248095641e+00 4.8185623248095641e+00
-4.8453849394485404e+00 4.8453849394485404e+00
-1.0000000000000001e-01 1.0000000000000001e-01
ITEM: ATOMS id type xs ys zs
8 1 0.06201 0.0906477 0.498952
1 1 0.218383 0.0713243 0.494036
41 1 0.426331 0.0255291 0.505127
16 1 0.590029 0.0459028 0.505168
13 1 0.875693 0.0640705 0.501632
77 1 0.0399775 0.195091 0.504453
29 1 0.325292 0.162583 0.497444
20 1 0.483269 0.14339 0.502753
44 1 0.53753 0.242225 0.504143
5 1 0.659538 0.171265 0.502821
66 1 0.786434 0.126699 0.499488
21 1 0.828352 0.203374 0.50382
35 1 0.9441 0.160931 0.501926
69 1 0.0387202 0.254442 0.502174
53 1 0.079434 0.312012 0.502617
10 1 0.149179 0.215264 0.497996
33 1 0.26334 0.273093 0.503248
7 1 0.410502 0.276578 0.501696
3 1 0.643393 0.313252 0.495528
79 1 0.736487 0.249296 0.499747
39 1 0.933421 0.285427 0.500522
56 1 0.00258701 0.364558 0.504873
6 1 0.214492 0.406741 0.503453
60 1 0.360414 0.390481 0.509151
62 1 0.442389 0.369902 0.496829
54 1 0.518214 0.340368 0.49566
12 1 0.589452 0.463423 0.497805
55 1 0.716295 0.424349 0.49996
36 1 0.789301 0.337732 0.504811
70 1 0.878893 0.362862 0.496515
4 1 0.0638287 0.470547 0.497551
14 1 0.209469 0.534135 0.496161
50 1 0.317298 0.49081 0.495561
2 1 0.441882 0.480266 0.504271
31 1 0.699194 0.541761 0.502946
28 1 0.805649 0.479807 0.501518
34 1 0.916491 0.449661 0.499306
17 1 0.0943519 0.625206 0.492697
25 1 0.218636 0.665832 0.50125
9 1 0.28321 0.796739 0.496821
24 1 0.0923428 0.91439 0.493432
11 1 0.116909 0.77116 0.504164
57 1 0.194748 0.859298 0.501389
26 1 0.571686 0.909919 0.503964
43 1 0.195921 0.946401 0.499804
15 1 0.319301 0.951452 0.499415
40 1 0.442187 0.90016 0.499499
74 1 0.496077 0.983971 0.506938
65 1 0.652803 0.947777 0.490064
18 1 0.736114 0.0279145 0.498602
ITEM: TIMESTEP
4000
ITEM: NUMBER OF ATOMS
50
ITEM: BOX BOUNDS pp pp pp
-4.8173535514321841e+00 4.8173535514321841e+00
-4.8471530211571263e+00 4.8471530211571263e+00
-1.0000000000000001e-01 1.0000000000000001e-01
ITEM: ATOMS id type xs ys zs
8 1 0.0625814 0.0907197 0.49964
1 1 0.218928 0.0707768 0.493544
41 1 0.426094 0.0254114 0.504237
16 1 0.590587 0.0454064 0.504383
13 1 0.876099 0.0642698 0.501922
77 1 0.0394839 0.194568 0.505534
29 1 0.325453 0.162978 0.49748
20 1 0.483407 0.142979 0.503077
44 1 0.537935 0.241762 0.504421
5 1 0.659254 0.170852 0.501275
66 1 0.786308 0.126433 0.499416
21 1 0.827873 0.20296 0.503381
35 1 0.94393 0.160176 0.502516
69 1 0.0385175 0.254029 0.50071
53 1 0.0795989 0.311503 0.5028
10 1 0.149444 0.215548 0.498045
33 1 0.26442 0.273898 0.503599
7 1 0.410875 0.276683 0.500626
3 1 0.643676 0.313105 0.493615
79 1 0.73641 0.248588 0.500156
39 1 0.932667 0.284692 0.500896
56 1 0.00254912 0.36376 0.505041
6 1 0.214907 0.407018 0.504494
60 1 0.360388 0.39121 0.510505
62 1 0.441869 0.370409 0.496579
54 1 0.51803 0.340445 0.496318
12 1 0.588865 0.462868 0.499713
55 1 0.716586 0.423876 0.501225
36 1 0.78939 0.337093 0.504242
70 1 0.878569 0.362429 0.495176
4 1 0.0643121 0.469961 0.499414
14 1 0.20942 0.534647 0.498292
50 1 0.318467 0.490582 0.496495
2 1 0.442097 0.480585 0.503855
31 1 0.699062 0.54111 0.502842
28 1 0.805511 0.480075 0.50163
34 1 0.916498 0.449558 0.50007
17 1 0.094206 0.624264 0.492703
25 1 0.219406 0.665338 0.500664
9 1 0.283196 0.796659 0.495675
24 1 0.091325 0.91364 0.494839
11 1 0.117288 0.770871 0.501702
57 1 0.194284 0.859506 0.502074
26 1 0.571657 0.910539 0.504303
43 1 0.195342 0.946511 0.498464
15 1 0.319047 0.951269 0.499184
40 1 0.441796 0.89993 0.498608
74 1 0.495957 0.983708 0.506552
65 1 0.653174 0.947301 0.488061
18 1 0.736519 0.0271585 0.497047
ITEM: TIMESTEP
4250
ITEM: NUMBER OF ATOMS
50
ITEM: BOX BOUNDS pp pp pp
-4.8161447780548050e+00 4.8161447780548050e+00
-4.8475621960349917e+00 4.8475621960349917e+00
-1.0000000000000001e-01 1.0000000000000001e-01
ITEM: ATOMS id type xs ys zs
8 1 0.0625956 0.0913039 0.498343
1 1 0.219495 0.0711517 0.494987
41 1 0.425562 0.0263236 0.50437
16 1 0.590852 0.0450515 0.50706
13 1 0.876075 0.0637435 0.500611
77 1 0.0400262 0.195168 0.503779
29 1 0.325245 0.163287 0.498225
20 1 0.483977 0.142722 0.502585
44 1 0.538489 0.241133 0.505587
5 1 0.659449 0.171292 0.500876
66 1 0.786147 0.126246 0.500295
21 1 0.828028 0.202266 0.504013
35 1 0.943907 0.16041 0.500624
69 1 0.0391502 0.254793 0.501076
53 1 0.0795437 0.312609 0.502761
10 1 0.149651 0.215318 0.497777
33 1 0.263744 0.273808 0.501049
7 1 0.411347 0.275652 0.50101
3 1 0.644066 0.312512 0.49417
79 1 0.73658 0.248977 0.49976
39 1 0.932637 0.285088 0.500559
56 1 0.00217021 0.363985 0.506379
6 1 0.215291 0.40722 0.505391
60 1 0.360799 0.39011 0.509304
62 1 0.442355 0.369472 0.496154
54 1 0.518461 0.340075 0.495277
12 1 0.588669 0.461354 0.498954
55 1 0.717245 0.423271 0.499083
36 1 0.790357 0.336321 0.504073
70 1 0.879539 0.363124 0.493133
4 1 0.0642696 0.46927 0.499013
14 1 0.208865 0.53418 0.498001
50 1 0.318238 0.491067 0.497698
2 1 0.441973 0.480293 0.504672
31 1 0.697779 0.540726 0.502202
28 1 0.805876 0.480284 0.503135
34 1 0.916251 0.450263 0.499825
17 1 0.0941937 0.623763 0.49156
25 1 0.218667 0.665793 0.498824
9 1 0.283915 0.796318 0.494038
24 1 0.0920391 0.912617 0.496034
11 1 0.11901 0.769304 0.501661
57 1 0.195166 0.859323 0.501496
26 1 0.572172 0.909944 0.505516
43 1 0.195649 0.946298 0.499747
15 1 0.319468 0.951221 0.501197
40 1 0.441625 0.90064 0.498686
74 1 0.495618 0.984762 0.506706
65 1 0.653902 0.947036 0.487702
18 1 0.737057 0.027113 0.496253
ITEM: TIMESTEP
4500
ITEM: NUMBER OF ATOMS
50
ITEM: BOX BOUNDS pp pp pp
-4.8149360046774250e+00 4.8149360046774250e+00
-4.8538895132359432e+00 4.8538895132359432e+00
-1.0000000000000001e-01 1.0000000000000001e-01
ITEM: ATOMS id type xs ys zs
8 1 0.0627288 0.0915319 0.497938
1 1 0.219303 0.0703427 0.495869
41 1 0.425334 0.0259464 0.50483
16 1 0.590586 0.0450464 0.507681
13 1 0.875551 0.064627 0.500499
77 1 0.04002 0.195285 0.504352
29 1 0.324609 0.163377 0.498383
20 1 0.484496 0.142634 0.502832
44 1 0.538426 0.24076 0.50596
5 1 0.659069 0.171136 0.499647
66 1 0.785956 0.126717 0.499849
21 1 0.828128 0.202764 0.502603
35 1 0.944188 0.160481 0.502787
69 1 0.0393003 0.254884 0.501284