LAMMPS (23 Jun 2022 - Update 4)
  using 1 OpenMP thread(s) per MPI task
# Compute elastic constant tensor for a crystal
#
# Written by Aidan Thompson (Sandia, athomps@sandia.gov)
#
#  This script uses the following three include files.
#
#   init.mod      (must be modified for different crystal structures)
# 	       	  Define units, deformation parameters and initial
#		  configuration of the atoms and simulation cell.
#
#
#   potential.mod    (must be modified for different pair styles)
# 		     Define pair style and other attributes
#		     not stored in restart file
#
#
#   displace.mod    (displace.mod should not need to be modified)
# 		    Perform positive and negative box displacements
# 		    in direction ${dir} and size ${up}.
# 		    It uses the resultant changes
#		    in stress to compute one
# 		    row of the elastic stiffness tensor
#
#		    Inputs variables:
#		    	   dir = the Voigt deformation component
#		    		    (1,2,3,4,5,6)
#		    Global constants:
#       	    	   up = the deformation magnitude (strain units)
#       		   cfac = conversion from LAMMPS pressure units to
#               	   output units for elastic constants
#
#
#  To run this on a different system, it should only be necessary to
#  modify the files init.mod and potential.mod. In order to calculate
#  the elastic constants correctly, care must be taken to specify
#  the correct units in init.mod (units, cfac and cunits). It is also
#  important to verify that the minimization of energy w.r.t atom
#  positions in the deformed cell is fully converged.
#  One indication of this is that the elastic constants are insensitive
#  to the choice of the variable ${up} in init.mod. Another is to check
#  the final max and two-norm forces reported in the log file. If you know
#  that minimization is not required, you can set maxiter = 0.0 in
#  init.mod.
#



variable dt equal 0.01
variable strain equal 0.05
variable srate equal 1e-4
variable M equal 1000 # averaging time for properties
variable strainsteps equal ${strain}/${dt}/${srate}
variable strainsteps equal 0.05/${dt}/${srate}
variable strainsteps equal 0.05/0.01/${srate}
variable strainsteps equal 0.05/0.01/0.0001


dimension 2
include init.mod
# NOTE: This script can be modified for different atomic structures,
# units, etc. See in.elastic for more info.
#

# Define the finite deformation size. Try several values of this
# variable to verify that results do not depend on it.
variable up equal 1.0e-1

# Define the amount of random jiggle for atoms
# This prevents atoms from staying on saddle points
variable atomjiggle equal 1.0e-6

# Uncomment one of these blocks, depending on what units
# you are using in LAMMPS and for output

# metal units, elastic constants in eV/A^3
#units		metal
#variable cfac equal 6.2414e-7
#variable cunits string eV/A^3

# Choose potential
# metal units, elastic constants in GPa
units		metal
atom_style	full
#pair_style      lj/cut 1.0
#pair_style      yukawa 1.0 2.0
#pair_modify     mix arithmetic
bond_style      harmonic
angle_style     harmonic
dihedral_style  zero
special_bonds   amber
variable cfac equal 1.0e-4
variable cunits string GPa
boundary	p p p

# Need to set mass to something, just to satisfy LAMMPS
#mass 1 1.0e-20
read_data network.lmp
Reading data file ...
  orthogonal box = (-4.835094 -4.835094 -0.1) to (4.835094 4.835094 0.1)
  1 by 1 by 1 MPI processor grid
WARNING: Atom style in data file differs from currently defined atom style (src/read_data.cpp:538)
  reading atoms ...
  50 atoms
WARNING: Bond style in data file differs from currently defined bond style (src/read_data.cpp:630)
  scanning bonds ...
  6 = max bonds/atom
  reading bonds ...
  110 bonds
Finding 1-2 1-3 1-4 neighbors ...
  special bond factors lj:    0        0        0.5     
  special bond factors coul:  0        0        0.8333333333333334
     9 = max # of 1-2 neighbors
    33 = max # of 1-3 neighbors
   182 = max # of 1-4 neighbors
    31 = max # of special neighbors
  special bonds CPU = 0.000 seconds
  read_data CPU = 0.003 seconds

# real units, elastic constants in GPa
#units		real
#variable cfac equal 1.01325e-4
#variable cunits string GPa

# Define minimization parameters
variable etol equal 0.0
variable ftol equal 5.0e-10
variable maxiter equal 100000
variable maxeval equal 20000
variable dmax equal 1.0e-2


include potential.mod
# NOTE: This script can be modified for different pair styles
# See in.elastic for more info.

# Setup neighbor style
neighbor 3.0 nsq
neigh_modify once no every 1 delay 0 check yes
comm_modify cutoff 2.0

# Setup minimization style
min_style	     cg
min_modify	     dmax ${dmax} line quadratic
min_modify	     dmax 0.01 line quadratic

timestep	0.001


# Setup output
thermo		500
thermo_style custom step temp pe ebond eangle edihed press pxx pyy pzz pxy pxz pyz lx ly lz vol
thermo_modify norm no


#change_box all triclinic
comm_modify mode single cutoff 10.0 vel yes
atom_modify sort 0 0



# Compute initial state

#dump rela all atom 1 traj_relax.lmpstrj
fix 3 all box/relax x 0 y 0 # xy 0  #MS comment: relax if the network is periodic
minimize ${etol} ${ftol} ${maxiter} ${maxeval}
minimize 0 ${ftol} ${maxiter} ${maxeval}
minimize 0 5e-10 ${maxiter} ${maxeval}
minimize 0 5e-10 100000 ${maxeval}
minimize 0 5e-10 100000 20000
Neighbor list info ...
  update every 1 steps, delay 0 steps, check yes
  max neighbors/atom: 2000, page size: 100000
  master list distance cutoff = 0
  ghost atom cutoff = 10
  0 neighbor lists, perpetual/occasional/extra = 0 0 0
WARNING: Inconsistent image flags (src/domain.cpp:819)
Per MPI rank memory allocation (min/avg/max) = 9.02 | 9.02 | 9.02 Mbytes
   Step          Temp          PotEng         E_bond        E_angle        E_dihed         Press           Pxx            Pyy            Pzz            Pxy            Pxz            Pyz             Lx             Ly             Lz           Volume    
         0   0              2.0826964e-11  2.0826964e-11  0              0             -0.21633049    -0.23885068    -0.19381029     0              0.056676157    0              0              9.670188       9.670188       0.2            93.512536    
       331   0              6.2720173e-19  6.2720173e-19  0              0              2.182215e-06   1.0838036e-06  3.2806264e-06  0             -3.8105278e-06  0              0              9.670187       9.670188       0.2            93.512527    
Loop time of 0.0132666 on 1 procs for 331 steps with 50 atoms

100.0% CPU use with 1 MPI tasks x 1 OpenMP threads

Minimization stats:
  Stopping criterion = force tolerance
  Energy initial, next-to-last, final = 
    2.08269637054322e-11 6.3156618962774e-19 6.27201730874067e-19
  Force two-norm initial, final = 2.3780432e-05 4.4424064e-10
  Force max component initial, final = 1.3940744e-05 1.9147682e-10
  Final line search alpha, max atom move = 1 1.9147682e-10
  Iterations, force evaluations = 331 662

MPI task timing breakdown:
Section |  min time  |  avg time  |  max time  |%varavg| %total
---------------------------------------------------------------
Pair    | 0          | 0          | 0          |   0.0 |  0.00
Bond    | 0.0018503  | 0.0018503  | 0.0018503  |   0.0 | 13.95
Neigh   | 0          | 0          | 0          |   0.0 |  0.00
Comm    | 0.0040372  | 0.0040372  | 0.0040372  |   0.0 | 30.43
Output  | 0          | 0          | 0          |   0.0 |  0.00
Modify  | 0          | 0          | 0          |   0.0 |  0.00
Other   |            | 0.007379   |            |       | 55.62

Nlocal:             50 ave          50 max          50 min
Histogram: 1 0 0 0 0 0 0 0 0 0
Nghost:            412 ave         412 max         412 min
Histogram: 1 0 0 0 0 0 0 0 0 0
Neighs:              0 ave           0 max           0 min
Histogram: 1 0 0 0 0 0 0 0 0 0

Total # of neighbors = 0
Ave neighs/atom = 0
Ave special neighs/atom = 22.44
Neighbor list builds = 0
Dangerous builds = 0
#dump rela all atom 1 traj_relax.lmpstrj
thermo 100
unfix 3

fix 2d all enforce2d



#dump dump0 all xyz 1000000 cfg0.xyz
#dump_modify dump0 format line "%d %20.10g %20.10g %20.10g"
#minimize ${etol} ${ftol} ${maxiter} ${maxeval}

#undump rela

#write_restart restart.equil

# These formulas define the derivatives w.r.t. strain components
# Constants uses $, variables use v_


timestep        ${dt}
timestep        0.01
variable nsteps equal round(${strainsteps})
variable nsteps equal round(50000)

fix             4 all nve
fix             5 all langevin 0.1 0.1 1 904297
#fix		6 all press/berendsen y  0.0 0.0 1 x 0.0 0.0 10
fix             6 all nph y 0.0 0.0 10 ptemp 0.1 # x 0.0 0.0 10

# For PLUMED2
# fix 22 all plumed plumedfile plumed.dat outfile plumed.out

#fix             6 all nph x 0.0 0.0 10
fix     	9 all deform 1 x erate -${srate} units box remap x
fix     	9 all deform 1 x erate -0.0001 units box remap x

#fix     8 all deform 1 xy erate ${srate} units box remap x



#fix    10 all ave/time

dump 1 all atom 250 deform_dump.lammpstrj


#To avoid flying ice cube phenomenon:
#fix 21 all momentum 100 linear 1 1 1 angular


run  ${nsteps}
run  50000
WARNING: One or more atoms are time integrated more than once (src/modify.cpp:292)
WARNING: Inconsistent image flags (src/domain.cpp:819)
Per MPI rank memory allocation (min/avg/max) = 7.895 | 7.895 | 7.895 Mbytes
   Step          Temp          PotEng         E_bond        E_angle        E_dihed         Press           Pxx            Pyy            Pzz            Pxy            Pxz            Pyz             Lx             Ly             Lz           Volume    
       331   0              6.2720173e-19  6.2720173e-19  0              0              2.182215e-06   1.0838036e-06  3.2806264e-06  0             -3.8105278e-06  0              0              9.670187       9.670188       0.2            93.512527    
       400   0.167788       0.00042442634  0.00042442634  0              0              1.3849094      15.684632     -13.060165      0              406.29367      0              0              9.6695198      9.6712019      0.2            93.515878    
       500   0.20011818     0.00062952858  0.00062952858  0              0             -92.888059     -231.55284      45.623438      0              222.48868      0              0              9.6685528      9.673588       0.2            93.529596    
       600   0.20745802     0.00070743288  0.00070743288  0              0              342.01182      652.72845      31.147196      0             -763.21         0              0              9.6675857      9.6850948      0.2            93.631484    
       700   0.19644727     0.00077425778  0.00077425778  0              0             -37.452515      72.027159     -147.08055      0             -671.95463      0              0              9.6666187      9.6825188      0.2            93.597217    
       800   0.21894709     0.0007682322   0.0007682322   0              0             -72.131922     -6.0000973     -138.41344      0             -461.09669      0              0              9.6656517      9.6902558      0.2            93.662638    
       900   0.16742493     0.00075056177  0.00075056177  0              0             -107.64691     -175.45871     -40.001219      0             -303.98045      0              0              9.6646847      9.6771905      0.2            93.526995    
      1000   0.25985292     0.00080383422  0.00080383422  0              0              278.37414      380.96559      175.62163      0             -821.73195      0              0              9.6637177      9.6685798      0.2            93.434426    
      1100   0.21964563     0.00090965744  0.00090965744  0              0              528.79149      979.93559      77.506699      0             -879.78871      0              0              9.6627506      9.675848       0.2            93.495307    
      1200   0.18780672     0.00094825878  0.00094825878  0              0              330.2476       446.92411      213.4247       0             -991.39829      0              0              9.6617836      9.6761981      0.2            93.489332    
      1300   0.22646852     0.00084039102  0.00084039102  0              0              360.66527      626.30214      94.854035      0             -710.32414      0              0              9.6608166      9.6849121      0.2            93.56416     
      1400   0.14308785     0.00070108989  0.00070108989  0              0              79.788982      364.34152     -204.90212      0             -903.56777      0              0              9.6598496      9.6929192      0.2            93.632142    
      1500   0.20156751     0.00082383847  0.00082383847  0              0              174.6446       488.60696     -139.45317      0             -634.40582      0              0              9.6588826      9.6984768      0.2            93.676448    
      1600   0.22906838     0.00081360989  0.00081360989  0              0              420.1243       760.87546      79.240521      0             -185.93441      0              0              9.6579156      9.6786332      0.2            93.475422    
      1700   0.18850023     0.0008789744   0.0008789744   0              0              781.63376      1331.8692      231.26905      0             -611.26         0              0              9.6569485      9.6833701      0.2            93.511806    
      1800   0.22018657     0.00098496078  0.00098496078  0              0              506.40465      881.49971      131.18449      0             -574.29269      0              0              9.6559815      9.6793443      0.2            93.46357     
      1900   0.18310839     0.0010581939   0.0010581939   0              0              183.00132      484.94796     -119.08716      0             -434.06713      0              0              9.6550145      9.6758419      0.2            93.420394    
      2000   0.19263179     0.00089463118  0.00089463118  0              0              10.70194       477.46202     -456.22923      0             -885.06113      0              0              9.6540475      9.6822931      0.2            93.473317    
      2100   0.21338352     0.00078499354  0.00078499354  0              0              477.21069      1140.5299     -186.26041      0             -60.423933      0              0              9.6530805      9.6784788      0.2            93.427134    
      2200   0.21480494     0.00090990239  0.00090990239  0              0              648.57166      994.05847      302.94382      0              215.87143      0              0              9.6521134      9.6695753      0.2            93.331838    
      2300   0.17679728     0.000717957    0.000717957    0              0              803.94273      1013.4897      594.23897      0              330.13887      0              0              9.6511464      9.6749473      0.2            93.374333    
      2400   0.1422746      0.00086492085  0.00086492085  0              0              298.68838      499.63043      97.573375      0              45.656595      0              0              9.6501794      9.6699571      0.2            93.316821    
      2500   0.2411607      0.0006919469   0.0006919469   0              0             -62.680698      388.34742     -513.88409      0              222.73498      0              0              9.6492124      9.6747494      0.2            93.353712    
      2600   0.18427317     0.0010980087   0.0010980087   0              0              405.86784      1480.8093     -669.23594      0             -165.73138      0              0              9.6482454      9.687233       0.2            93.464801    
      2700   0.1499287      0.00079272024  0.00079272024  0              0              464.27998      761.51087      166.89932      0             -360.57953      0              0              9.6472783      9.6783155      0.2            93.369404    
      2800   0.20420977     0.00091695682  0.00091695682  0              0              1347.2661      1794.8818      899.5218       0             -329.33368      0              0              9.6463113      9.6683527      0.2            93.26394     
      2900   0.21922086     0.00076873358  0.00076873358  0              0              781.76646      1088.3894      475.03774      0              137.49095      0              0              9.6453443      9.6743434      0.2            93.312373    
      3000   0.22701889     0.00069854703  0.00069854703  0              0             -48.225317      444.38043     -540.98681      0             -116.68278      0              0              9.6443773      9.6988676      0.2            93.539539    
      3100   0.18742669     0.00089837995  0.00089837995  0              0             -204.96706      543.17605     -953.2639       0             -964.6845       0              0              9.6434103      9.7081076      0.2            93.619265    
      3200   0.24625087     0.00087042232  0.00087042232  0              0              561.25546      1453.6743     -331.29276      0              15.564222      0              0              9.6424433      9.7078204      0.2            93.607107    
      3300   0.21553381     0.00076004092  0.00076004092  0              0              1197.6721      1570.1204      825.06152      0              65.586231      0              0              9.6414762      9.6936937      0.2            93.461517    
      3400   0.20553384     0.00087827525  0.00087827525  0              0              1274.9323      1632.3776      917.33293      0             -176.83302      0              0              9.6405092      9.6870567      0.2            93.38816     
      3500   0.20975872     0.0010035537   0.0010035537   0              0              590.19106      1228.6489     -48.415056      0              44.705171      0              0              9.6395422      9.6818786      0.2            93.328878    
      3600   0.22453569     0.00081264566  0.00081264566  0              0             -168.8341       409.0838      -746.8943       0              2.7545733      0              0              9.6385752      9.6851736      0.2            93.351274    
      3700   0.21813917     0.00075662827  0.00075662827  0              0              207.53625      1006.987      -592.06667      0             -144.23186      0              0              9.6376082      9.69359        0.2            93.423022    
      3800   0.21140181     0.00075255567  0.00075255567  0              0              673.89529      1178.6087      169.06301      0              367.91702      0              0              9.6366411      9.6906727      0.2            93.385535    
      3900   0.23860156     0.00070720489  0.00070720489  0              0              1352.9104      2022.5026      683.15375      0             -311.17362      0              0              9.6356741      9.6866732      0.2            93.337626    
      4000   0.23251883     0.00065579416  0.00065579416  0              0              749.21499      1141.039       357.2526       0             -96.941891      0              0              9.6347071      9.694306       0.2            93.401799    
      4100   0.20809577     0.0012484782   0.0012484782   0              0              164.44428      708.77549     -380.03653      0              145.65527      0              0              9.6337401      9.6944386      0.2            93.393701    
      4200   0.19094443     0.00098502048  0.00098502048  0              0              458.30573      1554.6646     -638.20762      0             -90.137558      0              0              9.6327731      9.7034436      0.2            93.47107     
      4300   0.17885567     0.00082380431  0.00082380431  0              0              465.45134      1042.576      -111.79129      0             -192.58966      0              0              9.631806       9.705771       0.2            93.484103    
      4400   0.28298874     0.0010139629   0.0010139629   0              0              1193.4543      1865.9748      520.79491      0             -469.11921      0              0              9.630839       9.7015953      0.2            93.434502    
      4500   0.2296219      0.0007149832   0.0007149832   0              0              903.08449      1212.8312      593.20036      0             -121.72888      0              0              9.629872       9.707779       0.2            93.48467     
      4600   0.19582584     0.0011433319   0.0011433319   0              0              571.9947       1272.1957     -128.31648      0              748.9659       0              0              9.628905       9.7081859      0.2            93.4792      
      4700   0.23780557     0.00083173788  0.00083173788  0              0              176.90754      951.67506     -598.0013       0              797.96588      0              0              9.627938       9.7091578      0.2            93.479169    
      4800   0.23039653     0.00099970624  0.00099970624  0              0              755.16004      1888.9104     -378.77638      0              27.752162      0              0              9.626971       9.7113874      0.2            93.491244    
      4900   0.21222706     0.00097650361  0.00097650361  0              0              640.29224      965.77092      314.65631      0              97.864071      0              0              9.6260039      9.7080833      0.2            93.450048    
      5000   0.20192044     0.00081803625  0.00081803625  0              0              1396.4566      2215.0486      577.6975       0              29.2801        0              0              9.6250369      9.7144269      0.2            93.501718    
      5100   0.2065326      0.00080305406  0.00080305406  0              0              430.86986      650.82377      210.76037      0              53.308342      0              0              9.6240699      9.7039434      0.2            93.39143     
      5200   0.23478998     0.00071328355  0.00071328355  0              0              605.90666      1569.3627     -357.72915      0             -257.255        0              0              9.6231029      9.7232615      0.2            93.567946    
      5300   0.23700026     0.00081896002  0.00081896002  0              0              533.34621      1491.3632     -424.85406      0              363.84809      0              0              9.6221359      9.7234158      0.2            93.560028    
      5400   0.1612302      0.00094353962  0.00094353962  0              0              965.80933      2075.1463     -143.69558      0             -274.18464      0              0              9.6211688      9.7187092      0.2            93.505343    
      5500   0.19677327     0.0010096517   0.0010096517   0              0              733.48281      1147.391       319.40552      0             -339.58364      0              0              9.6202018      9.7151171      0.2            93.461387    
      5600   0.2690072      0.0008828946   0.0008828946   0              0              1040.8324      1628.6404      452.884        0             -234.73726      0              0              9.6192348      9.7234108      0.2            93.531772    
      5700   0.20440858     0.0011053256   0.0011053256   0              0              914.01442      1830.8288     -2.9221533      0              554.72804      0              0              9.6182678      9.720116       0.2            93.490679    
      5800   0.19050349     0.00092240446  0.00092240446  0              0              662.3915       1593.5402     -268.93657      0             -326.80289      0              0              9.6173008      9.727352       0.2            93.55087     
      5900   0.20699884     0.00081756248  0.00081756248  0              0              984.39622      2195.3417     -226.69636      0              263.14813      0              0              9.6163337      9.7263347      0.2            93.531681    
      6000   0.24848172     0.0010386365   0.0010386365   0              0              1194.3001      2431.0776     -42.638446      0             -985.00215      0              0              9.6153667      9.7311225      0.2            93.568311    
      6100   0.2162201      0.00074466998  0.00074466998  0              0              866.75413      1443.6662      289.71905      0              11.142206      0              0              9.6143997      9.7270164      0.2            93.519423    
      6200   0.23522551     0.00089362777  0.00089362777  0              0              672.41512      1276.3864      68.285601      0             -99.552172      0              0              9.6134327      9.7339897      0.2            93.577055    
      6300   0.22157921     0.00089757302  0.00089757302  0              0              777.38621      1728.7781     -174.17605      0             -638.09525      0              0              9.6124657      9.7366523      0.2            93.593236    
      6400   0.17129975     0.0010381291   0.0010381291   0              0              777.31539      1714.2776     -159.82937      0              173.76535      0              0              9.6114987      9.7368719      0.2            93.585932    
      6500   0.2346242      0.0009206061   0.0009206061   0              0              955.33811      1909.1607      1.388763       0             -725.53611      0              0              9.6105316      9.7424913      0.2            93.630521    
      6600   0.22256318     0.00096066647  0.00096066647  0              0              1022.0477      1766.2038      277.73343      0             -514.33953      0              0              9.6095646      9.7406489      0.2            93.603395    
      6700   0.24894309     0.0009816308   0.0009816308   0              0              645.34062      1088.691       201.83345      0              4.1317656      0              0              9.6085976      9.7492751      0.2            93.676862    
      6800   0.20732874     0.00078779089  0.00078779089  0              0              914.81784      1844.414      -14.915327      0             -156.16826      0              0              9.6076306      9.7429676      0.2            93.606834    
      6900   0.22449721     0.00091122287  0.00091122287  0              0              293.45575      767.76381     -180.9912       0              54.416479      0              0              9.6066636      9.7367924      0.2            93.538088    
      7000   0.16406521     0.0009427317   0.0009427317   0              0              379.15049      889.41175     -131.23181      0              138.10437      0              0              9.6056965      9.7430685      0.2            93.588959    
      7100   0.21557408     0.00087242342  0.00087242342  0              0              662.45927      1283.8811      40.8701        0              288.31899      0              0              9.6047295      9.7356082      0.2            93.507883    
      7200   0.22949942     0.00093165186  0.00093165186  0              0              573.65221      978.71258      168.41735      0              552.74424      0              0              9.6037625      9.7379091      0.2            93.520567    
      7300   0.19658506     0.00091052398  0.00091052398  0              0              527.26994      989.7719       64.606472      0              143.12052      0              0              9.6027955      9.7473306      0.2            93.601622    
      7400   0.20472421     0.00080686628  0.00080686628  0              0              587.94136      1279.7196     -104.00329      0             -314.53063      0              0              9.6018285      9.7547646      0.2            93.663576    
      7500   0.18092747     0.00092474012  0.00092474012  0              0              254.51344      690.74761     -181.88917      0             -105.40983      0              0              9.6008614      9.765847       0.2            93.760544    
      7600   0.19961833     0.00094447183  0.00094447183  0              0              257.21837      673.56364     -159.27507      0             -454.92352      0              0              9.5998944      9.7639196      0.2            93.732598    
      7700   0.19654837     0.0009215522   0.0009215522   0              0              925.54171      1839.7919      11.159967      0             -1004.9504      0              0              9.5989274      9.7613025      0.2            93.698034    
      7800   0.21256263     0.00094484457  0.00094484457  0              0              785.27329      1514.7979      55.616231      0             -369.86713      0              0              9.5979604      9.7573686      0.2            93.650838    
      7900   0.19159449     0.0010046904   0.0010046904   0              0              1027.393       2105.8805     -51.231224      0              379.72303      0              0              9.5969934      9.7521821      0.2            93.591627    
      8000   0.17960785     0.0010312748   0.0010312748   0              0              786.58116      1695.9064     -122.85655      0              399.24221      0              0              9.5960264      9.7573375      0.2            93.631668    
      8100   0.19335761     0.00099499457  0.00099499457  0              0              828.3851       1732.0481     -75.411058      0              354.91001      0              0              9.5950593      9.7602181      0.2            93.649872    
      8200   0.16376445     0.00090646064  0.00090646064  0              0              784.23577      1488.9671      79.350106      0             -214.82333      0              0              9.5940923      9.7649904      0.2            93.68622     
      8300   0.23539186     0.0009805211   0.0009805211   0              0              914.41716      1688.9874      139.7084       0              195.04176      0              0              9.5931253      9.753274       0.2            93.564379    
      8400   0.29347383     0.00085091087  0.00085091087  0              0              763.67851      1501.6784      25.54457       0             -133.40108      0              0              9.5921583      9.7614009      0.2            93.632903    
      8500   0.23751769     0.00093598551  0.00093598551  0              0              902.93322      1811.5751     -5.8366013      0             -109.83573      0              0              9.5911913      9.7656316      0.2            93.66404     
      8600   0.22656583     0.0010171798   0.0010171798   0              0              229.06417      491.87692     -33.86198       0             -66.925417      0              0              9.5902242      9.7698536      0.2            93.695087    
      8700   0.20027356     0.0010161922   0.0010161922   0              0              490.45188      1073.9011     -93.153422      0             -228.61123      0              0              9.5892572      9.7760371      0.2            93.744934    
      8800   0.24169446     0.0010475203   0.0010475203   0              0              621.32264      1237.3617      5.1395746      0             -367.98623      0              0              9.5882902      9.7662696      0.2            93.641827    
      8900   0.21076266     0.00093215296  0.00093215296  0              0              376.09329      776.18438     -24.103196      0             -97.329432      0              0              9.5873232      9.7628608      0.2            93.599702    
      9000   0.17769398     0.0010743787   0.0010743787   0              0              930.49403      1779.1134      81.766552      0             -434.54742      0              0              9.5863562      9.7666225      0.2            93.626322    
      9100   0.19778899     0.00090603974  0.00090603974  0              0              795.93071      1516.3208      75.436814      0              219.03229      0              0              9.5853891      9.7714597      0.2            93.663243    
      9200   0.22843244     0.0010024734   0.0010024734   0              0              1320.6536      2631.4169      9.7571488      0             -922.37928      0              0              9.5844221      9.7720493      0.2            93.659446    
      9300   0.23498041     0.0010892504   0.0010892504   0              0              1240.6973      2617.3138     -136.08127      0             -570.20471      0              0              9.5834551      9.7616314      0.2            93.550157    
      9400   0.19816876     0.0010755589   0.0010755589   0              0              463.68691      1064.5656     -137.34499      0             -258.62277      0              0              9.5824881      9.7755065      0.2            93.673675    
      9500   0.216434       0.00097535576  0.00097535576  0              0              1441.1141      2915.9174     -33.833559      0             -124.69655      0              0              9.5815211      9.7698369      0.2            93.609898    
      9600   0.20343224     0.0012040437   0.0012040437   0              0              1270.5446      2313.3828      227.55628      0             -89.333311      0              0              9.5805541      9.7685648      0.2            93.588263    
      9700   0.253416       0.0011321773   0.0011321773   0              0              1569.7932      2991.7536      147.64575      0              434.94922      0              0              9.579587       9.7671611      0.2            93.56537     
      9800   0.21591218     0.0012169172   0.0012169172   0              0              988.14277      2115.8774     -139.7428       0             -178.8368       0              0              9.57862        9.7843057      0.2            93.720146    
      9900   0.20475714     0.0010827644   0.0010827644   0              0              1023.3133      2176.5989     -130.15269      0             -119.00457      0              0              9.577653       9.7868946      0.2            93.73548     
     10000   0.18794945     0.0010758387   0.0010758387   0              0              443.18648      1037.8734     -151.6312       0              175.00238      0              0              9.576686       9.7868677      0.2            93.725759    
     10100   0.17470862     0.0011242584   0.0011242584   0              0              552.42836      1169.6866     -64.986836      0             -213.84282      0              0              9.575719       9.7836023      0.2            93.685026    
     10200   0.17018876     0.0010784261   0.0010784261   0              0              762.61587      1383.6642      141.41429      0             -375.13347      0              0              9.5747519      9.778815       0.2            93.629728    
     10300   0.22495813     0.0010230797   0.0010230797   0              0              965.63393      1797.4722      133.67088      0             -362.17471      0              0              9.5737849      9.7837286      0.2            93.667314    
     10400   0.19184395     0.0011835477   0.0011835477   0              0              770.2858       1599.31       -58.877679      0             -266.17186      0              0              9.5728179      9.7773492      0.2            93.596783    
     10500   0.2389787      0.0011740065   0.0011740065   0              0              652.28058      1397.161      -92.747254      0             -1090.0703      0              0              9.5718509      9.7848263      0.2            93.658899    
     10600   0.19089792     0.0012029391   0.0012029391   0              0              958.91964      1865.9405      51.719885      0             -843.2901       0              0              9.5708839      9.791482       0.2            93.713137    
     10700   0.20593129     0.0011046049   0.0011046049   0              0              527.17595      1039.7424      14.4491        0             -365.37649      0              0              9.5699168      9.7833617      0.2            93.625958    
     10800   0.21230906     0.0011247749   0.0011247749   0              0              987.23431      1950.3505      23.930991      0             -196.50249      0              0              9.5689498      9.7779898      0.2            93.565094    
     10900   0.17676961     0.0010349212   0.0010349212   0              0              748.41755      1530.9647     -34.301387      0              729.97152      0              0              9.5679828      9.7738147      0.2            93.515691    
     11000   0.19854034     0.0012696133   0.0012696133   0              0              1095.7108      2142.8503      48.427765      0              467.25957      0              0              9.5670158      9.7726336      0.2            93.49494     
     11100   0.1805093      0.00089091231  0.00089091231  0              0              766.81699      1481.9456      51.528946      0             -592.78001      0              0              9.5660488      9.7781912      0.2            93.538654    
     11200   0.17306699     0.0010682089   0.0010682089   0              0              448.13009      960.32699     -64.177943      0              35.404691      0              0              9.5650818      9.777731       0.2            93.524796    
     11300   0.20374369     0.0010695919   0.0010695919   0              0              200.09754      498.14662     -98.107715      0              129.60437      0              0              9.5641147      9.7832687      0.2            93.568304    
     11400   0.18086431     0.0009679489   0.0009679489   0              0              552.64368      1230.6551     -125.50378      0             -48.894428      0              0              9.5631477      9.786212       0.2            93.586991    
     11500   0.18693386     0.0010431254   0.0010431254   0              0              526.21287      1098.3262     -46.042409      0             -361.77754      0              0              9.5621807      9.7829106      0.2            93.545959    
     11600   0.21070878     0.0011125842   0.0011125842   0              0              496.25945      726.65889      265.7056       0             -26.934885      0              0              9.5612137      9.7845254      0.2            93.551938    
     11700   0.20848915     0.001036729    0.001036729    0              0              794.80296      1373.2694      216.21065      0             -282.62977      0              0              9.5602467      9.7875653      0.2            93.571539    
     11800   0.29000911     0.0011562264   0.0011562264   0              0              646.23819      1291.7145      0.62613265     0              482.74056      0              0              9.5592796      9.7902361      0.2            93.587604    
     11900   0.20521694     0.00080678796  0.00080678796  0              0              678.63834      1701.7619     -344.61188      0              378.67674      0              0              9.5583126      9.7897744      0.2            93.573725    
     12000   0.21575344     0.0011757976   0.0011757976   0              0              520.87726      1304.9514     -263.34214      0             -395.64161      0              0              9.5573456      9.7950053      0.2            93.614251    
     12100   0.19244353     0.0010269827   0.0010269827   0              0              953.87525      1701.6071      206.03024      0              160.33743      0              0              9.5563786      9.7999687      0.2            93.652211    
     12200   0.22506306     0.001201797    0.001201797    0              0              1288.8563      2255.394       322.16171      0             -274.02347      0              0              9.5554116      9.8015995      0.2            93.658317    
     12300   0.22543702     0.0010594675   0.0010594675   0              0              729.82491      1381.1942      78.282873      0              183.64868      0              0              9.5544446      9.7978036      0.2            93.612571    
     12400   0.21384721     0.0011474188   0.0011474188   0              0              90.167498      577.71583     -397.50851      0              255.72671      0              0              9.5534775      9.7974014      0.2            93.599254    
     12500   0.18430064     0.0011405728   0.0011405728   0              0              99.457762      637.30651     -438.5306       0              196.01465      0              0              9.5525105      9.7986805      0.2            93.601998    
     12600   0.23781613     0.0010784647   0.0010784647   0              0              941.02774      1845.2749      36.628367      0              61.042343      0              0              9.5515435      9.8000331      0.2            93.605443    
     12700   0.17947163     0.001215598    0.001215598    0              0              876.50829      1232.8938      519.97571      0              483.01128      0              0              9.5505765      9.8065735      0.2            93.658431    
     12800   0.19258221     0.0011734222   0.0011734222   0              0              1238.5328      2006.6063      470.27273      0              318.78668      0              0              9.5496095      9.8105106      0.2            93.686545    
     12900   0.16043892     0.0012496758   0.0012496758   0              0              1282.6325      2639.1312     -74.012016      0              342.96493      0              0              9.5486424      9.8136589      0.2            93.70712     
     13000   0.17993277     0.0011247582   0.0011247582   0              0              763.337        2093.4215     -566.91395      0             -79.468966      0              0              9.5476754      9.8173481      0.2            93.732853    
     13100   0.25490027     0.0010176932   0.0010176932   0              0              574.2135       1589.6652     -441.38208      0             -311.2927       0              0              9.5467084      9.818302       0.2            93.732466    
     13200   0.1665151      0.0010655178   0.0010655178   0              0              1173.0842      2166.4539      179.59137      0             -190.02804      0              0              9.5457414      9.816057       0.2            93.701541    
     13300   0.20801563     0.0010743057   0.0010743057   0              0              1527.6829      2425.1358      630.0926       0              30.973019      0              0              9.5447744      9.8174812      0.2            93.705643    
     13400   0.20814023     0.00098186773  0.00098186773  0              0              1211.6388      2068.3027      354.82182      0              556.32916      0              0              9.5438073      9.8214369      0.2            93.733901    
     13500   0.23010541     0.00094925845  0.00094925845  0              0              393.3254       1118.0414     -331.53173      0              484.12249      0              0              9.5428403      9.8179893      0.2            93.691504    
     13600   0.22308191     0.0011756991   0.0011756991   0              0              870.95448      2476.8943     -735.13529      0             -507.12682      0              0              9.5418733      9.8222128      0.2            93.72231     
     13700   0.1797785      0.0013754661   0.0013754661   0              0              780.29361      1927.2077     -366.70301      0             -7.7797509      0              0              9.5409063      9.8191337      0.2            93.683434    
     13800   0.17633249     0.0014757169   0.0014757169   0              0              1375.6508      2380.797       370.37391      0             -82.474844      0              0              9.5399393      9.8101936      0.2            93.588651    
     13900   0.18173208     0.0012112806   0.0012112806   0              0              1747.0377      2814.53        679.39999      0             -415.71053      0              0              9.5389723      9.8121228      0.2            93.597567    
     14000   0.16334166     0.0011927265   0.0011927265   0              0              1428.2883      2588.2508      268.17422      0             -149.53877      0              0              9.5380052      9.8087685      0.2            93.556085    
     14100   0.24127157     0.0011016581   0.0011016581   0              0              1030.0173      2438.5363     -378.64833      0             -110.90189      0              0              9.5370382      9.8091252      0.2            93.550002    
     14200   0.21019371     0.0010751553   0.0010751553   0              0              858.93365      2363.5645     -645.8579       0             -343.08311      0              0              9.5360712      9.8115568      0.2            93.563705    
     14300   0.1640257      0.0010759828   0.0010759828   0              0              1129.5833      2442.2672     -183.24251      0             -118.87145      0              0              9.5351042      9.8140983      0.2            93.57845     
     14400   0.1914639      0.0010742828   0.0010742828   0              0              1601.6319      2812.4692      390.65478      0             -353.58076      0              0              9.5341372      9.8101594      0.2            93.531405    
     14500   0.19817539     0.0013774035   0.0013774035   0              0              1744.7941      2854.9843      634.45187      0             -278.27622      0              0              9.5331701      9.8128655      0.2            93.547717    
     14600   0.17396764     0.0013762492   0.0013762492   0              0              732.51601      1374.987       89.898744      0             -794.07134      0              0              9.5322031      9.8258471      0.2            93.66197     
     14700   0.18918481     0.0014355499   0.0014355499   0              0              502.14032      1538.6878     -534.55174      0             -404.51505      0              0              9.5312361      9.8230788      0.2            93.626084    
     14800   0.20746556     0.001221174    0.001221174    0              0              166.22041      979.66662     -647.38435      0              71.403946      0              0              9.5302691      9.820577       0.2            93.592741    
     14900   0.17472064     0.0014572634   0.0014572634   0              0              497.70168      1009.2568     -13.996025      0             -166.30903      0              0              9.5293021      9.8170289      0.2            93.549434    
     15000   0.27807053     0.0011613268   0.0011613268   0              0              1202.8631      1855.7502      549.8468       0              461.86981      0              0              9.528335       9.8160962      0.2            93.531053    
     15100   0.16906877     0.0014866866   0.0014866866   0              0              1498.4203      2402.0789      594.6116       0              82.154013      0              0              9.527368       9.8210598      0.2            93.568851    
     15200   0.21908597     0.001197408    0.001197408    0              0              942.11486      1954.6725     -70.583072      0              170.65515      0              0              9.526401       9.822029       0.2            93.568587    
     15300   0.17340384     0.0012897132   0.0012897132   0              0              702.14763      2106.8787     -702.73097      0              319.60199      0              0              9.525434       9.8220673      0.2            93.559454    
     15400   0.21539729     0.0013695171   0.0013695171   0              0              318.27837      1282.7017     -646.29254      0              4.6282457      0              0              9.524467       9.837635       0.2            93.69823     
     15500   0.17529047     0.0010708882   0.0010708882   0              0              929.4735       1848.4711      10.332149      0             -224.12905      0              0              9.5235         9.8300099      0.2            93.616099    
     15600   0.16873931     0.0013390353   0.0013390353   0              0              1633.7973      2399.7069      867.74         0              208.81624      0              0              9.5225329      9.8224967      0.2            93.535048    
     15700   0.22186741     0.0013860988   0.0013860988   0              0              1905.6265      2859.376       951.71018      0             -504.30055      0              0              9.5215659      9.8198632      0.2            93.500475    
     15800   0.20601646     0.0013512365   0.0013512365   0              0              790.51509      1671.4246     -90.529409      0             -153.90842      0              0              9.5205989      9.8352804      0.2            93.63776     
     15900   0.2010575      0.0011632418   0.0011632418   0              0              312.39993      1913.7366     -1289.0581      0             -263.75873      0              0              9.5196319      9.8394152      0.2            93.667611    
     16000   0.18307729     0.0015183176   0.0015183176   0              0             -349.89021      746.88827     -1446.8003      0              82.454636      0              0              9.5186649      9.847771       0.2            93.737631    
     16100   0.23491003     0.0009818919   0.0009818919   0              0              984.02922      2002.4911     -34.565915      0             -663.00252      0              0              9.5176978      9.8286613      0.2            93.546228    
     16200   0.17944524     0.001441268    0.001441268    0              0              2344.7688      2957.206       1732.1563      0              493.82549      0              0              9.5167308      9.8097439      0.2            93.356693    
     16300   0.2012134      0.0012748379   0.0012748379   0              0              2626.3193      3597.0267      1655.4711      0             -187.60817      0              0              9.5157638      9.8182943      0.2            93.42857     
     16400   0.19328127     0.0011818171   0.0011818171   0              0              1142.8403      2270.301       15.240885      0             -95.945665      0              0              9.5147968      9.8284567      0.2            93.515768    
     16500   0.20067015     0.0013914292   0.0013914292   0              0              94.774446      1663.2536     -1473.8549      0              10.963862      0              0              9.5138298      9.8390402      0.2            93.606954    
     16600   0.19433208     0.0012513422   0.0012513422   0              0              590.65582      2424.721      -1243.5494      0             -251.9005       0              0              9.5128627      9.8398707      0.2            93.60534     
     16700   0.15059625     0.001027382    0.001027382    0              0              1105.3031      2112.9121      97.554186      0              597.39558      0              0              9.5118957      9.8251393      0.2            93.455701    
     16800   0.24111576     0.0011157353   0.0011157353   0              0              1742.7029      2427.4526      1057.8019      0             -159.76309      0              0              9.5109287      9.8236818      0.2            93.432337    
     16900   0.23328625     0.0012450357   0.0012450357   0              0              1846.6723      2745.217       947.98262      0              381.64646      0              0              9.5099617      9.8256903      0.2            93.441939    
     17000   0.21602605     0.0011976517   0.0011976517   0              0              1191.3634      2430.1533     -47.55544       0              342.64133      0              0              9.5089947      9.8284752      0.2            93.458918    
     17100   0.16965973     0.0011803806   0.0011803806   0              0              971.11984      2701.4033     -759.26819      0             -296.78138      0              0              9.5080277      9.8312831      0.2            93.476112    
     17200   0.19985882     0.0013456644   0.0013456644   0              0              685.5051       2047.259      -676.39999      0              619.13987      0              0              9.5070606      9.8293382      0.2            93.448114    
     17300   0.20863397     0.001213153    0.001213153    0              0              1632.3472      3182.8022      81.721174      0              93.158835      0              0              9.5060936      9.8347256      0.2            93.489822    
     17400   0.14581381     0.0011927939   0.0011927939   0              0              1664.693       2535.6509      793.59558      0             -497.10622      0              0              9.5051266      9.8256925      0.2            93.394451    
     17500   0.2612484      0.001221538    0.001221538    0              0              1601.8463      2639.6542      563.8921       0             -300.40408      0              0              9.5041596      9.831166       0.2            93.43697     
     17600   0.15921603     0.0014040083   0.0014040083   0              0              1169.4         2548.2699     -209.60325      0             -552.14673      0              0              9.5031926      9.8458357      0.2            93.566872    
     17700   0.24301815     0.0011445359   0.0011445359   0              0              755.36353      2241.1927     -730.60321      0              53.309986      0              0              9.5022255      9.8271296      0.2            93.379602    
     17800   0.22773895     0.0014401074   0.0014401074   0              0              1101.747       2641.6857     -438.39138      0             -14.689097      0              0              9.5012585      9.8228948      0.2            93.329863    
     17900   0.19199736     0.0014349649   0.0014349649   0              0              1078.5588      1867.6617      289.2732       0             -178.10823      0              0              9.5002915      9.8298491      0.2            93.386432    
     18000   0.23760052     0.0013412403   0.0013412403   0              0              1656.5473      2633.5237      679.417        0              190.87977      0              0              9.4993245      9.8212643      0.2            93.295376    
     18100   0.20702756     0.0013324546   0.0013324546   0              0              1343.9221      2300.4259      387.24504      0             -13.87787       0              0              9.4983575      9.811165       0.2            93.189953    
     18200   0.23598036     0.0015078523   0.0015078523   0              0              852.97622      1913.8544     -208.05155      0              188.93704      0              0              9.4973904      9.8097661      0.2            93.167179    
     18300   0.20350267     0.0012043075   0.0012043075   0              0              917.13546      2349.4305     -515.34217      0              147.14619      0              0              9.4964234      9.8227417      0.2            93.280914    
     18400   0.1633266      0.0013771722   0.0013771722   0              0              1070.7497      2399.8175     -258.47048      0             -294.054        0              0              9.4954564      9.8166677      0.2            93.21374     
     18500   0.26095495     0.0012217166   0.0012217166   0              0              1410.1667      2610.9767      209.20887      0              80.722073      0              0              9.4944894      9.8129935      0.2            93.169363    
     18600   0.27160064     0.0014703955   0.0014703955   0              0              869.89563      1262.4363      477.22888      0              394.13225      0              0              9.4935224      9.8098509      0.2            93.130039    
     18700   0.17667756     0.0014622537   0.0014622537   0              0              308.73123      412.20987      205.09263      0              335.49551      0              0              9.4925554      9.8122614      0.2            93.143434    
     18800   0.1823235      0.0012494998   0.0012494998   0              0              525.96549      1282.2871     -230.50174      0              382.87552      0              0              9.4915883      9.8213408      0.2            93.220124    
     18900   0.23247893     0.0013130129   0.0013130129   0              0              521.3009       1522.3946     -479.93043      0              154.14849      0              0              9.4906213      9.827112       0.2            93.265398    
     19000   0.18931978     0.0012120829   0.0012120829   0              0              768.47968      1843.7333     -306.88669      0              11.327819      0              0              9.4896543      9.8338579      0.2            93.319912    
     19100   0.19814137     0.001222759    0.001222759    0              0              1032.6353      1866.4855      198.62745      0              205.32487      0              0              9.4886873      9.826357       0.2            93.239229    
     19200   0.21796576     0.0014251626   0.0014251626   0              0              1571.2349      2623.598       518.75352      0              260.66156      0              0              9.4877203      9.8238366      0.2            93.205813    
     19300   0.21952977     0.0012110161   0.0012110161   0              0              1344.3907      2310.9955      377.67012      0              237.00558      0              0              9.4867532      9.8182847      0.2            93.143644    
     19400   0.16664243     0.0011851527   0.0011851527   0              0              1321.2577      2724.5695     -82.220578      0              40.398631      0              0              9.4857862      9.8181236      0.2            93.132622    
     19500   0.18755707     0.0011228614   0.0011228614   0              0              699.79537      2004.7829     -605.34327      0             -327.26806      0              0              9.4848192      9.8295498      0.2            93.231502    
     19600   0.13828048     0.001402572    0.001402572    0              0              912.36157      2184.3359     -359.74725      0              326.18604      0              0              9.4838522      9.8196264      0.2            93.127886    
     19700   0.2225364      0.0012933419   0.0012933419   0              0              1525.0389      2839.6864      210.24497      0              341.90032      0              0              9.4828852      9.8195325      0.2            93.117499    
     19800   0.198494       0.0013113667   0.0013113667   0              0              1858.2664      3083.0327      633.34484      0             -756.41606      0              0              9.4819181      9.8326285      0.2            93.232179    
     19900   0.18093547     0.0013364621   0.0013364621   0              0              1572.2882      2663.1827      481.26593      0              104.64838      0              0              9.4809511      9.8287344      0.2            93.185751    
     20000   0.19918449     0.0014516922   0.0014516922   0              0              1419.6128      3072.6122     -233.50846      0             -401.58197      0              0              9.4799841      9.8389077      0.2            93.272689    
     20100   0.22797265     0.0013307122   0.0013307122   0              0              716.63285      1990.6805     -557.55138      0             -310.32413      0              0              9.4790171      9.8383223      0.2            93.257626    
     20200   0.17881065     0.0013092195   0.0013092195   0              0              731.49764      1922.1294     -459.28819      0              437.45394      0              0              9.4780501      9.8251357      0.2            93.123128    
     20300   0.1643661      0.0013575699   0.0013575699   0              0              1240.1858      2381.6082      98.621291      0              557.15633      0              0              9.4770831      9.8124787      0.2            92.993675    
     20400   0.24762968     0.001559499    0.001559499    0              0              1958.7737      3288.1855      629.24777      0              41.21174       0              0              9.476116       9.8143761      0.2            93.002167    
     20500   0.2169138      0.001321005    0.001321005    0              0              1662.3362      2732.9538      591.60127      0              15.814664      0              0              9.475149       9.8120437      0.2            92.970576    
     20600   0.23706338     0.0014017107   0.0014017107   0              0              1318.9063      2788.4747     -150.76963      0             -347.24177      0              0              9.474182       9.8215579      0.2            93.051228    
     20700   0.21220948     0.001373791    0.001373791    0              0              388.18875      1425.6776     -649.44477      0              69.686368      0              0              9.473215       9.8276181      0.2            93.099139    
     20800   0.15876659     0.0013701566   0.0013701566   0              0              852.17964      2208.0904     -503.85087      0             -370.35661      0              0              9.472248       9.8236695      0.2            93.052234    
     20900   0.20755897     0.0012884538   0.0012884538   0              0              1259.8454      2316.8232      202.70055      0              596.25217      0              0              9.4712809      9.8252042      0.2            93.05727     
     21000   0.22338805     0.0012533043   0.0012533043   0              0              1546.8793      2360.0969      733.50834      0              235.68809      0              0              9.4703139      9.8214105      0.2            93.011841    
     21100   0.21196949     0.0012946709   0.0012946709   0              0              1543.08        2466.8065      619.24218      0             -732.92401      0              0              9.4693469      9.8278566      0.2            93.063383    
     21200   0.22159761     0.0014258559   0.0014258559   0              0              1025.8484      2198.8526     -147.28954      0             -72.9608        0              0              9.4683799      9.8260866      0.2            93.037121    
     21300   0.22432394     0.0012310609   0.0012310609   0              0              560.85686      1897.8469     -776.33449      0             -198.01494      0              0              9.4674129      9.8442808      0.2            93.199871    
     21400   0.20850856     0.0011976236   0.0011976236   0              0              97.806251      851.85788     -656.39707      0             -757.6612       0              0              9.4664458      9.8444267      0.2            93.191732    
     21500   0.21341011     0.0013047795   0.0013047795   0              0              459.70498      926.45786     -7.1952449      0              66.705477      0              0              9.4654788      9.8389902      0.2            93.130753    
     21600   0.2171909      0.0011454014   0.0011454014   0              0              1206.7008      1848.8663      564.41067      0             -202.77372      0              0              9.4645118      9.8327725      0.2            93.062392    
     21700   0.17082882     0.0013659252   0.0013659252   0              0              1239.152       1742.8405      735.33285      0             -199.41724      0              0              9.4635448      9.8303995      0.2            93.030426    
     21800   0.20871022     0.0012173623   0.0012173623   0              0              567.64922      934.03536      201.09326      0              11.906838      0              0              9.4625778      9.8348369      0.2            93.062909    
     21900   0.2215569      0.001372171    0.001372171    0              0              459.93406      1348.2191     -428.49154      0             -345.73303      0              0              9.4616108      9.8383016      0.2            93.08618     
     22000   0.18273586     0.0014400861   0.0014400861   0              0              176.84124      1008.1179     -654.62789      0             -706.46651      0              0              9.4606437      9.8446398      0.2            93.13663     
     22100   0.15899533     0.001451812    0.001451812    0              0              655.49051      1540.8619     -230.02749      0             -518.879        0              0              9.4596767      9.8368363      0.2            93.053291    
     22200   0.25612213     0.0013120938   0.0013120938   0              0              1081.8439      1809.6021      353.94111      0             -138.93664      0              0              9.4587097      9.8317249      0.2            92.995432    
     22300   0.16570603     0.0014899355   0.0014899355   0              0              1252.0913      1860.1261      643.89915      0             -1303.105       0              0              9.4577427      9.8297924      0.2            92.967647    
     22400   0.23439508     0.0014907518   0.0014907518   0              0              886.25363      1435.1237      337.25139      0              143.44792      0              0              9.4567757      9.8250229      0.2            92.913037    
     22500   0.20912943     0.001343797    0.001343797    0              0              761.81159      1786.7964     -263.30109      0              27.781855      0              0              9.4558086      9.8447336      0.2            93.089917    
     22600   0.24344433     0.001336196    0.001336196    0              0              1000.2356      2502.2483     -501.93926      0             -112.98265      0              0              9.4548416      9.8496449      0.2            93.126833    
     22700   0.1629624      0.0013487864   0.0013487864   0              0              905.43633      2116.4391     -305.74638      0              375.75182      0              0              9.4538746      9.8416854      0.2            93.04206     
     22800   0.20837047     0.0012702402   0.0012702402   0              0              1253.4955      2382.5609      124.24986      0              214.86744      0              0              9.4529076      9.8451634      0.2            93.065419    
     22900   0.22458728     0.0013110154   0.0013110154   0              0              921.52118      1541.1948      301.6978       0              775.11704      0              0              9.4519406      9.8302414      0.2            92.914857    
     23000   0.20651407     0.0012471818   0.0012471818   0              0              1317.075       2416.1643      217.84693      0              307.05351      0              0              9.4509735      9.8351608      0.2            92.951845    
     23100   0.18745788     0.0013004512   0.0013004512   0              0              1204.4416      2548.2714     -139.52989      0             -204.16575      0              0              9.4500065      9.8369344      0.2            92.959094    
     23200   0.19870472     0.0013017915   0.0013017915   0              0              754.57444      1889.6399     -380.60678      0              572.96873      0              0              9.4490395      9.8393727      0.2            92.972621    
     23300   0.18523758     0.0012677037   0.0012677037   0              0              484.94015      1238.366      -268.60649      0              200.81838      0              0              9.4480725      9.8378904      0.2            92.949102    
     23400   0.17760958     0.0012659241   0.0012659241   0              0              930.34345      1740.3407      120.1856       0              364.67775      0              0              9.4471055      9.8342585      0.2            92.905278    
     23500   0.20492161     0.001294291    0.001294291    0              0              642.15227      838.20178      445.93979      0              931.45176      0              0              9.4461385      9.8315947      0.2            92.870605    
     23600   0.20661897     0.0013823629   0.0013823629   0              0              1069.4823      1870.4565      268.37375      0              360.85221      0              0              9.4451714      9.8301505      0.2            92.847457    
     23700   0.18777277     0.0011888242   0.0011888242   0              0              832.37038      1776.2367     -111.62807      0              524.34256      0              0              9.4442044      9.8396434      0.2            92.927604    
     23800   0.196815       0.0012773206   0.0012773206   0              0              774.43067      1922.1007     -373.37833      0              936.21671      0              0              9.4432374      9.8366798      0.2            92.890103    
     23900   0.16536999     0.0011762542   0.0011762542   0              0              558.71753      1270.0492     -152.75697      0              537.6287       0              0              9.4422704      9.8364514      0.2            92.878434    
     24000   0.2154238      0.0012698916   0.0012698916   0              0              263.92476      369.46053      158.26211      0             -236.87672      0              0              9.4413034      9.8393456      0.2            92.896246    
     24100   0.18738097     0.0012446684   0.0012446684   0              0              632.15632      1044.4434      219.74359      0              714.31927      0              0              9.4403363      9.8361989      0.2            92.857026    
     24200   0.2092097      0.0010680641   0.0010680641   0              0              1149.7614      2152.7705      146.62554      0             -103.75667      0              0              9.4393693      9.8365699      0.2            92.851016    
     24300   0.20983944     0.0012535875   0.0012535875   0              0              1201.343       2542.172      -139.63708      0              368.91699      0              0              9.4384023      9.8337943      0.2            92.815307    
     24400   0.21167704     0.0013930327   0.0013930327   0              0              513.44545      1318.7217     -292.00801      0              158.68105      0              0              9.4374353      9.8357818      0.2            92.824554    
     24500   0.20989346     0.0012830315   0.0012830315   0              0              991.21727      2123.8301     -141.57975      0              685.04448      0              0              9.4364683      9.8369501      0.2            92.826068    
     24600   0.22845296     0.001404103    0.001404103    0              0              1063.4677      2046.1912      80.552704      0              440.42786      0              0              9.4355013      9.8317572      0.2            92.767557    
     24700   0.17637681     0.0015198893   0.0015198893   0              0              1220.2557      2165.8243      274.55373      0              887.68885      0              0              9.4345342      9.8218898      0.2            92.664956    
     24800   0.22826666     0.0012368156   0.0012368156   0              0              1075.1793      1921.5835      228.6276       0             -132.42436      0              0              9.4335672      9.8304851      0.2            92.736542    
     24900   0.17873414     0.0013816813   0.0013816813   0              0              968.27889      1971.3304     -34.913167      0              265.7633       0              0              9.4326002      9.8217599      0.2            92.644734    
     25000   0.19159039     0.0012830736   0.0012830736   0              0              637.42231      1627.7232     -353.00918      0              116.31221      0              0              9.4316332      9.8239147      0.2            92.65556     
     25100   0.16176612     0.0014574212   0.0014574212   0              0              354.4181       995.42749     -286.75493      0             -439.99855      0              0              9.4306662      9.8407855      0.2            92.805163    
     25200   0.18462832     0.0015237177   0.0015237177   0              0              999.4347       2091.7111     -93.018204      0              167.80045      0              0              9.4296991      9.8349742      0.2            92.740848    
     25300   0.23443602     0.0013365512   0.0013365512   0              0              880.46067      1455.2353      305.52787      0              189.26324      0              0              9.4287321      9.8340741      0.2            92.72285     
     25400   0.25454147     0.0012790135   0.0012790135   0              0              1465.5828      2479.6539      451.35245      0             -149.56455      0              0              9.4277651      9.8345497      0.2            92.717825    
     25500   0.24373236     0.0015699254   0.0015699254   0              0              781.3434       1471.6346      90.919033      0             -78.657693      0              0              9.4267981      9.8409211      0.2            92.768376    
     25600   0.2109425      0.0015252545   0.0015252545   0              0              935.23257      2323.3908     -453.10418      0             -402.9358       0              0              9.4258311      9.853044       0.2            92.873128    
     25700   0.21757969     0.0014101088   0.0014101088   0              0              590.56838      1907.6318     -726.65054      0             -97.749751      0              0              9.424864       9.8555853      0.2            92.887552    
     25800   0.27737829     0.0012163963   0.0012163963   0              0              1254.3546      2689.9386     -181.39223      0             -641.12234      0              0              9.423897       9.8521836      0.2            92.845964    
     25900   0.22550101     0.0013505867   0.0013505867   0              0              1310.4619      1917.6144      703.16216      0             -261.30028      0              0              9.42293        9.8446011      0.2            92.764987    
     26000   0.21615451     0.0013163466   0.0013163466   0              0              1916.1154      2853.3742      978.68892      0             -65.994028      0              0              9.421963       9.8422552      0.2            92.733365    
     26100   0.15207737     0.0011634831   0.0011634831   0              0              1060.5696      1581.8232      539.16663      0             -553.13687      0              0              9.420996       9.843988       0.2            92.740171    
     26200   0.18535001     0.0012535981   0.0012535981   0              0              515.30314      1544.3192     -513.8531       0             -90.048635      0              0              9.420029       9.8646062      0.2            92.924876    
     26300   0.15829798     0.0012783307   0.0012783307   0              0              151.6458       1629.0055     -1325.8714      0             -659.18899      0              0              9.4190619      9.8667315      0.2            92.935355    
     26400   0.27946647     0.0014162056   0.0014162056   0              0              487.16486      2021.9202     -1047.7707      0             -220.92939      0              0              9.4180949      9.8641146      0.2            92.901168    
     26500   0.23628579     0.0014776635   0.0014776635   0              0              1375.4327      2488.8683      261.85735      0             -23.783346      0              0              9.4171279      9.8570925      0.2            92.825501    
     26600   0.22596505     0.0015500352   0.0015500352   0              0              2192.1996      3014.5463      1369.7089      0              184.00097      0              0              9.4161609      9.8534713      0.2            92.781871    
     26700   0.20109446     0.0013838236   0.0013838236   0              0              2106.2107      2902.1319      1310.1637      0             -32.499564      0              0              9.4151939      9.8489402      0.2            92.729681    
     26800   0.1470206      0.001548701    0.001548701    0              0              1480.5976      2778.8793      182.16589      0              315.71536      0              0              9.4142268      9.8568757      0.2            92.794863    
     26900   0.20220416     0.001413222    0.001413222    0              0              426.89425      1858.2361     -1004.5739      0             -154.44732      0              0              9.4132598      9.8659483      0.2            92.870734    
     27000   0.17684546     0.0013898094   0.0013898094   0              0              469.78216      2151.6447     -1212.2424      0             -261.44076      0              0              9.4122928      9.859443       0.2            92.799964    
     27100   0.24223038     0.0015048806   0.0015048806   0              0              625.40099      1800.237      -549.5484       0              381.36636      0              0              9.4113258      9.8642664      0.2            92.835824    
     27200   0.22772773     0.0013582307   0.0013582307   0              0              1176.2879      1910.074       442.36427      0              744.21398      0              0              9.4103588      9.8615972      0.2            92.801168    
     27300   0.19281855     0.0014051948   0.0014051948   0              0              1401.9017      1917.6176      886.03811      0             -202.58073      0              0              9.4093917      9.8598142      0.2            92.774854    
     27400   0.22797215     0.0012604517   0.0012604517   0              0              875.00696      1076.432       673.46232      0             -817.34471      0              0              9.4084247      9.8493183      0.2            92.66657     
     27500   0.18013928     0.0013000522   0.0013000522   0              0              748.59439      1394.5056      102.54058      0             -96.643715      0              0              9.4074577      9.8614503      0.2            92.771176    
     27600   0.18666891     0.0013164943   0.0013164943   0              0              255.15076      1075.6357     -565.47632      0              129.91393      0              0              9.4064907      9.8603383      0.2            92.75118     
     27700   0.18105689     0.0012929765   0.0012929765   0              0              144.571        1099.6224     -810.61435      0             -586.03475      0              0              9.4055237      9.8698824      0.2            92.831412    
     27800   0.2384919      0.0012254121   0.0012254121   0              0              385.90579      1113.7032     -342.05239      0             -305.22348      0              0              9.4045567      9.8580014      0.2            92.710132    
     27900   0.20818211     0.0012298928   0.0012298928   0              0              730.88499      1146.5968      315.01754      0              469.56253      0              0              9.4035896      9.8539999      0.2            92.662971    
     28000   0.22881963     0.0013152104   0.0013152104   0              0              1254.7661      1760.8536      748.53229      0             -598.14837      0              0              9.4026226      9.8565273      0.2            92.677206    
     28100   0.24347        0.0013701252   0.0013701252   0              0              1230.6929      1902.9471      558.29542      0             -155.21959      0              0              9.4016556      9.8534232      0.2            92.638491    
[...]
     43100   0.18997284     0.0015041292   0.0015041292   0              0             -211.52002      490.09916     -913.29991      0              268.05474      0              0              9.2566028      9.8948583      0.2            91.592773    
     43200   0.21123478     0.0015278188   0.0015278188   0              0              270.95342      1341.7222     -799.97496      0             -254.9489       0              0              9.2556358      9.8863413      0.2            91.504375    
     43300   0.17562512     0.0015854447   0.0015854447   0              0              145.30702      865.66432     -575.22331      0              184.94186      0              0              9.2546688      9.8909338      0.2            91.537316    
     43400   0.16957869     0.0015836925   0.0015836925   0              0              474.14619      907.0232       41.120129      0              330.52881      0              0              9.2537017      9.8808406      0.2            91.434351    
     43500   0.19050444     0.0016315807   0.0016315807   0              0              1081.1815      1638.5207      523.67428      0              42.924866      0              0              9.2527347      9.8752799      0.2            91.373346    
     43600   0.24950719     0.0015256741   0.0015256741   0              0              1267.0218      1685.4364      848.49382      0              236.71843      0              0              9.2517677      9.8818849      0.2            91.424903    
     43700   0.21210099     0.0014846973   0.0014846973   0              0              1234.6793      1569.0811      900.12612      0             -249.87887      0              0              9.2508007      9.8770983      0.2            91.371068    
     43800   0.27571345     0.0017570502   0.0017570502   0              0              1161.8491      1670.5029      653.03235      0             -132.82248      0              0              9.2498337      9.8932797      0.2            91.511191    
     43900   0.18303124     0.001555552    0.001555552    0              0              1153.1551      1946.6525      359.54122      0              111.31149      0              0              9.2488666      9.890161       0.2            91.47278     
     44000   0.21632999     0.0017490442   0.0017490442   0              0              899.49003      1790.2736      8.5511985      0             -409.54797      0              0              9.2478996      9.8943872      0.2            91.5023      
     44100   0.22383832     0.001402835    0.001402835    0              0              477.50394      1352.3923     -397.49124      0             -208.7616       0              0              9.2469326      9.9029105      0.2            91.571546    
     44200   0.17911567     0.0015816209   0.0015816209   0              0             -260.93638      308.37252     -830.39453      0              189.90798      0              0              9.2459656      9.9075347      0.2            91.604724    
     44300   0.24355194     0.0015203865   0.0015203865   0              0              195.81904      1273.5396     -882.03996      0              210.36274      0              0              9.2449986      9.902667       0.2            91.550143    
     44400   0.19065587     0.0015248998   0.0015248998   0              0              334.72333      1394.6299     -725.325        0             -230.35793      0              0              9.2440315      9.9023371      0.2            91.537517    
     44500   0.18976867     0.0015296743   0.0015296743   0              0              237.4729       833.34506     -358.53145      0             -218.60498      0              0              9.2430645      9.8900617      0.2            91.414479    
     44600   0.19308001     0.0017430343   0.0017430343   0              0              788.72493      1735.0498     -157.76135      0             -515.55772      0              0              9.2420975      9.8971199      0.2            91.470147    
     44700   0.19401373     0.0016795025   0.0016795025   0              0              897.14166      1590.2519      203.88501      0              171.46828      0              0              9.2411305      9.8921619      0.2            91.414759    
     44800   0.20909224     0.001484109    0.001484109    0              0              1087.7791      1749.2383      426.14344      0              73.250383      0              0              9.2401635      9.9003307      0.2            91.480674    
     44900   0.18793869     0.0016549589   0.0016549589   0              0              869.14677      1259.2817      478.87019      0             -463.66135      0              0              9.2391965      9.9044504      0.2            91.509163    
     45000   0.20345192     0.0015261199   0.0015261199   0              0              996.92356      1594.4746      399.23157      0             -168.2936       0              0              9.2382294      9.9049958      0.2            91.504624    
     45100   0.1905144      0.0016240986   0.0016240986   0              0              615.35299      904.19147      326.34391      0             -810.55941      0              0              9.2372624      9.9044584      0.2            91.490081    
     45200   0.19410867     0.0014766358   0.0014766358   0              0              557.08411      952.47967      161.51526      0              72.926798      0              0              9.2362954      9.9001547      0.2            91.440753    
     45300   0.26832215     0.0016021522   0.0016021522   0              0              504.89983      1048.6746     -39.043103      0              34.802094      0              0              9.2353284      9.8997435      0.2            91.427382    
     45400   0.21188122     0.0016080968   0.0016080968   0              0              664.76606      1493.9321     -164.53561      0             -382.1825       0              0              9.2343614      9.9000739      0.2            91.42086     
     45500   0.23968886     0.0017685402   0.0017685402   0              0              769.88619      1786.8076     -247.16434      0              396.15678      0              0              9.2333943      9.9055577      0.2            91.461921    
     45600   0.2262906      0.0015289636   0.0015289636   0              0              553.78633      1270.5944     -163.18334      0             -116.25072      0              0              9.2324273      9.8953732      0.2            91.358314    
     45700   0.19430625     0.0015512241   0.0015512241   0              0              274.13995      764.05589     -215.93085      0             -259.94978      0              0              9.2314603      9.8949413      0.2            91.344758    
     45800   0.22547464     0.001560225    0.001560225    0              0              118.48816      424.87673     -188.07198      0             -500.94004      0              0              9.2304933      9.9019011      0.2            91.399431    
     45900   0.22522363     0.0015861897   0.0015861897   0              0              347.39983      724.575       -29.941239      0              37.920386      0              0              9.2295263      9.8985422      0.2            91.358855    
     46000   0.23076174     0.0016290801   0.0016290801   0              0              514.03808      974.50111      53.388945      0              241.95721      0              0              9.2285592      9.8940102      0.2            91.30746     
     46100   0.1829242      0.0016523277   0.0016523277   0              0              546.72104      1036.9158      56.410484      0              429.05711      0              0              9.2275922      9.8905647      0.2            91.266098    
     46200   0.22671857     0.0016535673   0.0016535673   0              0              1206.7566      2392.8337      20.545104      0              459.13537      0              0              9.2266252      9.8964334      0.2            91.310682    
     46300   0.18565581     0.0015378288   0.0015378288   0              0              713.61979      1423.5187      3.5940049      0              251.55178      0              0              9.2256582      9.8906699      0.2            91.247939    
     46400   0.18552033     0.0016705127   0.0016705127   0              0              60.07468       94.041654      25.953048      0              117.90063      0              0              9.2246912      9.8939148      0.2            91.268308    
     46500   0.21645938     0.0014778615   0.0014778615   0              0              423.33514      805.2198       41.262976      0             -610.45037      0              0              9.2237242      9.8935595      0.2            91.255464    
     46600   0.20761814     0.00149182     0.00149182     0              0              573.54368      1295.2185     -148.29902      0             -320.18351      0              0              9.2227571      9.8960362      0.2            91.268739    
     46700   0.21857993     0.0015961622   0.0015961622   0              0              216.72507      688.05208     -254.76772      0             -559.22293      0              0              9.2217901      9.9055519      0.2            91.346921    
     46800   0.22795003     0.0016336353   0.0016336353   0              0              681.55707      1583.6667     -220.71263      0              79.098099      0              0              9.2208231      9.9023811      0.2            91.308104    
     46900   0.21378897     0.0017042056   0.0017042056   0              0              1106.3886      2394.9291     -182.29663      0              201.93231      0              0              9.2198561      9.9026676      0.2            91.30117     
     47000   0.19439649     0.0016345532   0.0016345532   0              0              534.03525      1194.011      -126.08824      0             -388.87109      0              0              9.2188891      9.9015771      0.2            91.281541    
     47100   0.21671815     0.0016909718   0.0016909718   0              0              1374.17        2940.1571     -191.98323      0             -342.65111      0              0              9.217922       9.9001534      0.2            91.258842    
     47200   0.22118424     0.0017231698   0.0017231698   0              0              904.18421      2048.2908     -240.13189      0              45.201287      0              0              9.216955       9.9011457      0.2            91.258414    
     47300   0.21335408     0.0016857364   0.0016857364   0              0              1173.7971      2541.7471     -194.31765      0             -758.29092      0              0              9.215988       9.9065843      0.2            91.298963    
     47400   0.19335563     0.0016567395   0.0016567395   0              0              1320.7359      2655.6875     -14.383631      0             -504.76878      0              0              9.215021       9.9074478      0.2            91.297339    
     47500   0.20874025     0.00148552     0.00148552     0              0              1024.8371      1971.54        77.980344      0             -147.8868       0              0              9.214054       9.8976262      0.2            91.197262    
     47600   0.22593914     0.0016526001   0.0016526001   0              0              787.09362      1365.3774      208.63824      0             -173.33164      0              0              9.2130869      9.8948326      0.2            91.161953    
     47700   0.1827782      0.001851971    0.001851971    0              0              569.45482      903.13188      235.60487      0             -650.64393      0              0              9.2121199      9.8893         0.2            91.101417    
     47800   0.16271952     0.0015927531   0.0015927531   0              0              396.08772      466.79826      325.23518      0             -127.01284      0              0              9.2111529      9.9003007      0.2            91.193184    
     47900   0.18500733     0.0014322361   0.0014322361   0              0              632.84205      914.92922      350.59807      0              8.3304839      0              0              9.2101859      9.8960956      0.2            91.14488     
     48000   0.18493477     0.0013488969   0.0013488969   0              0              768.98394      1294.2367      243.59543      0             -246.57885      0              0              9.2092189      9.8961685      0.2            91.135982    
     48100   0.23429833     0.0016101096   0.0016101096   0              0              883.786        1677.4938      89.933083      0             -605.07541      0              0              9.2082519      9.899744       0.2            91.159336    
     48200   0.18346444     0.001491381    0.001491381    0              0              665.06047      1444.2289     -114.27412      0             -3.8602878      0              0              9.2072848      9.8966321      0.2            91.121111    
     48300   0.21886607     0.0013921129   0.0013921129   0              0              626.29202      1514.0108     -261.59367      0              199.92716      0              0              9.2063178      9.9022006      0.2            91.162806    
     48400   0.22166865     0.0016085306   0.0016085306   0              0              716.85015      1921.0792     -487.54785      0             -322.75527      0              0              9.2053508      9.9090931      0.2            91.216678    
     48500   0.23381003     0.0015813386   0.0015813386   0              0              33.596846      796.12314     -729.05453      0             -320.63731      0              0              9.2043838      9.9148869      0.2            91.260424    
     48600   0.20975937     0.0014243621   0.0014243621   0              0             -243.28558      438.04318     -924.73079      0              444.9769       0              0              9.2034168      9.9213602      0.2            91.310413    
     48700   0.24028771     0.0014423934   0.0014423934   0              0             -158.93009      461.01043     -779.00709      0             -737.23633      0              0              9.2024497      9.9160514      0.2            91.251964    
     48800   0.23711577     0.0018359216   0.0018359216   0              0             -153.81671      204.91677     -512.67177      0             -560.24577      0              0              9.2014827      9.9081501      0.2            91.169672    
     48900   0.19463555     0.0017787976   0.0017787976   0              0             -289.533       -515.89414     -63.324322      0             -381.06862      0              0              9.2005157      9.8975118      0.2            91.062213    
     49000   0.27167268     0.0015268843   0.0015268843   0              0              144.76524     -1.2584359      290.62474      0             -328.86287      0              0              9.1995487      9.9049406      0.2            91.120983    
     49100   0.19038538     0.0016354078   0.0016354078   0              0              692.22755      714.18134      670.09223      0             -82.554893      0              0              9.1985817      9.8930857      0.2            91.002357    
     49200   0.21436297     0.0016339965   0.0016339965   0              0              1420.4832      1877.0842      963.73242      0              284.98385      0              0              9.1976146      9.8940147      0.2            91.001334    
     49300   0.22186371     0.0016152616   0.0016152616   0              0              1095.2975      1114.4055      1076.0579      0             -230.82564      0              0              9.1966476      9.9021966      0.2            91.067013    
     49400   0.20402359     0.001733348    0.001733348    0              0              798.89247      698.45007      899.2189       0              452.5302       0              0              9.1956806      9.8989909      0.2            91.027958    
     49500   0.20237715     0.0015953098   0.0015953098   0              0              829.1695       937.94133      720.21913      0              244.93546      0              0              9.1947136      9.9038553      0.2            91.063113    
     49600   0.20547623     0.0017006584   0.0017006584   0              0              755.79635      1171.4523      340.00672      0              316.25549      0              0              9.1937466      9.9000739      0.2            91.018771    
     49700   0.22430375     0.0017231093   0.0017231093   0              0              802.67737      1700.4576     -95.233486      0             -500.41085      0              0              9.1927796      9.907094       0.2            91.073732    
     49800   0.17291547     0.001695363    0.001695363    0              0              530.99491      1565.9192     -504.07336      0             -229.5071       0              0              9.1918125      9.9040789      0.2            91.036436    
     49900   0.18526227     0.0018143785   0.0018143785   0              0             -60.285319      786.79078     -907.51113      0              299.21956      0              0              9.1908455      9.905867       0.2            91.043293    
     50000   0.17370652     0.0016324488   0.0016324488   0              0             -32.168343      1057.6346     -1122.142       0             -161.1766       0              0              9.1898785      9.9123112      0.2            91.092936    
     50100   0.20969581     0.0017590365   0.0017590365   0              0              307.57578      1620.685      -1005.7065      0              184.86771      0              0              9.1889115      9.9154319      0.2            91.112026    
     50200   0.21649086     0.0017155834   0.0017155834   0              0              204.13992      1092.1698     -684.05607      0              60.530161      0              0              9.1879445      9.9058906      0.2            91.014772    
     50300   0.20031478     0.0020088031   0.0020088031   0              0              291.13187      1019.4237     -437.31766      0             -225.44648      0              0              9.1869774      9.9091669      0.2            91.035293    
     50331   0.23266644     0.0017524208   0.0017524208   0              0              233.38373      1286.0267     -819.41127      0             -132.0186       0              0              9.1866777      9.9148241      0.2            91.084294    
Loop time of 0.9409 on 1 procs for 50000 steps with 50 atoms

Performance: 45913.504 ns/day, 0.001 hours/ns, 53140.630 timesteps/s
99.6% CPU use with 1 MPI tasks x 1 OpenMP threads

MPI task timing breakdown:
Section |  min time  |  avg time  |  max time  |%varavg| %total
---------------------------------------------------------------
Pair    | 0          | 0          | 0          |   0.0 |  0.00
Bond    | 0.13665    | 0.13665    | 0.13665    |   0.0 | 14.52
Neigh   | 0          | 0          | 0          |   0.0 |  0.00
Comm    | 0.30309    | 0.30309    | 0.30309    |   0.0 | 32.21
Output  | 0.006285   | 0.006285   | 0.006285   |   0.0 |  0.67
Modify  | 0.4712     | 0.4712     | 0.4712     |   0.0 | 50.08
Other   |            | 0.02367    |            |       |  2.52

Nlocal:             50 ave          50 max          50 min
Histogram: 1 0 0 0 0 0 0 0 0 0
Nghost:            412 ave         412 max         412 min
Histogram: 1 0 0 0 0 0 0 0 0 0
Neighs:              0 ave           0 max           0 min
Histogram: 1 0 0 0 0 0 0 0 0 0

Total # of neighbors = 0
Ave neighs/atom = 0
Ave special neighs/atom = 22.44
Neighbor list builds = 0
Dangerous builds = 0


Total wall time: 0:00:00
