LAMMPS data file.

     50 atoms
    110 bonds
      0 angles
      0 dihedrals
      0 impropers
      1 atom types
    110 bond types
      0 angle types
      0 dihedral types
      0 improper types
  -4.835094   4.835094 xlo xhi
  -4.835094   4.835094 ylo yhi
  -0.100000   0.100000 zlo zhi

Masses # ['atom_id', 'mass']

1 10000.0

Atoms # ['atomID', 'moleculeID', 'atomType', 'charge', 'x', 'y', 'z']

      8      1      1   0.000000  -4.219618  -3.951937   0.000000
      1      1      1   0.000000  -2.713000  -4.141524   0.000000
     41      1      1   0.000000  -0.725778  -4.577065   0.000000
     16      1      1   0.000000   0.893793  -4.399596   0.000000
     13      1      1   0.000000   3.639891  -4.222782   0.000000
     77      1      1   0.000000  -4.446142  -2.943216   0.000000
     29      1      1   0.000000  -1.657116  -3.282323   0.000000
     20      1      1   0.000000  -0.139412  -3.458932   0.000000
     44      1      1   0.000000   0.382690  -2.503293   0.000000
      5      1      1   0.000000   1.557164  -3.184857   0.000000
     66      1      1   0.000000   2.774533  -3.620451   0.000000
     21      1      1   0.000000   3.179847  -2.880499   0.000000
     35      1      1   0.000000   4.302462  -3.287945   0.000000
     69      1      1   0.000000  -4.455397  -2.365046   0.000000
     53      1      1   0.000000  -4.060564  -1.806874   0.000000
     10      1      1   0.000000  -3.387187  -2.741768   0.000000
     33      1      1   0.000000  -2.262213  -2.215846   0.000000
      7      1      1   0.000000  -0.845061  -2.173508   0.000000
      3      1      1   0.000000   1.401364  -1.811093   0.000000
     79      1      1   0.000000   2.297052  -2.428281   0.000000
     39      1      1   0.000000   4.190225  -2.081086   0.000000
     56      1      1   0.000000  -4.811922  -1.312403   0.000000
      6      1      1   0.000000  -2.727776  -0.920620   0.000000
     60      1      1   0.000000  -1.332203  -1.069197   0.000000
     62      1      1   0.000000  -0.544344  -1.265931   0.000000
     54      1      1   0.000000   0.190393  -1.548272   0.000000
     12      1      1   0.000000   0.868746  -0.363365   0.000000
     55      1      1   0.000000   2.102715  -0.734805   0.000000
     36      1      1   0.000000   2.809693  -1.576215   0.000000
     70      1      1   0.000000   3.671155  -1.327768   0.000000
      4      1      1   0.000000  -4.218403  -0.283051   0.000000
     14      1      1   0.000000  -2.805508   0.315233   0.000000
     50      1      1   0.000000  -1.749042  -0.092863   0.000000
      2      1      1   0.000000  -0.553423  -0.194606   0.000000
     31      1      1   0.000000   1.923955   0.400401   0.000000
     28      1      1   0.000000   2.959255  -0.185033   0.000000
     34      1      1   0.000000   4.027682  -0.480965   0.000000
     17      1      1   0.000000  -3.898594   1.208273   0.000000
     25      1      1   0.000000  -2.689331   1.584843   0.000000
      9      1      1   0.000000  -2.109720   2.872631   0.000000
     24      1      1   0.000000  -3.945111   4.027411   0.000000
     11      1      1   0.000000  -3.732852   2.634187   0.000000
     57      1      1   0.000000  -2.967592   3.478504   0.000000
     26      1      1   0.000000   0.700428   3.961584   0.000000
     43      1      1   0.000000  -2.938286   4.321226   0.000000
     15      1      1   0.000000  -1.747257   4.367847   0.000000
     40      1      1   0.000000  -0.554044   3.893190   0.000000
     74      1      1   0.000000  -0.039803   4.709564   0.000000
     65      1      1   0.000000   1.490281   4.315804   0.000000
     18      1      1   0.000000   2.299175  -4.585884   0.000000

Bond Coeffs # ['bondID', 'bondCoeff', 'd']

      1   0.686432   1.206983
      2   0.651242   1.239164
      3   0.623394   1.266540
      4   0.615230   1.274915
      5   0.708300   1.188205
      6   0.779629   1.132547
      7   0.503493   1.409300
      8   0.608606   1.281835
      9   0.845182   1.087740
     10   1.053693   0.974188
     11   1.194856   0.914834
     12   0.680686   1.212067
     13   0.539632   1.361292
     14   0.429862   1.525230
     15   0.501418   1.412213
     16   0.523149   1.382571
     17   0.627334   1.262556
     18   0.522015   1.384071
     19   0.753317   1.152155
     20   0.438567   1.510018
     21   0.909072   1.048820
     22   0.703867   1.191941
     23   0.795645   1.121089
     24   0.438567   1.510018
     25   0.433681   1.518500
     26   0.789006   1.125796
     27   0.789006   1.125796
     28   2.139275   0.683702
     29   1.406394   0.843231
     30   1.093941   0.956100
     31   1.516471   0.812050
     32   0.465061   1.466375
     33   0.965336   1.017796
     34   0.496681   1.418931
     35   0.662840   1.228275
     36   0.662840   1.228275
     37   0.602437   1.288381
     38   0.589343   1.302615
     39   0.487556   1.432147
     40   0.424770   1.534346
     41   0.694513   1.199941
     42   0.637169   1.252774
     43   0.637169   1.252774
     44   0.485272   1.435514
     45   1.614063   0.787118
     46   1.184571   0.918797
     47   0.964180   1.018406
     48   0.964180   1.018406
     49   0.683487   1.209580
     50   0.843287   1.088961
     51   0.605954   1.284636
     52   0.803276   1.115752
     53   0.803276   1.115752
     54   0.501918   1.411509
     55   0.827958   1.098995
     56   1.334508   0.865644
     57   0.529408   1.374374
     58   0.490543   1.427781
     59   0.892984   1.058226
     60   0.652157   1.238294
     61   0.935601   1.033843
     62   1.404873   0.843687
     63   1.016438   0.991881
     64   0.706924   1.189361
     65   0.842919   1.089199
     66   0.842919   1.089199
     67   0.906597   1.050250
     68   0.729178   1.171071
     69   1.032894   0.983948
     70   1.032894   0.983948
     71   0.779429   1.132692
     72   1.074219   0.964836
     73   0.665108   1.226179
     74   1.236032   0.899467
     75   0.618762   1.271271
     76   0.871217   1.071363
     77   0.414277   1.553656
     78   0.397858   1.585389
     79   0.571138   1.323213
     80   0.420239   1.542594
     81   0.633563   1.256334
     82   0.463510   1.468826
     83   0.571138   1.323213
     84   0.527883   1.376358
     85   0.701126   1.194268
     86   0.761660   1.145828
     87   1.244024   0.896573
     88   0.899566   1.054347
     89   1.011309   0.994393
     90   1.618966   0.785925
     91   0.770123   1.139515
     92   1.618966   0.785925
     93   0.483738   1.437789
     94   0.648441   1.241838
     95   0.483738   1.437789
     96   0.497561   1.417675
     97   0.860610   1.077946
     98   0.568493   1.326286
     99   0.422467   1.538522
    100   0.568493   1.326286
    101   0.602175   1.288661
    102   0.518306   1.389015
    103   0.813595   1.108653
    104   0.757204   1.149194
    105   0.512200   1.397269
    106   2.990730   0.578244
    107   0.606407   1.284156
    108   0.863539   1.076116
    109   0.497485   1.417784
    110   0.659266   1.231600

Bonds # ['ID', 'type', 'atom1', 'atom2']

         1         1         7        60
         2         2         3        54
         3         3        17        25
         4         4        14        25
         5         5        56         4
         6         6        14        50
         7         7        24        11
         8         8         6        50
         9         9         3        79
        10        10        44        54
        11        11        39        70
        12        12        35        39
        13        13         1        29
        14        14         4        17
        15        15        25         9
        16        16         5         3
        17        17        41        20
        18        18        16         5
        19        19        53        10
        20        20         1        15
        21        21        24        43
        22        22        43        15
        23        23        24        57
        24        24        15         1
        25        25         8         1
        26        26        16        65
        27        27        65        16
        28        28        69        53
        29        29        57        43
        30        30         7        62
        31        31        60        62
        32        32        20         7
        33        33        55        28
        34        34        13        21
        35        35         1        43
        36        36        43         1
        37        37        21        39
        38        38        12        31
        39        39        12         2
        40        40         4        14
        41        41        50         2
        42        42        41        15
        43        43        15        41
        44        44        17        11
        45        45        62        54
        46        46        70        34
        47        47        39        56
        48        48        56        39
        49        49         7        54
        50        50        20        44
        51        51         3        55
        52        52        18        65
        53        53        65        18
        54        54        14        17
        55        55        55        36
        56        56        26        65
        57        57        29         7
        58        58         3        36
        59        59         5        79
        60        60         6        14
        61        61         8        77
        62        62        66        21
        63        63        21        79
        64        64        31        28
        65        65        16        74
        66        66        74        16
        67        67         9        57
        68        68        60         2
        69        69        77        35
        70        70        35        77
        71        71        69        10
        72        72        40        74
        73        73        29        33
        74        74        53        56
        75        75        44         7
        76        76        62         2
        77        77         1        10
        78        78         5        18
        79        79        16        26
        80        80         3        12
        81        81        26        40
        82        82         8        10
        83        83        26        16
        84        84        33         6
        85        85        21        35
        86        86        13        35
        87        87        36        70
        88        88        13        66
        89        89        79        36
        90        90        41        74
        91        91        11        57
        92        92        74        41
        93        93        34         4
        94        94        10        33
        95        95         4        34
        96        96        16        18
        97        97        77        10
        98        98         8        35
        99        99         9        15
       100       100        35         8
       101       101        12        55
       102       102        13        18
       103       103        28        34
       104       104        55        31
       105       105        16        20
       106       106        77        69
       107       107        15        40
       108       108        66        18
       109       109        33         7
       110       110        44         3
