ITEM: TIMESTEP
250
ITEM: NUMBER OF ATOMS
36
ITEM: BOX BOUNDS pp pp pp
-4.8015336555257324e+00 4.8015336555257324e+00
-4.7996867138840615e+00 4.7996867138840615e+00
-1.0000000000000001e-01 1.0000000000000001e-01
ITEM: ATOMS id type xs ys zs
58 1 0.0578211 0.065077 0.499009
3 1 0.30982 0.095314 0.499983
11 1 0.601342 0.989818 0.499863
24 1 0.886647 0.0347447 0.501181
2 1 0.164379 0.1302 0.502494
14 1 0.272966 0.257123 0.500664
5 1 0.340869 0.388597 0.499589
9 1 0.287599 0.542003 0.499368
6 1 0.431506 0.512649 0.500541
12 1 0.58139 0.514528 0.500036
43 1 0.3906 0.624236 0.499496
57 1 0.489483 0.600113 0.500934
4 1 0.591401 0.680609 0.500366
44 1 0.710363 0.699987 0.498196
25 1 0.143686 0.766656 0.499469
40 1 0.198453 0.657689 0.498801
26 1 0.312551 0.699582 0.500432
16 1 0.449987 0.732716 0.499442
18 1 0.809269 0.774659 0.499389
49 1 0.073019 0.836123 0.499924
41 1 0.234438 0.789405 0.499295
45 1 0.299297 0.895587 0.501962
50 1 0.323277 0.802007 0.500163
34 1 0.539688 0.864102 0.500429
80 1 0.635964 0.884392 0.499226
32 1 0.655669 0.798276 0.500038
31 1 0.0057138 0.991538 0.499845
46 1 0.020843 0.888049 0.49907
42 1 0.13479 0.000255595 0.500139
55 1 0.134591 0.913037 0.499899
37 1 0.232097 0.977143 0.499549
33 1 0.413327 0.868846 0.499037
29 1 0.37619 0.981556 0.501054
8 1 0.737126 0.915139 0.500142
67 1 0.818828 0.986436 0.501736
19 1 0.896439 0.89908 0.50095
ITEM: TIMESTEP
500
ITEM: NUMBER OF ATOMS
36
ITEM: BOX BOUNDS pp pp pp
-4.8003330896258340e+00 4.8003330896258340e+00
-4.8010352678928401e+00 4.8010352678928401e+00
-1.0000000000000001e-01 1.0000000000000001e-01
ITEM: ATOMS id type xs ys zs
58 1 0.0580047 0.0654906 0.499008
3 1 0.310129 0.0960929 0.499693
11 1 0.602032 0.990469 0.49985
24 1 0.887888 0.034632 0.500433
2 1 0.164247 0.131548 0.503924
14 1 0.272152 0.257201 0.503233
5 1 0.340122 0.387917 0.501485
9 1 0.287401 0.542025 0.498347
6 1 0.431537 0.511791 0.500837
12 1 0.581656 0.513638 0.500625
43 1 0.390259 0.623851 0.499161
57 1 0.48909 0.599201 0.500984
4 1 0.590906 0.680028 0.501079
44 1 0.70936 0.700122 0.498685
25 1 0.144515 0.76759 0.497762
40 1 0.1994 0.65895 0.497915
26 1 0.312655 0.700924 0.501376
16 1 0.450357 0.732386 0.500836
18 1 0.808926 0.774296 0.500004
49 1 0.0738742 0.837307 0.499997
41 1 0.234563 0.791874 0.499837
45 1 0.297613 0.895813 0.501336
50 1 0.323578 0.803013 0.500611
34 1 0.539504 0.865019 0.500358
80 1 0.636035 0.884356 0.500373
32 1 0.655552 0.798282 0.499602
31 1 0.00615018 0.99179 0.499163
46 1 0.021513 0.889168 0.499209
42 1 0.135002 0.00121486 0.498606
55 1 0.135197 0.91426 0.499453
37 1 0.232469 0.978701 0.50064
33 1 0.412629 0.869735 0.498891
29 1 0.374584 0.981176 0.501659
8 1 0.737259 0.915399 0.501929
67 1 0.820224 0.986019 0.50175
19 1 0.897152 0.898944 0.499937
ITEM: TIMESTEP
750
ITEM: NUMBER OF ATOMS
36
ITEM: BOX BOUNDS pp pp pp
-4.7991325237259357e+00 4.7991325237259357e+00
-4.8061256506400332e+00 4.8061256506400332e+00
-1.0000000000000001e-01 1.0000000000000001e-01
ITEM: ATOMS id type xs ys zs
58 1 0.0588262 0.0653222 0.498777
3 1 0.309875 0.0953538 0.499401
11 1 0.603033 0.990772 0.499248
24 1 0.887811 0.0350924 0.501085
2 1 0.164156 0.132088 0.501989
14 1 0.273892 0.257139 0.504875
5 1 0.340834 0.388491 0.500752
9 1 0.287082 0.542303 0.500133
6 1 0.430602 0.513035 0.499679
12 1 0.580918 0.514454 0.501092
43 1 0.389699 0.624209 0.49945
57 1 0.488719 0.600007 0.501676
4 1 0.59096 0.680604 0.500753
44 1 0.709078 0.701244 0.499029
25 1 0.14555 0.767682 0.497523
40 1 0.198762 0.658843 0.49983
26 1 0.312599 0.700954 0.49933
16 1 0.448965 0.732597 0.500714
18 1 0.810516 0.774022 0.500804
49 1 0.0745066 0.836889 0.500268
41 1 0.235646 0.791514 0.500242
45 1 0.298172 0.895499 0.498937
50 1 0.324735 0.802425 0.50174
34 1 0.539827 0.866124 0.500478
80 1 0.636341 0.884642 0.499715
32 1 0.655016 0.798478 0.499214
31 1 0.00716122 0.991411 0.497804
46 1 0.0212747 0.888057 0.500861
42 1 0.135683 0.00092813 0.498611
55 1 0.134846 0.914045 0.500017
37 1 0.232307 0.97734 0.49932
33 1 0.41327 0.869555 0.500113
29 1 0.375122 0.980851 0.502735
8 1 0.738164 0.914905 0.501695
67 1 0.820146 0.986367 0.500181
19 1 0.897252 0.899235 0.501995
ITEM: TIMESTEP
1000
ITEM: NUMBER OF ATOMS
36
ITEM: BOX BOUNDS pp pp pp
-4.7979319578260373e+00 4.7979319578260373e+00
-4.8150714753564916e+00 4.8150714753564916e+00
-1.0000000000000001e-01 1.0000000000000001e-01
ITEM: ATOMS id type xs ys zs
58 1 0.0589261 0.0646154 0.500643
3 1 0.310875 0.0952979 0.499737
11 1 0.604591 0.991272 0.497809
24 1 0.888137 0.0348636 0.501878
2 1 0.164762 0.131527 0.502667
14 1 0.273345 0.257068 0.504555
5 1 0.339671 0.388886 0.500649
9 1 0.287187 0.541596 0.500489
6 1 0.431197 0.512669 0.498634
12 1 0.581067 0.515405 0.499866
43 1 0.389561 0.623818 0.499903
57 1 0.488581 0.599984 0.504069
4 1 0.590522 0.681515 0.500733
44 1 0.709502 0.701555 0.498826
25 1 0.146671 0.768067 0.496661
40 1 0.199926 0.658743 0.497884
26 1 0.313263 0.700594 0.499637
16 1 0.449656 0.732492 0.501444
18 1 0.810846 0.77406 0.500894
49 1 0.0749417 0.836754 0.501959
41 1 0.236688 0.79121 0.502353
45 1 0.299004 0.894305 0.498514
50 1 0.325664 0.802001 0.503112
34 1 0.540468 0.867286 0.500244
80 1 0.636738 0.885372 0.50139
32 1 0.655574 0.799281 0.499965
31 1 0.00710197 0.991716 0.496966
46 1 0.0224113 0.888862 0.500022
42 1 0.136205 0.00142047 0.497331
55 1 0.135355 0.914693 0.500569
37 1 0.233438 0.977344 0.498236
33 1 0.413973 0.869475 0.500505
29 1 0.375303 0.980713 0.502024
8 1 0.738463 0.914396 0.500771
67 1 0.820462 0.986587 0.499485
19 1 0.897693 0.899617 0.501735
ITEM: TIMESTEP
1250
ITEM: NUMBER OF ATOMS
36
ITEM: BOX BOUNDS pp pp pp
-4.7967313919261398e+00 4.7967313919261398e+00
-4.8013274366874326e+00 4.8013274366874326e+00
-1.0000000000000001e-01 1.0000000000000001e-01
ITEM: ATOMS id type xs ys zs
58 1 0.0594916 0.0649187 0.49949
3 1 0.310945 0.0966303 0.499698
11 1 0.604495 0.99163 0.498333
24 1 0.887945 0.0349236 0.501064
2 1 0.16508 0.131145 0.502463
14 1 0.272872 0.258914 0.503988
5 1 0.340847 0.388173 0.500026
9 1 0.28683 0.541854 0.501849
6 1 0.430696 0.512337 0.499269
12 1 0.580922 0.514019 0.499663
43 1 0.389373 0.623665 0.500558
57 1 0.48864 0.6 0.503035
4 1 0.591417 0.679386 0.49952
44 1 0.709582 0.700479 0.498486
25 1 0.146792 0.768544 0.496141
40 1 0.199102 0.658169 0.496131
26 1 0.312205 0.699804 0.499692
16 1 0.450138 0.731936 0.502099
18 1 0.810574 0.773364 0.500137
49 1 0.0753489 0.837036 0.503326
41 1 0.236642 0.792766 0.502197
45 1 0.299108 0.89532 0.498798
50 1 0.325669 0.802177 0.502717
34 1 0.540932 0.86692 0.49905
80 1 0.637127 0.88532 0.501064
32 1 0.655291 0.798642 0.499866
31 1 0.00697416 0.991538 0.496343
46 1 0.0225282 0.888712 0.503359
42 1 0.137071 0.00120332 0.496231
55 1 0.136211 0.914309 0.498649
37 1 0.234312 0.978073 0.496674
33 1 0.414053 0.869329 0.499688
29 1 0.375256 0.981694 0.502493
8 1 0.73869 0.914586 0.503629
67 1 0.82063 0.985802 0.500941
19 1 0.898113 0.898786 0.502131
ITEM: TIMESTEP
1500
ITEM: NUMBER OF ATOMS
36
ITEM: BOX BOUNDS pp pp pp
-4.7955308260262415e+00 4.7955308260262415e+00
-4.8071886023369146e+00 4.8071886023369146e+00
-1.0000000000000001e-01 1.0000000000000001e-01
ITEM: ATOMS id type xs ys zs
58 1 0.059987 0.0650281 0.500769
3 1 0.312039 0.0963281 0.499698
11 1 0.604955 0.991123 0.497624
24 1 0.887206 0.0343843 0.502619
2 1 0.165991 0.131998 0.506512
14 1 0.27364 0.257737 0.505184
5 1 0.341509 0.388109 0.499861
9 1 0.286895 0.540866 0.502879
6 1 0.431023 0.51295 0.497546
12 1 0.580886 0.514325 0.498656
43 1 0.389216 0.623934 0.500589
57 1 0.488771 0.600251 0.503846
4 1 0.591061 0.680536 0.499474
44 1 0.709909 0.700698 0.499286
25 1 0.146355 0.766734 0.496701
40 1 0.199421 0.657277 0.496232
26 1 0.31278 0.700243 0.499306
16 1 0.449654 0.732718 0.503031
18 1 0.811633 0.773407 0.50017
49 1 0.0755686 0.836951 0.503227
41 1 0.236065 0.791646 0.502188
45 1 0.298851 0.895682 0.49756
50 1 0.325217 0.80226 0.504072
34 1 0.54026 0.865862 0.500429
80 1 0.636533 0.884398 0.502291
32 1 0.65567 0.798235 0.499583
31 1 0.00660179 0.99246 0.49529
46 1 0.0232339 0.888878 0.505035
42 1 0.137457 0.0013484 0.496088
55 1 0.136781 0.91427 0.499915
37 1 0.234601 0.978277 0.496732
33 1 0.413896 0.869675 0.498019
29 1 0.375953 0.981523 0.503259
8 1 0.738426 0.913547 0.503987
67 1 0.820095 0.985034 0.499477
19 1 0.898558 0.898747 0.501856
ITEM: TIMESTEP
1750
ITEM: NUMBER OF ATOMS
36
ITEM: BOX BOUNDS pp pp pp
-4.7943302601263431e+00 4.7943302601263431e+00
-4.8105588720712982e+00 4.8105588720712982e+00
-1.0000000000000001e-01 1.0000000000000001e-01
ITEM: ATOMS id type xs ys zs
58 1 0.0595584 0.0654019 0.498701
3 1 0.312005 0.0965982 0.498626
11 1 0.604188 0.991403 0.495672
24 1 0.887735 0.0336617 0.501315
2 1 0.165323 0.131647 0.50897
14 1 0.27228 0.258257 0.505409
5 1 0.341272 0.388362 0.50091
9 1 0.287379 0.541638 0.503136
6 1 0.431679 0.513114 0.498032
12 1 0.581245 0.514684 0.4983
43 1 0.389615 0.624296 0.499401
57 1 0.489354 0.600063 0.502724
4 1 0.591528 0.680226 0.499769
44 1 0.710168 0.700689 0.49822
25 1 0.146363 0.767973 0.497954
40 1 0.198277 0.657542 0.496554
26 1 0.311427 0.700278 0.498758
16 1 0.44928 0.732483 0.503545
18 1 0.810954 0.77329 0.500059
49 1 0.0751841 0.837617 0.503867
41 1 0.235999 0.792432 0.500411
45 1 0.298407 0.895273 0.499385
50 1 0.324958 0.802308 0.503691
34 1 0.540661 0.866962 0.497242
80 1 0.636812 0.884606 0.500624
32 1 0.655374 0.798433 0.498362
31 1 0.00699662 0.992154 0.494553
46 1 0.0232802 0.889907 0.505021
42 1 0.136612 0.00125432 0.496508
55 1 0.136706 0.914364 0.500839
37 1 0.233991 0.97854 0.495571
33 1 0.413544 0.869745 0.49872
29 1 0.375685 0.981439 0.505257
8 1 0.738328 0.91357 0.503396
67 1 0.820376 0.984854 0.499904
19 1 0.898362 0.898332 0.502606
ITEM: TIMESTEP
2000
ITEM: NUMBER OF ATOMS
36
ITEM: BOX BOUNDS pp pp pp
-4.7931296942264447e+00 4.7931296942264447e+00
-4.8116720478819506e+00 4.8116720478819506e+00
-1.0000000000000001e-01 1.0000000000000001e-01
ITEM: ATOMS id type xs ys zs
58 1 0.0596626 0.0651284 0.498729
3 1 0.311902 0.0961767 0.497864
11 1 0.603895 0.989746 0.494731
24 1 0.887637 0.0335361 0.500936
2 1 0.166392 0.131288 0.509609
14 1 0.272415 0.258066 0.504982
5 1 0.338613 0.38926 0.500458
9 1 0.286966 0.542588 0.504127
6 1 0.430815 0.512688 0.49633
12 1 0.581468 0.514015 0.499375
43 1 0.390067 0.624082 0.500145
57 1 0.48882 0.599014 0.501681
4 1 0.590618 0.679839 0.500354
44 1 0.709799 0.699932 0.49992
25 1 0.145876 0.768696 0.49802
40 1 0.198467 0.658622 0.497319
26 1 0.312382 0.700089 0.497808
16 1 0.449111 0.732768 0.503855
18 1 0.810722 0.772557 0.502306
49 1 0.0750324 0.837165 0.504098
41 1 0.236294 0.79232 0.501803
45 1 0.298107 0.894685 0.499865
50 1 0.325357 0.801864 0.504531
34 1 0.540277 0.865302 0.498737
80 1 0.636818 0.883355 0.502717
32 1 0.65513 0.797171 0.496796
31 1 0.00708618 0.992215 0.494547
46 1 0.0230516 0.889793 0.505593
42 1 0.136923 0.00138674 0.496021
55 1 0.136335 0.9143 0.500189
37 1 0.234258 0.978489 0.495023
33 1 0.413671 0.869808 0.497426
29 1 0.374952 0.98075 0.505983
8 1 0.738668 0.91271 0.503321
67 1 0.820138 0.984502 0.500465
19 1 0.898122 0.898203 0.501819
ITEM: TIMESTEP
2250
ITEM: NUMBER OF ATOMS
36
ITEM: BOX BOUNDS pp pp pp
-4.7919291283265464e+00 4.7919291283265464e+00
-4.8024822223294521e+00 4.8024822223294521e+00
-1.0000000000000001e-01 1.0000000000000001e-01
ITEM: ATOMS id type xs ys zs
58 1 0.0594905 0.0651291 0.499281
3 1 0.311168 0.096749 0.498449
11 1 0.603977 0.989709 0.493414
24 1 0.886605 0.0342249 0.499329
2 1 0.165031 0.132407 0.510289
14 1 0.272067 0.258367 0.505383
5 1 0.339864 0.388526 0.499747
9 1 0.286998 0.542341 0.505678
6 1 0.430413 0.511906 0.498153
12 1 0.580309 0.5128 0.501752
43 1 0.389526 0.623426 0.501665
57 1 0.488566 0.598514 0.501883
4 1 0.590992 0.679268 0.499399
44 1 0.709857 0.6991 0.501111
25 1 0.144961 0.767923 0.498539
40 1 0.198678 0.658778 0.496542
26 1 0.312408 0.699571 0.498333
16 1 0.449405 0.731982 0.504927
18 1 0.810122 0.773034 0.502098
49 1 0.0746979 0.8381 0.504468
41 1 0.235747 0.790781 0.501399
45 1 0.297885 0.894272 0.499623
50 1 0.324894 0.801493 0.505834
34 1 0.540474 0.864218 0.500264
80 1 0.636972 0.883143 0.50389
32 1 0.655689 0.797133 0.496641
31 1 0.00659038 0.992328 0.49425
46 1 0.0220653 0.889685 0.504818
42 1 0.137226 0.00211596 0.497172
55 1 0.136486 0.914894 0.501518
37 1 0.234472 0.978408 0.497161
33 1 0.413915 0.869669 0.497165
29 1 0.374198 0.980779 0.506921
8 1 0.738159 0.913499 0.503217
67 1 0.819131 0.985751 0.501998
19 1 0.897099 0.899073 0.503687
ITEM: TIMESTEP
2500
ITEM: NUMBER OF ATOMS
36
ITEM: BOX BOUNDS pp pp pp
-4.7907285624266480e+00 4.7907285624266480e+00
-4.8080138793418339e+00 4.8080138793418339e+00
-1.0000000000000001e-01 1.0000000000000001e-01
ITEM: ATOMS id type xs ys zs
58 1 0.0596321 0.0649577 0.50021
3 1 0.312297 0.097214 0.499056
11 1 0.601797 0.989527 0.493952
24 1 0.887294 0.0343456 0.498793
2 1 0.165758 0.131605 0.507582
14 1 0.272762 0.258244 0.506332
5 1 0.339469 0.388896 0.497928
9 1 0.286927 0.541733 0.506735
6 1 0.431526 0.511942 0.499235
12 1 0.581452 0.514715 0.504691
43 1 0.389534 0.624172 0.501472
57 1 0.488753 0.599496 0.502412
4 1 0.590652 0.680301 0.497897
44 1 0.70954 0.699584 0.501275
25 1 0.145071 0.767841 0.499325
40 1 0.198085 0.657853 0.495507
26 1 0.311611 0.699574 0.497929
16 1 0.449 0.733087 0.504253
18 1 0.809726 0.774136 0.501548
49 1 0.0751972 0.838521 0.503007
41 1 0.235228 0.791057 0.502035
45 1 0.298005 0.894473 0.497965
50 1 0.32384 0.801974 0.506465
34 1 0.540187 0.864319 0.499999
80 1 0.63597 0.883521 0.501743
32 1 0.656013 0.797631 0.497928
31 1 0.00690019 0.992173 0.494493
46 1 0.0223429 0.889903 0.506236
42 1 0.137542 0.00189707 0.495641
55 1 0.136731 0.915065 0.501912
37 1 0.235127 0.978923 0.497957
33 1 0.413044 0.869208 0.495484
29 1 0.374216 0.980979 0.507039
8 1 0.737711 0.913991 0.500641
67 1 0.819508 0.985847 0.503045
19 1 0.89771 0.899368 0.50605
ITEM: TIMESTEP
2750
ITEM: NUMBER OF ATOMS
36
ITEM: BOX BOUNDS pp pp pp
-4.7895279965267505e+00 4.7895279965267505e+00
-4.8080802514746486e+00 4.8080802514746486e+00
-1.0000000000000001e-01 1.0000000000000001e-01
ITEM: ATOMS id type xs ys zs
58 1 0.0598407 0.065029 0.499699
3 1 0.312695 0.0963205 0.499309
11 1 0.601321 0.989951 0.49284
24 1 0.887212 0.0350444 0.501118
2 1 0.166147 0.132101 0.506683
14 1 0.273332 0.258322 0.504432
5 1 0.340626 0.389473 0.498388
9 1 0.286729 0.541847 0.506689
6 1 0.431348 0.512668 0.500912
12 1 0.582259 0.513761 0.504922
43 1 0.390002 0.623599 0.501601
57 1 0.489181 0.598824 0.503357
4 1 0.590633 0.679851 0.495396
44 1 0.709886 0.700425 0.500093
25 1 0.145287 0.76787 0.498817
40 1 0.198054 0.658116 0.496893
26 1 0.312338 0.699407 0.497434
16 1 0.448886 0.732618 0.503642
18 1 0.809744 0.774654 0.499623
49 1 0.0757006 0.838529 0.500074
41 1 0.235739 0.790925 0.502464
45 1 0.298014 0.894646 0.499079
50 1 0.324296 0.80144 0.505015
34 1 0.539143 0.863273 0.499775
80 1 0.635611 0.883846 0.50226
32 1 0.655616 0.79789 0.497724
31 1 0.00652982 0.992344 0.494796
46 1 0.0221998 0.889414 0.506231
42 1 0.137678 0.00150582 0.496635
55 1 0.13801 0.91449 0.500446
37 1 0.235118 0.978844 0.499079
33 1 0.412835 0.869137 0.496315
29 1 0.374754 0.980238 0.50695
8 1 0.737446 0.914793 0.500556
67 1 0.819593 0.98596 0.503611
19 1 0.897348 0.899501 0.505379
ITEM: TIMESTEP
3000
ITEM: NUMBER OF ATOMS
36
ITEM: BOX BOUNDS pp pp pp
-4.7883274306268522e+00 4.7883274306268522e+00
-4.8128675631999647e+00 4.8128675631999647e+00
-1.0000000000000001e-01 1.0000000000000001e-01
ITEM: ATOMS id type xs ys zs
58 1 0.060061 0.0654038 0.49801
3 1 0.314017 0.096501 0.499503
11 1 0.60183 0.989572 0.493917
24 1 0.886401 0.0357958 0.501398
2 1 0.167215 0.13025 0.507196
14 1 0.273558 0.257549 0.505171
5 1 0.340845 0.388812 0.497894
9 1 0.287153 0.542243 0.505392
6 1 0.431738 0.513214 0.4992
12 1 0.581939 0.514905 0.503608
43 1 0.389529 0.624032 0.501351
57 1 0.489261 0.600392 0.503511
4 1 0.591478 0.680712 0.498013
44 1 0.710149 0.70025 0.500296
25 1 0.144395 0.768374 0.498316
40 1 0.197475 0.658448 0.496527
26 1 0.311658 0.699429 0.49845
16 1 0.449562 0.731827 0.503997
18 1 0.809552 0.775063 0.5032
49 1 0.0745206 0.83837 0.498942
41 1 0.235153 0.790364 0.503468
45 1 0.297449 0.893516 0.498452
50 1 0.324281 0.800745 0.505083
34 1 0.539405 0.86359 0.499354
80 1 0.636104 0.884048 0.501532
32 1 0.6561 0.798468 0.496919
31 1 0.00612002 0.993317 0.495307
46 1 0.0218843 0.890245 0.505479
42 1 0.137329 0.00100636 0.496803
55 1 0.138291 0.913896 0.500204
37 1 0.235146 0.979045 0.497475
33 1 0.412828 0.868441 0.495458
29 1 0.374209 0.979688 0.506251
8 1 0.73766 0.915503 0.499845
67 1 0.819315 0.987246 0.503323
19 1 0.896771 0.900198 0.505762
ITEM: TIMESTEP
3250
ITEM: NUMBER OF ATOMS
36
ITEM: BOX BOUNDS pp pp pp
-4.7871268647269538e+00 4.7871268647269538e+00
-4.8227816445711191e+00 4.8227816445711191e+00
-1.0000000000000001e-01 1.0000000000000001e-01
ITEM: ATOMS id type xs ys zs
58 1 0.0609214 0.0648748 0.497918
3 1 0.313019 0.0963305 0.497493
11 1 0.601456 0.989269 0.494605
24 1 0.885784 0.0356646 0.501587
2 1 0.166937 0.131234 0.506596
14 1 0.274389 0.257939 0.505699
5 1 0.338991 0.389918 0.497677
9 1 0.286302 0.543369 0.507382
6 1 0.430823 0.513088 0.498032
12 1 0.580889 0.513852 0.502192
43 1 0.389714 0.623867 0.501128
57 1 0.489345 0.600165 0.504114
4 1 0.591614 0.680988 0.497465
44 1 0.710364 0.701795 0.499877
25 1 0.143651 0.768747 0.499364
40 1 0.197657 0.659691 0.494181
26 1 0.312305 0.699544 0.498621
16 1 0.449408 0.732189 0.506581
18 1 0.810146 0.775449 0.502818
49 1 0.0735427 0.838587 0.49976
41 1 0.234446 0.78901 0.505679
45 1 0.297223 0.893371 0.497416
50 1 0.32349 0.801104 0.504534
34 1 0.538935 0.863421 0.497312
80 1 0.635413 0.884326 0.50057
32 1 0.655345 0.798681 0.499215
31 1 0.00559829 0.993805 0.495329
46 1 0.0222409 0.891562 0.505679
42 1 0.137725 0.000439545 0.49416
55 1 0.13777 0.913741 0.500308
37 1 0.235434 0.978393 0.496278
33 1 0.412493 0.868581 0.496295
29 1 0.37363 0.980226 0.508475
8 1 0.737048 0.914518 0.499997
67 1 0.818601 0.986711 0.500437
19 1 0.897026 0.900775 0.502846
ITEM: TIMESTEP
3500
ITEM: NUMBER OF ATOMS
36
ITEM: BOX BOUNDS pp pp pp
-4.7859262988270554e+00 4.7859262988270554e+00
-4.8185392801893583e+00 4.8185392801893583e+00
-1.0000000000000001e-01 1.0000000000000001e-01
ITEM: ATOMS id type xs ys zs
58 1 0.0606141 0.0657158 0.499449
3 1 0.313701 0.0959943 0.496625
11 1 0.600738 0.989248 0.49485
24 1 0.885414 0.0353192 0.502311
2 1 0.167465 0.130663 0.507774
14 1 0.274745 0.257136 0.506458
5 1 0.340397 0.388688 0.496572
9 1 0.286931 0.542354 0.507218
6 1 0.431154 0.512327 0.495869
12 1 0.581818 0.514025 0.504833
43 1 0.390774 0.623617 0.500106
57 1 0.48964 0.599152 0.504151
4 1 0.591327 0.680391 0.497579
44 1 0.709892 0.700324 0.501011
25 1 0.143191 0.76771 0.497915
40 1 0.198813 0.659345 0.494805
26 1 0.312785 0.699196 0.497394
16 1 0.449556 0.732493 0.507474
18 1 0.809842 0.775172 0.500839
49 1 0.0738532 0.839121 0.498603
41 1 0.234439 0.788312 0.506463
45 1 0.297629 0.894289 0.49648
50 1 0.322943 0.801216 0.504343
34 1 0.539094 0.863955 0.497924
80 1 0.635773 0.883486 0.498569
32 1 0.655161 0.797762 0.500357
31 1 0.00548649 0.994574 0.494342
46 1 0.0220027 0.891932 0.508076
42 1 0.1374 0.000780823 0.494069
55 1 0.137566 0.913928 0.500242
37 1 0.234918 0.978963 0.497674
33 1 0.412512 0.867824 0.498751
29 1 0.375348 0.979839 0.50747
8 1 0.736771 0.914808 0.499654
67 1 0.817669 0.986833 0.500375
19 1 0.896849 0.900869 0.502088
ITEM: TIMESTEP
3750
ITEM: NUMBER OF ATOMS
36
ITEM: BOX BOUNDS pp pp pp
-4.7847257329271571e+00 4.7847257329271571e+00
-4.8177938311665462e+00 4.8177938311665462e+00
-1.0000000000000001e-01 1.0000000000000001e-01
ITEM: ATOMS id type xs ys zs
58 1 0.059861 0.0660823 0.499692
3 1 0.312917 0.0956297 0.495269
11 1 0.601772 0.98895 0.49368
24 1 0.886623 0.0348657 0.503758
2 1 0.166659 0.131759 0.507394
14 1 0.274658 0.256907 0.506349
5 1 0.340653 0.388227 0.495953
9 1 0.286956 0.541253 0.507857
6 1 0.431033 0.512169 0.495311
12 1 0.581639 0.5137 0.504065
43 1 0.389552 0.623165 0.499967
57 1 0.489238 0.598631 0.504006
4 1 0.591163 0.679627 0.498199
44 1 0.709781 0.700378 0.500537
25 1 0.142684 0.767168 0.496249
40 1 0.198773 0.65823 0.495672
26 1 0.312587 0.699359 0.496539
16 1 0.450189 0.730987 0.506356
18 1 0.810579 0.774193 0.500602
49 1 0.0735302 0.838014 0.498783
41 1 0.233814 0.787973 0.506277
45 1 0.296287 0.893736 0.496658
50 1 0.322309 0.800962 0.505955
34 1 0.539228 0.86424 0.496898
80 1 0.63584 0.883511 0.50027
32 1 0.654934 0.797861 0.499883
31 1 0.00626913 0.993665 0.493507
46 1 0.0225338 0.891214 0.50755
42 1 0.136729 0.00172643 0.494245
55 1 0.13595 0.91508 0.501692
37 1 0.234128 0.978764 0.497062
33 1 0.411923 0.867256 0.499966
29 1 0.373252 0.978528 0.507751
8 1 0.73734 0.914395 0.50015
67 1 0.819476 0.985419 0.501639
19 1 0.897553 0.899753 0.500723
ITEM: TIMESTEP
4000
ITEM: NUMBER OF ATOMS
36
ITEM: BOX BOUNDS pp pp pp
-4.7835251670272587e+00 4.7835251670272587e+00
-4.8206362898286876e+00 4.8206362898286876e+00
-1.0000000000000001e-01 1.0000000000000001e-01
ITEM: ATOMS id type xs ys zs
58 1 0.0600881 0.065745 0.50127
3 1 0.312378 0.0954331 0.49468
11 1 0.600927 0.989075 0.495935
24 1 0.885825 0.0349929 0.501752
2 1 0.166144 0.131472 0.507308
14 1 0.275054 0.257234 0.504943
5 1 0.339078 0.389207 0.495416
9 1 0.286393 0.542061 0.508507
6 1 0.430776 0.512536 0.495899
12 1 0.581337 0.512813 0.504418
43 1 0.390226 0.62373 0.499913
57 1 0.489466 0.598008 0.505292
4 1 0.591898 0.678449 0.499189
44 1 0.710449 0.700983 0.49988
25 1 0.142492 0.767361 0.49655
40 1 0.197972 0.658492 0.497706
26 1 0.312265 0.69895 0.497088
16 1 0.450334 0.731564 0.507027
18 1 0.810216 0.775057 0.501336
49 1 0.0732612 0.838507 0.4979
41 1 0.23338 0.788778 0.505546
45 1 0.295977 0.893395 0.496082
50 1 0.322752 0.800257 0.507623
34 1 0.538314 0.86431 0.497748
80 1 0.634782 0.883198 0.500842
32 1 0.653628 0.797418 0.500372
31 1 0.00597352 0.993655 0.493759
46 1 0.0224675 0.891446 0.506315
42 1 0.137063 0.00163666 0.493168
55 1 0.135571 0.9152 0.500211
37 1 0.234218 0.978025 0.496384
33 1 0.410816 0.867611 0.501245
29 1 0.372987 0.978628 0.508644
8 1 0.736334 0.913995 0.50061
67 1 0.819092 0.984913 0.500777
19 1 0.897559 0.899977 0.502639
ITEM: TIMESTEP
4250
ITEM: NUMBER OF ATOMS
36
ITEM: BOX BOUNDS pp pp pp
-4.7823246011273612e+00 4.7823246011273612e+00
-4.8160892131471655e+00 4.8160892131471655e+00
-1.0000000000000001e-01 1.0000000000000001e-01
ITEM: ATOMS id type xs ys zs
58 1 0.0592323 0.0656624 0.499923
3 1 0.312575 0.0952543 0.49497
11 1 0.601395 0.988848 0.495166
24 1 0.884958 0.0352139 0.502259
2 1 0.166151 0.131145 0.507708
14 1 0.275005 0.256412 0.505083
5 1 0.338328 0.389066 0.495322
9 1 0.286629 0.542138 0.5086
6 1 0.431325 0.51156 0.494755
12 1 0.581741 0.513717 0.504201
43 1 0.389761 0.622479 0.499565
57 1 0.489049 0.599204 0.50565
4 1 0.591472 0.679344 0.497694
44 1 0.709669 0.700914 0.499408
25 1 0.142179 0.767428 0.496033
40 1 0.197584 0.65804 0.496612
26 1 0.311613 0.697726 0.49689
16 1 0.448577 0.731156 0.506021
18 1 0.811003 0.773654 0.500751
49 1 0.0729563 0.838311 0.496629
41 1 0.233245 0.788239 0.506516
45 1 0.295381 0.892638 0.497527
50 1 0.322099 0.799935 0.506601
34 1 0.53826 0.86343 0.497174
80 1 0.634575 0.883359 0.499546
32 1 0.654136 0.797457 0.498196
31 1 0.00470951 0.993923 0.492723
46 1 0.0219305 0.891736 0.506992
42 1 0.136453 0.00148054 0.49381
55 1 0.135936 0.91468 0.498593
37 1 0.233718 0.978173 0.495874
33 1 0.41107 0.867252 0.500701
29 1 0.372555 0.978138 0.507912
8 1 0.736235 0.913291 0.50124
67 1 0.8176 0.985637 0.500999
19 1 0.896559 0.900148 0.502496
ITEM: TIMESTEP
4500
ITEM: NUMBER OF ATOMS
36
ITEM: BOX BOUNDS pp pp pp
-4.7811240352274629e+00 4.7811240352274629e+00
-4.8220010844478312e+00 4.8220010844478312e+00
-1.0000000000000001e-01 1.0000000000000001e-01
ITEM: ATOMS id type xs ys zs
58 1 0.0590409 0.0649492 0.500795
3 1 0.312234 0.0946658 0.494587
11 1 0.600342 0.988492 0.495469
24 1 0.884771 0.0352692 0.501969
2 1 0.16582 0.131775 0.508556
14 1 0.27422 0.256724 0.503841
5 1 0.337723 0.389714 0.493759
9 1 0.286571 0.542512 0.508651
6 1 0.430411 0.512133 0.494227
12 1 0.581209 0.514499 0.503864
43 1 0.389136 0.623038 0.498132
57 1 0.488367 0.599745 0.506456
4 1 0.59069 0.679945 0.500081
44 1 0.709417 0.700055 0.498232
25 1 0.141905 0.767364 0.498342
40 1 0.196906 0.658211 0.497663
26 1 0.310982 0.698173 0.496932
16 1 0.448366 0.730887 0.504608
18 1 0.810057 0.774174 0.498912
49 1 0.0730421 0.838713 0.49695
41 1 0.232664 0.788068 0.507521
45 1 0.295721 0.892204 0.49528
50 1 0.322086 0.799572 0.506138
34 1 0.537891 0.863012 0.497127
80 1 0.634584 0.88265 0.499621
32 1 0.654151 0.797521 0.497291
31 1 0.00462821 0.993313 0.492038
46 1 0.021851 0.891591 0.505723
42 1 0.136179 0.00113344 0.494223
55 1 0.136218 0.91436 0.499353
37 1 0.233481 0.977516 0.49513
33 1 0.411274 0.866733 0.501585
29 1 0.372869 0.97817 0.507284
8 1 0.736288 0.9136 0.503473
67 1 0.817724 0.985823 0.501465
19 1 0.896339 0.899766 0.503773
ITEM: TIMESTEP
4750
ITEM: NUMBER OF ATOMS
36
ITEM: BOX BOUNDS pp pp pp
-4.7799234693275645e+00 4.7799234693275645e+00
-4.8294988088842787e+00 4.8294988088842787e+00
-1.0000000000000001e-01 1.0000000000000001e-01
ITEM: ATOMS id type xs ys zs
58 1 0.0594463 0.0654773 0.502679
3 1 0.311771 0.0950179 0.493567
11 1 0.599555 0.988431 0.494729
24 1 0.884782 0.0354398 0.502397
2 1 0.16618 0.131193 0.509287
14 1 0.273998 0.256419 0.503338
5 1 0.338013 0.388401 0.494763
9 1 0.285365 0.542318 0.509266
6 1 0.429214 0.512476 0.49615
12 1 0.579649 0.514011 0.50363
43 1 0.388124 0.62326 0.500072
57 1 0.487831 0.599047 0.505392
4 1 0.589974 0.679956 0.498931
44 1 0.708822 0.700919 0.496654
25 1 0.141417 0.767352 0.497551
40 1 0.196872 0.658427 0.498157
26 1 0.311383 0.699261 0.496235
16 1 0.448286 0.731562 0.504573
18 1 0.808981 0.775621 0.499112
49 1 0.0723702 0.838647 0.497376
41 1 0.232713 0.788194 0.506922
45 1 0.295246 0.8926 0.494738
50 1 0.321457 0.80023 0.506799
34 1 0.537079 0.863156 0.497808
80 1 0.633769 0.883385 0.500051
32 1 0.653796 0.797838 0.499601
31 1 0.00436511 0.994571 0.491687
46 1 0.0216043 0.892338 0.507011
42 1 0.136412 0.00136363 0.494049
55 1 0.134508 0.914642 0.502031
37 1 0.233502 0.977768 0.494565
33 1 0.41032 0.867086 0.502755
29 1 0.371634 0.978319 0.507802
8 1 0.735937 0.914642 0.502097
67 1 0.817416 0.986903 0.502402
19 1 0.896423 0.900656 0.506706
ITEM: TIMESTEP
5000
ITEM: NUMBER OF ATOMS
36
ITEM: BOX BOUNDS pp pp pp
-4.7787229034276661e+00 4.7787229034276661e+00
-4.8249406841799880e+00 4.8249406841799880e+00
-1.0000000000000001e-01 1.0000000000000001e-01
ITEM: ATOMS id type xs ys zs
58 1 0.0586578 0.0663294 0.503949
3 1 0.313187 0.0949884 0.495593
11 1 0.600182 0.989613 0.493744
24 1 0.885251 0.035768 0.499991
2 1 0.166206 0.131416 0.508996
14 1 0.275821 0.256934 0.504067
5 1 0.339337 0.389426 0.496727
9 1 0.285337 0.542051 0.509258
6 1 0.429996 0.512876 0.495814
12 1 0.580654 0.51536 0.503986
43 1 0.38794 0.623978 0.499749
57 1 0.487649 0.599524 0.504689
4 1 0.590083 0.680331 0.499138
44 1 0.708545 0.701994 0.49738
25 1 0.140639 0.766073 0.496384
40 1 0.19581 0.656824 0.498535
26 1 0.309864 0.698758 0.49478
16 1 0.447662 0.731263 0.503501
18 1 0.809202 0.775078 0.500157
49 1 0.0720543 0.837924 0.496315
41 1 0.231363 0.78884 0.507679
45 1 0.294856 0.893567 0.493398
50 1 0.32068 0.800691 0.506792
34 1 0.5379 0.864753 0.49711
80 1 0.634587 0.884195 0.498005
32 1 0.653559 0.79824 0.499411
31 1 0.00499334 0.993917 0.491605
46 1 0.0209383 0.891649 0.50682
42 1 0.135048 0.00146036 0.494416
55 1 0.134258 0.914891 0.502732
37 1 0.232905 0.978552 0.49472
33 1 0.410168 0.86712 0.503354
29 1 0.372511 0.978212 0.506407
8 1 0.735436 0.91434 0.502742
67 1 0.817542 0.986743 0.501643
19 1 0.895726 0.900916 0.507058
ITEM: TIMESTEP
5250
ITEM: NUMBER OF ATOMS
36
ITEM: BOX BOUNDS pp pp pp
-4.7775223375277678e+00 4.7775223375277678e+00
-4.8256106244452761e+00 4.8256106244452761e+00
-1.0000000000000001e-01 1.0000000000000001e-01
ITEM: ATOMS id type xs ys zs
58 1 0.0593675 0.064862 0.50507
3 1 0.313609 0.0944239 0.496068
11 1 0.600512 0.989222 0.495615
24 1 0.886143 0.0358412 0.499726
2 1 0.166795 0.129634 0.508747
14 1 0.274989 0.256158 0.504691
5 1 0.339458 0.388514 0.497651
9 1 0.284717 0.541281 0.509662
6 1 0.430198 0.512352 0.4981
12 1 0.580483 0.515393 0.504279
43 1 0.38781 0.622543 0.499736
57 1 0.487763 0.599781 0.502874
4 1 0.590524 0.680261 0.497374
44 1 0.709652 0.701365 0.497407
25 1 0.14021 0.765289 0.495257
40 1 0.195732 0.656987 0.497477
26 1 0.310184 0.698946 0.49462
16 1 0.447766 0.731041 0.501602
18 1 0.809402 0.77526 0.502654
49 1 0.0725886 0.83779 0.497294
41 1 0.230876 0.787655 0.507322
45 1 0.295078 0.89295 0.493453
50 1 0.319763 0.800361 0.50596
34 1 0.537778 0.863757 0.494862
80 1 0.634465 0.883822 0.499356
32 1 0.65384 0.798722 0.49971
31 1 0.0057883 0.992889 0.491521
46 1 0.0210098 0.890447 0.506194
42 1 0.135967 0.000114566 0.495706
55 1 0.136102 0.913714 0.502107
37 1 0.2333 0.978486 0.495554
33 1 0.410572 0.866073 0.502713
29 1 0.373123 0.977534 0.505271
8 1 0.736287 0.914857 0.503622
67 1 0.818204 0.987166 0.500249
19 1 0.895928 0.900774 0.506454
ITEM: TIMESTEP
5500
ITEM: NUMBER OF ATOMS
36
ITEM: BOX BOUNDS pp pp pp
-4.7763217716278694e+00 4.7763217716278694e+00
-4.8245668166566764e+00 4.8245668166566764e+00
-1.0000000000000001e-01 1.0000000000000001e-01
ITEM: ATOMS id type xs ys zs
58 1 0.0601702 0.0649772 0.505799
3 1 0.31449 0.0945382 0.493826
11 1 0.600491 0.990188 0.496077
24 1 0.886578 0.0356219 0.49843
2 1 0.167165 0.129535 0.509842
14 1 0.275547 0.25586 0.504054
5 1 0.338692 0.388789 0.496487
9 1 0.284906 0.541747 0.508392
6 1 0.430136 0.512287 0.497105
12 1 0.581228 0.514152 0.503652
43 1 0.388044 0.622648 0.499956
57 1 0.487804 0.599107 0.504886
4 1 0.589634 0.680422 0.49935
44 1 0.70854 0.700962 0.498355
25 1 0.139764 0.76517 0.493712
40 1 0.1963 0.658172 0.49907
26 1 0.310379 0.698195 0.495947
16 1 0.447627 0.730766 0.500458
18 1 0.80901 0.775229 0.504285
49 1 0.0730052 0.838927 0.496482
41 1 0.230913 0.786655 0.506078