LAMMPS (23 Jun 2022 - Update 4)
  using 1 OpenMP thread(s) per MPI task
# Compute elastic constant tensor for a crystal
#
# Written by Aidan Thompson (Sandia, athomps@sandia.gov)
#
#  This script uses the following three include files.
#
#   init.mod      (must be modified for different crystal structures)
# 	       	  Define units, deformation parameters and initial
#		  configuration of the atoms and simulation cell.
#
#
#   potential.mod    (must be modified for different pair styles)
# 		     Define pair style and other attributes
#		     not stored in restart file
#
#
#   displace.mod    (displace.mod should not need to be modified)
# 		    Perform positive and negative box displacements
# 		    in direction ${dir} and size ${up}.
# 		    It uses the resultant changes
#		    in stress to compute one
# 		    row of the elastic stiffness tensor
#
#		    Inputs variables:
#		    	   dir = the Voigt deformation component
#		    		    (1,2,3,4,5,6)
#		    Global constants:
#       	    	   up = the deformation magnitude (strain units)
#       		   cfac = conversion from LAMMPS pressure units to
#               	   output units for elastic constants
#
#
#  To run this on a different system, it should only be necessary to
#  modify the files init.mod and potential.mod. In order to calculate
#  the elastic constants correctly, care must be taken to specify
#  the correct units in init.mod (units, cfac and cunits). It is also
#  important to verify that the minimization of energy w.r.t atom
#  positions in the deformed cell is fully converged.
#  One indication of this is that the elastic constants are insensitive
#  to the choice of the variable ${up} in init.mod. Another is to check
#  the final max and two-norm forces reported in the log file. If you know
#  that minimization is not required, you can set maxiter = 0.0 in
#  init.mod.
#



variable dt equal 0.01
variable strain equal 0.05
variable srate equal 1e-4
variable M equal 1000 # averaging time for properties
variable strainsteps equal ${strain}/${dt}/${srate}
variable strainsteps equal 0.05/${dt}/${srate}
variable strainsteps equal 0.05/0.01/${srate}
variable strainsteps equal 0.05/0.01/0.0001


dimension 2
include init.mod
# NOTE: This script can be modified for different atomic structures,
# units, etc. See in.elastic for more info.
#

# Define the finite deformation size. Try several values of this
# variable to verify that results do not depend on it.
variable up equal 1.0e-1

# Define the amount of random jiggle for atoms
# This prevents atoms from staying on saddle points
variable atomjiggle equal 1.0e-6

# Uncomment one of these blocks, depending on what units
# you are using in LAMMPS and for output

# metal units, elastic constants in eV/A^3
#units		metal
#variable cfac equal 6.2414e-7
#variable cunits string eV/A^3

# Choose potential
# metal units, elastic constants in GPa
units		metal
atom_style	full
#pair_style      lj/cut 1.0
#pair_style      yukawa 1.0 2.0
#pair_modify     mix arithmetic
bond_style      harmonic
angle_style     harmonic
dihedral_style  zero
special_bonds   amber
variable cfac equal 1.0e-4
variable cunits string GPa
boundary	p p p

# Need to set mass to something, just to satisfy LAMMPS
#mass 1 1.0e-20
read_data network.lmp
Reading data file ...
  orthogonal box = (-4.802263 -4.802263 -0.1) to (4.802263 4.802263 0.1)
  1 by 1 by 1 MPI processor grid
WARNING: Atom style in data file differs from currently defined atom style (src/read_data.cpp:538)
  reading atoms ...
  36 atoms
WARNING: Bond style in data file differs from currently defined bond style (src/read_data.cpp:630)
  scanning bonds ...
  4 = max bonds/atom
  reading bonds ...
  78 bonds
Finding 1-2 1-3 1-4 neighbors ...
  special bond factors lj:    0        0        0.5     
  special bond factors coul:  0        0        0.8333333333333334
     9 = max # of 1-2 neighbors
    34 = max # of 1-3 neighbors
   178 = max # of 1-4 neighbors
    26 = max # of special neighbors
  special bonds CPU = 0.000 seconds
  read_data CPU = 0.003 seconds

# real units, elastic constants in GPa
#units		real
#variable cfac equal 1.01325e-4
#variable cunits string GPa

# Define minimization parameters
variable etol equal 0.0
variable ftol equal 5.0e-10
variable maxiter equal 100000
variable maxeval equal 20000
variable dmax equal 1.0e-2


include potential.mod
# NOTE: This script can be modified for different pair styles
# See in.elastic for more info.

# Setup neighbor style
neighbor 3.0 nsq
neigh_modify once no every 1 delay 0 check yes
comm_modify cutoff 2.0

# Setup minimization style
min_style	     cg
min_modify	     dmax ${dmax} line quadratic
min_modify	     dmax 0.01 line quadratic

timestep	0.001


# Setup output
thermo		500
thermo_style custom step temp pe ebond eangle edihed press pxx pyy pzz pxy pxz pyz lx ly lz vol
thermo_modify norm no


#change_box all triclinic
comm_modify mode single cutoff 10.0 vel yes
atom_modify sort 0 0



# Compute initial state

#dump rela all atom 1 traj_relax.lmpstrj
fix 3 all box/relax x 0 y 0 # xy 0  #MS comment: relax if the network is periodic
minimize ${etol} ${ftol} ${maxiter} ${maxeval}
minimize 0 ${ftol} ${maxiter} ${maxeval}
minimize 0 5e-10 ${maxiter} ${maxeval}
minimize 0 5e-10 100000 ${maxeval}
minimize 0 5e-10 100000 20000
Neighbor list info ...
  update every 1 steps, delay 0 steps, check yes
  max neighbors/atom: 2000, page size: 100000
  master list distance cutoff = 0
  ghost atom cutoff = 10
  0 neighbor lists, perpetual/occasional/extra = 0 0 0
WARNING: Inconsistent image flags (src/domain.cpp:819)
Per MPI rank memory allocation (min/avg/max) = 8.447 | 8.447 | 8.447 Mbytes
   Step          Temp          PotEng         E_bond        E_angle        E_dihed         Press           Pxx            Pyy            Pzz            Pxy            Pxz            Pyz             Lx             Ly             Lz           Volume    
         0   0              2.4219158e-11  2.4219158e-11  0              0              0.25078384     0.28513414     0.21643353     0              0.11588127     0              0              9.604526       9.604526       0.2            92.24692     
        98   0              1.9185086e-13  1.9185086e-13  0              0             -2.9268724e-08 -3.7509639e-07  3.1655894e-07  0             -2.7971803e-06  0              0              9.6045272      9.6045273      0.2            92.246943    
Loop time of 0.00321732 on 1 procs for 98 steps with 36 atoms

50.0% CPU use with 1 MPI tasks x 1 OpenMP threads

Minimization stats:
  Stopping criterion = force tolerance
  Energy initial, next-to-last, final = 
    2.42191584625768e-11 1.91850905623586e-13 1.91850859738898e-13
  Force two-norm initial, final = 2.7214048e-05 3.3467415e-10
  Force max component initial, final = 1.6416884e-05 1.1455043e-10
  Final line search alpha, max atom move = 1 1.1455043e-10
  Iterations, force evaluations = 98 196

MPI task timing breakdown:
Section |  min time  |  avg time  |  max time  |%varavg| %total
---------------------------------------------------------------
Pair    | 0          | 0          | 0          |   0.0 |  0.00
Bond    | 0.00041597 | 0.00041597 | 0.00041597 |   0.0 | 12.93
Neigh   | 0          | 0          | 0          |   0.0 |  0.00
Comm    | 0.00098408 | 0.00098408 | 0.00098408 |   0.0 | 30.59
Output  | 0          | 0          | 0          |   0.0 |  0.00
Modify  | 0          | 0          | 0          |   0.0 |  0.00
Other   |            | 0.001817   |            |       | 56.48

Nlocal:             36 ave          36 max          36 min
Histogram: 1 0 0 0 0 0 0 0 0 0
Nghost:            316 ave         316 max         316 min
Histogram: 1 0 0 0 0 0 0 0 0 0
Neighs:              0 ave           0 max           0 min
Histogram: 1 0 0 0 0 0 0 0 0 0

Total # of neighbors = 0
Ave neighs/atom = 0
Ave special neighs/atom = 18.777778
Neighbor list builds = 0
Dangerous builds = 0
#dump rela all atom 1 traj_relax.lmpstrj
thermo 100
unfix 3

fix 2d all enforce2d



#dump dump0 all xyz 1000000 cfg0.xyz
#dump_modify dump0 format line "%d %20.10g %20.10g %20.10g"
#minimize ${etol} ${ftol} ${maxiter} ${maxeval}

#undump rela

#write_restart restart.equil

# These formulas define the derivatives w.r.t. strain components
# Constants uses $, variables use v_


timestep        ${dt}
timestep        0.01
variable nsteps equal round(${strainsteps})
variable nsteps equal round(50000)

fix             4 all nve
fix             5 all langevin 0.1 0.1 1 904297
#fix		6 all press/berendsen y  0.0 0.0 1 x 0.0 0.0 10
fix             6 all nph y 0.0 0.0 10 ptemp 0.1 # x 0.0 0.0 10

# For PLUMED2
# fix 22 all plumed plumedfile plumed.dat outfile plumed.out

#fix             6 all nph x 0.0 0.0 10
fix     	9 all deform 1 x erate -${srate} units box remap x
fix     	9 all deform 1 x erate -0.0001 units box remap x

#fix     8 all deform 1 xy erate ${srate} units box remap x



#fix    10 all ave/time

dump 1 all atom 250 deform_dump.lammpstrj


#To avoid flying ice cube phenomenon:
#fix 21 all momentum 100 linear 1 1 1 angular


run  ${nsteps}
run  50000
WARNING: One or more atoms are time integrated more than once (src/modify.cpp:292)
WARNING: Inconsistent image flags (src/domain.cpp:819)
Per MPI rank memory allocation (min/avg/max) = 7.322 | 7.322 | 7.322 Mbytes
   Step          Temp          PotEng         E_bond        E_angle        E_dihed         Press           Pxx            Pyy            Pzz            Pxy            Pxz            Pyz             Lx             Ly             Lz           Volume    
        98   0              1.9185086e-13  1.9185086e-13  0              0             -2.9268724e-08 -3.7509639e-07  3.1655894e-07  0             -2.7971803e-06  0              0              9.6045272      9.6045273      0.2            92.246943    
       100   0.01198679     4.5812242e-08  4.5812242e-08  0              0             -0.10918237    -2.9140221      2.5852324      0              0.76766343     0              0              9.604508       9.6045295      0.2            92.24678     
       200   0.16505296     0.00032390311  0.00032390311  0              0              81.980215      201.95169     -38.11371       0              198.5521       0              0              9.6035475      9.6061277      0.2            92.252904    
       300   0.24515193     0.00059321682  0.00059321682  0              0             -132.82086     -217.24138     -48.502877      0             -72.685909      0              0              9.6025871      9.6062451      0.2            92.244805    
       400   0.33345117     0.00041631444  0.00041631444  0              0              322.75887      557.28559      88.131866      0              176.44379      0              0              9.6016266      9.6017572      0.2            92.192487    
       500   0.21673343     0.00046596402  0.00046596402  0              0              79.490917     -46.318686      205.18029      0              409.94341      0              0              9.6006662      9.6020705      0.2            92.186274    
       600   0.22198136     0.00044687489  0.00044687489  0              0              51.245575     -11.359014      113.73531      0              128.80741      0              0              9.5997057      9.6053675      0.2            92.208702    
       700   0.20322028     0.00058415776  0.00058415776  0              0             -110.96474     -79.356333     -142.67303      0             -74.737615      0              0              9.5987453      9.6147454      0.2            92.289492    
       800   0.2035579      0.00059890416  0.00059890416  0              0             -162.3412      -106.61521     -218.16399      0             -509.53991      0              0              9.5977848      9.6200527      0.2            92.331196    
       900   0.25587159     0.00062211753  0.00062211753  0              0              2.9833214      217.44039     -211.57854      0             -56.621492      0              0              9.5968244      9.6301292      0.2            92.418658    
      1000   0.202794       0.00057023926  0.00057023926  0              0              355.87008      621.92622      89.71265       0             -79.328663      0              0              9.5958639      9.630143       0.2            92.409541    
      1100   0.19885652     0.00054197345  0.00054197345  0              0              250.018        204.95879      294.94929      0             -81.839749      0              0              9.5949035      9.6107066      0.2            92.213802    
      1200   0.21235226     0.0004813089   0.0004813089   0              0              417.21712      402.29508      432.04137      0              589.35622      0              0              9.593943       9.6020206      0.2            92.121238    
      1300   0.27676221     0.0005882826   0.0005882826   0              0              888.68897      1621.3587      155.94376      0              58.412627      0              0              9.5929826      9.5971463      0.2            92.065257    
      1400   0.19166338     0.00079151381  0.00079151381  0              0              187.11032      711.7977      -337.68925      0              346.49141      0              0              9.5920221      9.6213803      0.2            92.288493    
      1500   0.27678281     0.00052455298  0.00052455298  0              0             -113.15238      405.59744     -632.02027      0             -214.55484      0              0              9.5910617      9.6143772      0.2            92.212085    
      1600   0.26276899     0.00044383593  0.00044383593  0              0             -99.822285      192.13306     -391.88203      0              45.283862      0              0              9.5901012      9.6167926      0.2            92.226014    
      1700   0.18847918     0.00055506522  0.00055506522  0              0              209.25963      57.972725      360.44224      0              407.18505      0              0              9.5891407      9.6128161      0.2            92.178646    
      1800   0.24910432     0.00058370859  0.00058370859  0              0              925.84276      965.19525      886.36632      0              841.43834      0              0              9.5881803      9.6037083      0.2            92.082086    
      1900   0.24950002     0.00058401222  0.00058401222  0              0              799.47383      813.11673      785.7393       0              182.90778      0              0              9.5872198      9.6090703      0.2            92.12427     
      2000   0.25970179     0.00050567747  0.00050567747  0              0              84.960619      153.59433      16.231491      0             -124.04021      0              0              9.5862594      9.6233441      0.2            92.251873    
      2100   0.18465113     0.00073855794  0.00073855794  0              0             -594.65624     -314.37378     -875.04479      0             -190.37401      0              0              9.5852989      9.637996       0.2            92.383073    
      2200   0.19496027     0.00056810402  0.00056810402  0              0             -384.27967      389.96755     -1158.6416      0              337.24713      0              0              9.5843385      9.6256696      0.2            92.255676    
      2300   0.18554681     0.00073924084  0.00073924084  0              0             -141.69121      217.97392     -501.45319      0              249.58049      0              0              9.583378       9.627238       0.2            92.261461    
      2400   0.2120726      0.00067120533  0.00067120533  0              0              250.0347       4.5833634      495.36934      0             -282.64778      0              0              9.5824176      9.6131889      0.2            92.11759     
      2500   0.19616544     0.00065420195  0.00065420195  0              0              754.06488      396.77621      1111.2413      0              214.38867      0              0              9.5814571      9.6160278      0.2            92.135558    
      2600   0.16066976     0.00075016076  0.00075016076  0              0              443.28683     -97.744464      984.21035      0              20.588683      0              0              9.5804967      9.6088794      0.2            92.057838    
      2700   0.19997197     0.00065414575  0.00065414575  0              0              264.42307      367.78484      160.96173      0              209.90826      0              0              9.5795362      9.6165881      0.2            92.122454    
      2800   0.19755356     0.00064371225  0.00064371225  0              0             -221.63591      258.47641     -701.84952      0              334.45857      0              0              9.5785758      9.6317465      0.2            92.258413    
      2900   0.20104136     0.00052199294  0.00052199294  0              0             -395.98162      207.26359     -999.32406      0              371.9314       0              0              9.5776153      9.6371873      0.2            92.301272    
      3000   0.20273055     0.00047358198  0.00047358198  0              0             -318.42158     -82.353769     -554.59682      0              304.81139      0              0              9.5766549      9.6257351      0.2            92.182343    
      3100   0.23227006     0.00070119423  0.00070119423  0              0              106.08441      115.25274      96.837382      0              487.04044      0              0              9.5756944      9.6341335      0.2            92.253518    
      3200   0.20859957     0.00051185599  0.00051185599  0              0              741.28702      978.96523      503.51445      0              35.303798      0              0              9.574734       9.628346       0.2            92.188851    
      3300   0.20198435     0.0006125708   0.0006125708   0              0              789.71469      940.00667      639.3048       0             -621.25681      0              0              9.5737735      9.6298823      0.2            92.194312    
      3400   0.17151002     0.00060608904  0.00060608904  0              0              268.35752      269.39064      267.21689      0              34.245934      0              0              9.5728131      9.6274386      0.2            92.16167     
      3500   0.23393901     0.0005266821   0.0005266821   0              0              163.5069       697.32341     -370.42579      0              192.03491      0              0              9.5718526      9.6370786      0.2            92.244695    
      3600   0.29536363     0.00052619451  0.00052619451  0              0             -423.14835     -269.3279      -577.06229      0             -455.36652      0              0              9.5708921      9.6326738      0.2            92.193282    
      3700   0.17130339     0.00039894176  0.00039894176  0              0              173.52073      786.21943     -439.26889      0              250.25168      0              0              9.5699317      9.6378675      0.2            92.233734    
      3800   0.22802332     0.00055869431  0.00055869431  0              0             -32.432383     -66.552771      1.603282       0             -37.693928      0              0              9.5689712      9.6387963      0.2            92.233365    
      3900   0.24751032     0.00053982842  0.00053982842  0              0              545.8126       660.13485      431.38433      0             -616.85918      0              0              9.5680108      9.6382544      0.2            92.218922    
      4000   0.24160101     0.00063469844  0.00063469844  0              0              447.05818      374.63845      519.35068      0             -147.38946      0              0              9.5670503      9.6412726      0.2            92.23854     
      4100   0.26297418     0.00086218863  0.00086218863  0              0              105.58501     -34.939517      246.00438      0             -222.01978      0              0              9.5660899      9.6346975      0.2            92.166382    
      4200   0.20450681     0.0005176222   0.0005176222   0              0             -245.94636     -361.04486     -130.94059      0              469.86824      0              0              9.5651294      9.6413662      0.2            92.220916    
      4300   0.20321297     0.00076228883  0.00076228883  0              0             -114.46739      99.804194     -328.83929      0              314.29598      0              0              9.564169       9.6438811      0.2            92.235708    
      4400   0.26033545     0.00043909788  0.00043909788  0              0             -66.127921      250.4284      -382.81348      0              505.8373       0              0              9.5632085      9.6439104      0.2            92.226726    
      4500   0.1867423      0.00066379732  0.00066379732  0              0              265.79905      736.7359      -205.25701      0              303.14192      0              0              9.5622481      9.6440022      0.2            92.218341    
      4600   0.16993333     0.00049762083  0.00049762083  0              0              235.80111      247.93309      223.56661      0             -155.85451      0              0              9.5612876      9.6474577      0.2            92.242118    
      4700   0.21491726     0.00067423142  0.00067423142  0              0              358.76897      331.99515      385.43554      0             -259.88942      0              0              9.5603272      9.646148       0.2            92.22033     
      4800   0.19051827     0.00041090901  0.00041090901  0              0              562.70149      844.76891      280.52503      0             -408.98764      0              0              9.5593667      9.6500172      0.2            92.248053    
      4900   0.2123585      0.00039325662  0.00039325662  0              0              77.951469      163.81074     -7.98855        0              173.40941      0              0              9.5584063      9.653551       0.2            92.272563    
      5000   0.13793859     0.00067767705  0.00067767705  0              0             -233.87012     -318.74147     -149.09057      0             -368.10671      0              0              9.5574458      9.6498814      0.2            92.228218    
      5100   0.26217811     0.00053412631  0.00053412631  0              0             -372.98503     -523.55716     -222.53689      0             -224.15043      0              0              9.5564854      9.6599874      0.2            92.315528    
      5200   0.21285216     0.00059930573  0.00059930573  0              0             -288.38772     -301.14033     -275.75329      0             -114.36602      0              0              9.5555249      9.6579884      0.2            92.287149    
      5300   0.21148708     0.00054217284  0.00054217284  0              0             -91.063379      21.66292      -203.91986      0             -589.09644      0              0              9.5545644      9.6524737      0.2            92.225182    
      5400   0.21078804     0.00062295413  0.00062295413  0              0              2.4086308     -106.80828      111.50429      0             -567.48945      0              0              9.553604       9.6585825      0.2            92.274273    
      5500   0.15789927     0.00065942924  0.00065942924  0              0              146.94086     -42.918232      336.71012      0             -423.8433       0              0              9.5526435      9.6491336      0.2            92.174734    
      5600   0.18544573     0.00063174529  0.00063174529  0              0              245.27366      252.60408      237.85863      0             -233.39529      0              0              9.5516831      9.6572642      0.2            92.243128    
      5700   0.21881121     0.00054640534  0.00054640534  0              0             -135.27698     -265.76096     -4.9321058      0             -448.9638       0              0              9.5507226      9.660583       0.2            92.265549    
      5800   0.21283177     0.00064419102  0.00064419102  0              0             -252.9263      -316.35698     -189.60099      0             -548.44689      0              0              9.5497622      9.6704883      0.2            92.350863    
      5900   0.25187447     0.00069381454  0.00069381454  0              0             -1012.0333     -1679.8448     -344.33755      0             -552.03993      0              0              9.5488017      9.6763036      0.2            92.397104    
      6000   0.2090304      0.00057818936  0.00057818936  0              0             -756.42613     -1135.8815     -377.09282      0             -598.60781      0              0              9.5478413      9.6627767      0.2            92.258658    
      6100   0.20495684     0.00068069512  0.00068069512  0              0             -60.489332      50.646848     -171.74616      0              127.82682      0              0              9.5468808      9.6560753      0.2            92.1854      
      6200   0.18491871     0.00060063065  0.00060063065  0              0              70.583767     -30.319416      171.38958      0              123.05195      0              0              9.5459204      9.6560024      0.2            92.17543     
      6300   0.18479258     0.00050015194  0.00050015194  0              0              201.15635     -12.924995      415.1255       0              22.422323      0              0              9.5449599      9.6543816      0.2            92.150686    
      6400   0.23897453     0.00061424913  0.00061424913  0              0              526.57274      514.90668      538.12624      0             -540.34037      0              0              9.5439995      9.6505861      0.2            92.105189    
      6500   0.1814004      0.00064041937  0.00064041937  0              0              708.01223      1114.8078      301.11502      0             -646.5736       0              0              9.543039       9.6479901      0.2            92.071146    
      6600   0.1830054      0.00044240909  0.00044240909  0              0             -156.68982     -231.6204      -81.872185      0              15.00625       0              0              9.5420786      9.6483925      0.2            92.065719    
      6700   0.23526825     0.00045041821  0.00045041821  0              0             -675.08927     -787.13528     -563.15064      0              469.56443      0              0              9.5411181      9.6547319      0.2            92.116937    
      6800   0.18302029     0.00057266819  0.00057266819  0              0             -282.1013       161.75622     -726.05362      0              133.62656      0              0              9.5401577      9.6626619      0.2            92.183318    
      6900   0.21972393     0.00076792288  0.00076792288  0              0             -236.02619     -191.64215     -280.50876      0              228.69642      0              0              9.5391972      9.658141       0.2            92.130911    
      7000   0.20143144     0.00070713698  0.00070713698  0              0             -26.332729     -358.23071      305.41901      0              234.0825       0              0              9.5382368      9.6541138      0.2            92.083223    
      7100   0.25011254     0.00063416308  0.00063416308  0              0              517.08157      90.417647      943.66167      0              107.66981      0              0              9.5372763      9.6501209      0.2            92.035869    
      7200   0.26770039     0.00060249215  0.00060249215  0              0              604.64812      224.81963      984.37994      0             -407.48456      0              0              9.5363158      9.6654464      0.2            92.17275     
      7300   0.18824089     0.00052941603  0.00052941603  0              0              511.73006      459.15076      564.17527      0              185.95908      0              0              9.5353554      9.6683199      0.2            92.190866    
      7400   0.27030004     0.00062056829  0.00062056829  0              0             -90.381235     -95.053746     -85.785516      0             -543.10577      0              0              9.5343949      9.6671142      0.2            92.170085    
      7500   0.24068016     0.0006234091   0.0006234091   0              0             -91.35754       420.04298     -602.86898      0              305.40692      0              0              9.5334345      9.6803783      0.2            92.287252    
      7600   0.21098839     0.00068825118  0.00068825118  0              0             -450.77872      42.162973     -943.81918      0              93.116454      0              0              9.532474       9.6855316      0.2            92.327078    
      7700   0.32495804     0.00063264638  0.00063264638  0              0             -703.31877     -500.64292     -906.10912      0             -177.19953      0              0              9.5315136      9.6782758      0.2            92.248618    
      7800   0.24511154     0.00069348569  0.00069348569  0              0             -421.02719     -270.45469     -571.69985      0              29.534931      0              0              9.5305531      9.6549835      0.2            92.017333    
      7900   0.19327965     0.00081944807  0.00081944807  0              0              17.510606      161.46544     -126.53886      0             -320.93426      0              0              9.5295927      9.6600416      0.2            92.056261    
      8000   0.13011249     0.00068425488  0.00068425488  0              0              24.470753     -318.53556      367.37658      0             -9.0391646      0              0              9.5286322      9.6586705      0.2            92.033919    
      8100   0.18230423     0.00060524779  0.00060524779  0              0              286.91451     -55.497062      629.21754      0              233.17953      0              0              9.5276718      9.6518693      0.2            91.959843    
      8200   0.22678695     0.00059517651  0.00059517651  0              0              784.25109      882.30503      686.08271      0              41.522536      0              0              9.5267113      9.6524025      0.2            91.955652    
      8300   0.17747598     0.00057762042  0.00057762042  0              0              603.16807      663.95402      542.2723       0              20.525858      0              0              9.5257509      9.6633051      0.2            92.050237    
      8400   0.17390557     0.00057216014  0.00057216014  0              0              395.39561      520.07681      270.62247      0             -300.13705      0              0              9.5247904      9.6613848      0.2            92.022666    
      8500   0.22984742     0.00042506856  0.00042506856  0              0              479.18043      919.27881      38.990197      0             -179.42216      0              0              9.52383        9.669863       0.2            92.094131    
      8600   0.26018314     0.00065054939  0.00065054939  0              0             -74.127233      129.75057     -278.12952      0              242.49383      0              0              9.5228695      9.6846934      0.2            92.226071    
      8700   0.27993844     0.00074776328  0.00074776328  0              0             -535.0377      -583.65709     -486.5127       0              88.973562      0              0              9.5219091      9.6762202      0.2            92.136088    
      8800   0.25281931     0.00053528777  0.00053528777  0              0             -129.81746      328.6489      -588.42132      0              424.45113      0              0              9.5209486      9.6763033      0.2            92.127586    
      8900   0.23889702     0.00064874682  0.00064874682  0              0             -13.896936      257.84273     -285.75185      0             -87.635386      0              0              9.5199882      9.6661884      0.2            92.021999    
      9000   0.24895279     0.00052757763  0.00052757763  0              0              66.520633      206.01426     -73.065224      0              163.7394       0              0              9.5190277      9.6706286      0.2            92.054981    
      9100   0.19141682     0.00045496171  0.00045496171  0              0              708.04873      1167.9906      248.01423      0             -62.674601      0              0              9.5180672      9.6640475      0.2            91.983054    
      9200   0.19326601     0.00071626759  0.00071626759  0              0              431.51948      414.64762      448.26746      0              318.03898      0              0              9.5171068      9.6596117      0.2            91.931556    
      9300   0.20347397     0.00060628781  0.00060628781  0              0              619.43359      714.41166      524.33179      0              521.73295      0              0              9.5161463      9.6616723      0.2            91.941887    
      9400   0.17961438     0.00054956565  0.00054956565  0              0              494.01339      583.90042      404.00882      0              296.80719      0              0              9.5151859      9.6624663      0.2            91.940163    
      9500   0.18504899     0.00062996658  0.00062996658  0              0              416.46933      612.92496      219.90046      0             -381.55154      0              0              9.5142254      9.6723979      0.2            92.025374    
      9600   0.27157633     0.00044001054  0.00044001054  0              0              460.64524      979.60254     -58.44452       0              606.44486      0              0              9.513265       9.6728751      0.2            92.020624    
      9700   0.19073335     0.0005739893   0.0005739893   0              0              87.899344      557.80011     -382.1366       0              600.44205      0              0              9.5123045      9.6730393      0.2            92.012895    
      9800   0.20976859     0.00073122494  0.00073122494  0              0             -385.28848     -339.16599     -431.49689      0              293.41569      0              0              9.5113441      9.6821484      0.2            92.090245    
      9900   0.21155659     0.00059220655  0.00059220655  0              0             -17.893153      239.56977     -275.46393      0              229.35682      0              0              9.5103836      9.6652199      0.2            91.919949    
     10000   0.20065035     0.00055560435  0.00055560435  0              0              383.10563      845.93953     -79.816083      0              112.60125      0              0              9.5094232      9.6565606      0.2            91.828321    
     10100   0.22940255     0.00062422352  0.00062422352  0              0              617.23744      1044.1699      190.18341      0             -466.60643      0              0              9.5084627      9.6674648      0.2            91.922729    
     10200   0.23914885     0.00066241957  0.00066241957  0              0              151.63181     -133.4655       436.62521      0             -400.09368      0              0              9.5075023      9.6633894      0.2            91.874697    
     10300   0.19506576     0.00059756931  0.00059756931  0              0              559.60328      588.80019      530.29944      0             -598.02723      0              0              9.5065418      9.6685374      0.2            91.914355    
     10400   0.23000562     0.00068832791  0.00068832791  0              0              425.943        496.35255      355.44452      0             -171.53491      0              0              9.5055814      9.6791965      0.2            92.006389    
     10500   0.22233687     0.00070050227  0.00070050227  0              0              204.7578       402.22051      7.1876549      0             -470.6036       0              0              9.5046209      9.6737917      0.2            91.945723    
     10600   0.13024856     0.00041487045  0.00041487045  0              0             -139.58057      17.416287     -296.68535      0             -36.066595      0              0              9.5036605      9.671084       0.2            91.910699    
     10700   0.24600772     0.00071390763  0.00071390763  0              0             -414.63965     -454.30587     -375.08585      0             -337.97539      0              0              9.5027         9.6758992      0.2            91.947168    
     10800   0.21420421     0.00069004587  0.00069004587  0              0             -464.94942     -596.36717     -333.66105      0             -143.08822      0              0              9.5017395      9.6849733      0.2            92.024094    
     10900   0.17429752     0.00046838483  0.00046838483  0              0             -104.45319      10.704008     -219.70908      0             -63.551932      0              0              9.5007791      9.6846085      0.2            92.011326    
     11000   0.21381334     0.00041002745  0.00041002745  0              0             -28.607        -211.14478      153.8079       0             -158.07293      0              0              9.4998186      9.6808322      0.2            91.966151    
     11100   0.18671596     0.00046473158  0.00046473158  0              0              193.07077     -75.277474      461.30051      0              121.31969      0              0              9.4988582      9.6668413      0.2            91.823954    
     11200   0.14893612     0.00043070526  0.00043070526  0              0              163.64315     -291.8283       619.02391      0              187.66773      0              0              9.4978977      9.6800843      0.2            91.940451    
     11300   0.18141351     0.0005806068   0.0005806068   0              0              325.01156      105.47974      544.43214      0              671.50094      0              0              9.4969373      9.6659759      0.2            91.797166    
     11400   0.31525235     0.00045233694  0.00045233694  0              0              282.63427      418.44596      146.71271      0              229.58963      0              0              9.4959768      9.6653957      0.2            91.782374    
     11500   0.19766357     0.00071696286  0.00071696286  0              0             -401.08438     -476.14945     -326.16511      0              384.21209      0              0              9.4950164      9.6787504      0.2            91.899893    
     11600   0.22099497     0.00057855021  0.00057855021  0              0             -795.28635     -779.81123     -810.87676      0             -208.74013      0              0              9.4940559      9.6828718      0.2            91.929726    
     11700   0.18052982     0.00055599687  0.00055599687  0              0             -872.52722     -839.72017     -905.43806      0              34.754973      0              0              9.4930955      9.6870542      0.2            91.960131    
     11800   0.18257207     0.00050339463  0.00050339463  0              0             -567.45666     -535.14786     -599.85951      0             -349.63889      0              0              9.492135       9.6796761      0.2            91.880793    
     11900   0.17844724     0.00067609512  0.00067609512  0              0             -134.80931     -159.21745     -110.50098      0              413.6304       0              0              9.4911746      9.6676847      0.2            91.757683    
     12000   0.21820879     0.00059254409  0.00059254409  0              0              269.17804      245.51741      292.76169      0             -147.87185      0              0              9.4902141      9.6707496      0.2            91.777484    
     12100   0.20942176     0.00070623283  0.00070623283  0              0              331.36795      202.4265       460.18933      0              279.91454      0              0              9.4892537      9.6804643      0.2            91.860382    
     12200   0.24535769     0.00037090527  0.00037090527  0              0              368.39559      193.98719      542.6434       0             -245.79832      0              0              9.4882932      9.6748525      0.2            91.797837    
     12300   0.13951669     0.0005171597   0.0005171597   0              0              367.59075      264.12885      470.94931      0             -533.01966      0              0              9.4873328      9.691171       0.2            91.943364    
     12400   0.1927426      0.00044203751  0.00044203751  0              0              336.72865      392.65647      280.70406      0             -218.70272      0              0              9.4863723      9.6922203      0.2            91.944011    
     12500   0.19953151     0.00071205944  0.00071205944  0              0              236.66741      277.91124      195.31168      0              425.20937      0              0              9.4854119      9.6955693      0.2            91.966468    
     12600   0.20739774     0.00044903296  0.00044903296  0              0              199.79838      421.39517     -21.920637      0              227.76693      0              0              9.4844514      9.6960319      0.2            91.961544    
     12700   0.23087086     0.00063306192  0.00063306192  0              0              4.0984961      284.75949     -276.66967      0             -62.813942      0              0              9.4834909      9.6863795      0.2            91.860692    
     12800   0.1794283      0.00044950205  0.00044950205  0              0             -214.8909      -96.619913     -333.29006      0             -284.32375      0              0              9.4825305      9.703178       0.2            92.010681    
     12900   0.28330172     0.00064923626  0.00064923626  0              0             -8.2409712      430.84415     -447.43309      0              113.39814      0              0              9.48157        9.7076383      0.2            92.043652    
     13000   0.18302751     0.00062669179  0.00062669179  0              0             -135.40142      124.00494     -394.91846      0              32.401898      0              0              9.4806096      9.7006845      0.2            91.968403    
     13100   0.22253723     0.00057854116  0.00057854116  0              0              66.380224      368.0466      -235.44468      0              329.87107      0              0              9.4796491      9.6894349      0.2            91.852443    
     13200   0.22280341     0.00067257322  0.00067257322  0              0             -229.42024     -425.30217     -33.626836      0              20.952422      0              0              9.4786887      9.6817758      0.2            91.770539    
     13300   0.18776485     0.00075644767  0.00075644767  0              0              403.72806      639.78079      167.54452      0              135.36855      0              0              9.4777282      9.6856145      0.2            91.797622    
     13400   0.17748755     0.00079545606  0.00079545606  0              0              642.07309      866.44487      417.60018      0             -376.34134      0              0              9.4767678      9.689648       0.2            91.826544    
     13500   0.25870327     0.00059013533  0.00059013533  0              0              543.52982      652.81899      434.1279       0              82.588363      0              0              9.4758073      9.7001675      0.2            91.916918    
     13600   0.18047889     0.0005840803   0.0005840803   0              0              387.61755      308.51914      466.57792      0             -318.91255      0              0              9.4748469      9.6982998      0.2            91.889905    
     13700   0.20031048     0.00058244265  0.00058244265  0              0              56.892702     -195.87799      309.55261      0             -802.751        0              0              9.4738864      9.7074102      0.2            91.966902    
     13800   0.23005461     0.00059765862  0.00059765862  0              0              243.71276      337.50989      149.804        0             -385.10726      0              0              9.472926       9.6972186      0.2            91.861034    
     13900   0.18596654     0.00073380243  0.00073380243  0              0              229.57768      493.6693      -34.599482      0             -779.77595      0              0              9.4719655      9.7070364      0.2            91.944714    
     14000   0.19373901     0.00056372475  0.00056372475  0              0             -29.40382       131.51435     -190.45951      0             -373.86042      0              0              9.4710051      9.7106427      0.2            91.969547    
     14100   0.21414456     0.00065012999  0.00065012999  0              0              233.73177      724.53555     -257.19765      0              136.29341      0              0              9.4700446      9.7123026      0.2            91.975939    
     14200   0.23159739     0.00048155358  0.00048155358  0              0              23.581696      298.47971     -251.41126      0              216.83823      0              0              9.4690842      9.7114949      0.2            91.958963    
     14300   0.17062974     0.00066893833  0.00066893833  0              0              63.249365      457.06114     -330.68399      0             -220.0799       0              0              9.4681237      9.7200762      0.2            92.030883    
     14400   0.22370279     0.00065582911  0.00065582911  0              0             -11.070105      296.53478     -318.78056      0              232.71217      0              0              9.4671633      9.720536       0.2            92.025902    
     14500   0.17722626     0.00098202442  0.00098202442  0              0              117.16849      527.42281     -293.20518      0              437.24063      0              0              9.4662028      9.7007833      0.2            91.829582    
     14600   0.23377661     0.00066734024  0.00066734024  0              0             -244.27025     -264.25294     -224.39789      0              526.18988      0              0              9.4652423      9.7143145      0.2            91.948341    
     14700   0.16450487     0.00061704363  0.00061704363  0              0             -117.88298     -152.41976     -83.460763      0             -311.37265      0              0              9.4642819      9.7205248      0.2            91.997787    
     14800   0.1643837      0.00062968777  0.00062968777  0              0              112.33987      170.32587      54.243586      0             -633.15893      0              0              9.4633214      9.7182782      0.2            91.967191    
     14900   0.23179575     0.00051024436  0.00051024436  0              0              388.34585      570.9483       205.64512      0             -633.13977      0              0              9.462361       9.7174605      0.2            91.950119    
     15000   0.17757343     0.00048464456  0.00048464456  0              0              398.0189       447.82294      348.11861      0             -545.46881      0              0              9.4614005      9.7197437      0.2            91.962388    
     15100   0.17886998     0.00062869754  0.00062869754  0              0              393.43905      424.22354      362.54744      0             -225.76952      0              0              9.4604401      9.7188993      0.2            91.945064    
     15200   0.16832094     0.00055825189  0.00055825189  0              0              457.95687      579.08439      336.74794      0              94.50615       0              0              9.4594796      9.7114779      0.2            91.865528    
     15300   0.18651363     0.00069325029  0.00069325029  0              0              285.8961       193.82788      377.85707      0              39.344019      0              0              9.4585192      9.699986       0.2            91.747504    
     15400   0.24429518     0.00052713301  0.00052713301  0              0              286.34364      396.82524      175.75449      0              888.81655      0              0              9.4575587      9.7065976      0.2            91.800717    
     15500   0.22006502     0.00051456899  0.00051456899  0              0              317.19798      732.49498     -98.195902      0              600.19397      0              0              9.4565983      9.6994053      0.2            91.723379    
     15600   0.20107389     0.00057129157  0.00057129157  0              0              71.46342       462.12581     -319.3132       0              182.49213      0              0              9.4556378      9.7006718      0.2            91.726039    
     15700   0.16625289     0.00056169323  0.00056169323  0              0              59.605458      572.83794     -453.74982      0              222.16541      0              0              9.4546774      9.7081124      0.2            91.78707     
     15800   0.15458186     0.00046124179  0.00046124179  0              0             -530.88386     -572.07607     -489.81888      0             -58.202265      0              0              9.4537169      9.710952       0.2            91.804591    
     15900   0.17169739     0.00048181102  0.00048181102  0              0             -212.2976      -42.519732     -382.21594      0              389.239        0              0              9.4527565      9.7144789      0.2            91.828603    
     16000   0.18804144     0.00050525168  0.00050525168  0              0             -181.45445     -150.76937     -212.22186      0              450.18083      0              0              9.451796       9.7124209      0.2            91.799821    
     16100   0.25122133     0.00058467892  0.00058467892  0              0              94.255004      284.14143     -95.725522      0              213.312        0              0              9.4508356      9.7160563      0.2            91.82485     
     16200   0.26351847     0.00049477614  0.00049477614  0              0              461.76229      821.75314      101.69641      0              607.27294      0              0              9.4498751      9.7130051      0.2            91.786685    
     16300   0.1393902      0.00071901627  0.00071901627  0              0              383.42466      423.71673      343.01804      0              664.21489      0              0              9.4489146      9.7078908      0.2            91.729032    
     16400   0.2144218      0.0006470229   0.0006470229   0              0              567.46179      553.02901      581.7977       0              301.27266      0              0              9.4479542      9.7104574      0.2            91.743957    
     16500   0.18720305     0.0003677259   0.0003677259   0              0              362.54272      112.9904       611.9849       0              409.55756      0              0              9.4469937      9.6987825      0.2            91.624337    
     16600   0.22777225     0.00044300858  0.00044300858  0              0              492.06263      339.45435      644.57534      0              95.352744      0              0              9.4460333      9.7036822      0.2            91.661305    
     16700   0.21852023     0.00072768778  0.00072768778  0              0              526.59214      486.01686      567.05882      0              68.367214      0              0              9.4450728      9.7157416      0.2            91.765887    
     16800   0.25863746     0.00058816747  0.00058816747  0              0              527.8951       695.58792      360.10859      0             -230.21886      0              0              9.4441124      9.7039163      0.2            91.644876    
     16900   0.20752908     0.00050343943  0.00050343943  0              0              202.2702       281.15863      123.27725      0             -77.104976      0              0              9.4431519      9.7015515      0.2            91.613225    
     17000   0.21585383     0.00057032424  0.00057032424  0              0              127.33685      469.01132     -214.42825      0              400.19342      0              0              9.4421915      9.7154405      0.2            91.735049    
     17100   0.23121383     0.00057477218  0.00057477218  0              0             -165.36454      148.13503     -478.95157      0             -83.057301      0              0              9.441231       9.723917       0.2            91.805747    
     17200   0.2947515      0.00069816207  0.00069816207  0              0             -620.74867     -500.59075     -741.01574      0             -146.38128      0              0              9.4402706      9.7280731      0.2            91.835642    
     17300   0.2037438      0.0005127505   0.0005127505   0              0             -511.15481     -189.7327      -832.67421      0              314.61678      0              0              9.4393101      9.7255162      0.2            91.802163    
     17400   0.21632432     0.00072846491  0.00072846491  0              0             -258.02106      318.44354     -834.59571      0              268.39576      0              0              9.4383497      9.7266857      0.2            91.803861    
     17500   0.19085327     0.00058702206  0.00058702206  0              0             -274.73397      153.29242     -702.88033      0              120.07101      0              0              9.4373892      9.7136949      0.2            91.67192     
     17600   0.18071609     0.000638381    0.000638381    0              0             -196.96108      49.967363     -444.02481      0              327.85672      0              0              9.4364288      9.71322        0.2            91.658108    
     17700   0.15552556     0.00057015032  0.00057015032  0              0             -213.54604     -380.1747      -47.020263      0              308.29675      0              0              9.4354683      9.709556       0.2            91.614208    
     17800   0.17878795     0.00067834159  0.00067834159  0              0              260.05145      168.04313      351.96307      0              567.00992      0              0              9.4345079      9.7150476      0.2            91.656693    
     17900   0.18327251     0.00056753916  0.00056753916  0              0              848.89591      923.03619      774.64804      0              418.0406       0              0              9.4335474      9.6999873      0.2            91.50529     
     18000   0.19123598     0.00069444615  0.00069444615  0              0              960.85242      995.2213       926.40773      0              227.79747      0              0              9.432587       9.7042773      0.2            91.536439    
     18100   0.22386698     0.00080324324  0.00080324324  0              0              940.04936      817.20451      1062.763       0              96.618386      0              0              9.4316265      9.6936096      0.2            91.426505    
     18200   0.3097498      0.00085052712  0.00085052712  0              0              879.46667      719.76885      1039.0662      0              679.52834      0              0              9.430666       9.6844624      0.2            91.330931    
     18300   0.22746016     0.00069314438  0.00069314438  0              0              875.39543      945.14405      805.55364      0              538.22342      0              0              9.4297056      9.702651       0.2            91.493143    
     18400   0.19942496     0.00073345963  0.00073345963  0              0              656.03169      904.90907      407.05769      0             -221.73306      0              0              9.4287451      9.7057677      0.2            91.51321     
     18500   0.23370196     0.0006540215   0.0006540215   0              0             -38.972604     -90.01027       11.951007      0              362.66192      0              0              9.4277847      9.7102576      0.2            91.546218    
     18600   0.20347614     0.00076545235  0.00076545235  0              0             -379.59556     -378.56532     -380.71631      0              90.077874      0              0              9.4268242      9.7086036      0.2            91.5213      
     18700   0.22559872     0.00055275763  0.00055275763  0              0             -862.36874     -1049.6419     -675.17523      0              217.4132       0              0              9.4258638      9.7197279      0.2            91.616831    
     18800   0.15324507     0.00078333121  0.00078333121  0              0             -567.14651     -270.38898     -864.00819      0              135.53023      0              0              9.4249033      9.7221619      0.2            91.630436    
     18900   0.19957923     0.00069930629  0.00069930629  0              0             -905.00592     -792.44545     -1017.6538      0             -370.91909      0              0              9.4239429      9.7238042      0.2            91.636575    
     19000   0.14506178     0.00079274468  0.00079274468  0              0             -653.02629     -570.87824     -735.30162      0              49.525435      0              0              9.4229824      9.7202867      0.2            91.594091    
     19100   0.21902813     0.00059716957  0.00059716957  0              0             -149.72517      198.02413     -497.59144      0             -189.71629      0              0              9.422022       9.7133644      0.2            91.519533    
     19200   0.22296909     0.0006868243   0.0006868243   0              0              6.9745866      191.56219     -177.70883      0             -246.61951      0              0              9.4210615      9.7111655      0.2            91.489487    
     19300   0.22680122     0.00053839121  0.00053839121  0              0              169.4709       216.26831      122.56242      0              363.47346      0              0              9.4201011      9.7119115      0.2            91.487188    
     19400   0.22247025     0.00045042974  0.00045042974  0              0              309.49989      199.90007      418.96448      0              193.6876       0              0              9.4191406      9.7094363      0.2            91.454546    
     19500   0.14406758     0.0005323825   0.0005323825   0              0              251.55279     -66.256095      569.25671      0              446.03333      0              0              9.4181802      9.7015332      0.2            91.370788    
     19600   0.21743635     0.00059605762  0.00059605762  0              0              489.48549      310.3251       668.54605      0              189.74098      0              0              9.4172197      9.7049163      0.2            91.393329    
     19700   0.21049547     0.00040349917  0.00040349917  0              0              324.21237      38.300563      610.02173      0              47.229229      0              0              9.4162593      9.7113457      0.2            91.444549    
     19800   0.16298077     0.00062008113  0.00062008113  0              0              349.12101      317.30969      380.81829      0              701.62731      0              0              9.4152988      9.7134361      0.2            91.454903    
     19900   0.18124642     0.00063236957  0.00063236957  0              0              179.85744      207.86147      151.74907      0              263.99944      0              0              9.4143384      9.7084696      0.2            91.398818    
     20000   0.23972803     0.00046477084  0.00046477084  0              0              64.082701      211.93909     -83.908863      0              63.958462      0              0              9.4133779      9.7134041      0.2            91.435944    
     20100   0.18333138     0.0007509145   0.0007509145   0              0             -535.78958     -716.22659     -355.45959      0             -148.37216      0              0              9.4124174      9.7226229      0.2            91.513385    
     20200   0.25091215     0.00053811464  0.00053811464  0              0             -500.74239     -498.14487     -503.43115      0              394.65179      0              0              9.411457       9.7177498      0.2            91.458185    
     20300   0.2310948      0.00064531588  0.00064531588  0              0             -329.559       -68.381454     -590.87385      0              330.13965      0              0              9.4104965      9.7209485      0.2            91.478952    
     20400   0.24589493     0.00061314991  0.00061314991  0              0             -275.34099      72.527833     -623.29889      0             -43.579003      0              0              9.4095361      9.7287245      0.2            91.542784    
     20500   0.24054291     0.00075428372  0.00075428372  0              0             -154.82616      280.03665     -589.77341      0              86.021938      0              0              9.4085756      9.7334339      0.2            91.577749    
     20600   0.23582698     0.00064543367  0.00064543367  0              0             -291.00369     -22.924878     -559.21668      0             -213.54766      0              0              9.4076152      9.7400838      0.2            91.63096     
     20700   0.24698021     0.00062398081  0.00062398081  0              0              221.48295      913.80736     -470.96111      0             -272.51256      0              0              9.4066547      9.7468006      0.2            91.684788    
     20800   0.1830173      0.00052974545  0.00052974545  0              0              226.56537      680.82229     -227.81453      0             -322.63665      0              0              9.4056943      9.735846       0.2            91.572391    
     20900   0.1861384      0.00045059356  0.00045059356  0              0              277.46308      571.4252      -16.593978      0              224.21727      0              0              9.4047338      9.7341496      0.2            91.547086    
     21000   0.21365135     0.0006298457   0.0006298457   0              0              557.69546      1080.2133      35.073588      0              330.98954      0              0              9.4037734      9.738669       0.2            91.580236    
     21100   0.17495274     0.00063470864  0.00063470864  0              0              791.58432      1379.5022      203.53292      0              85.572848      0              0              9.4028129      9.738215       0.2            91.566614    
     21200   0.24935386     0.00054831429  0.00054831429  0              0              469.63679      558.07729      381.06179      0              722.23199      0              0              9.4018525      9.739801       0.2            91.572172    
     21300   0.17853834     0.00069481345  0.00069481345  0              0              1142.744       1750.0047      535.35763      0              630.29728      0              0              9.400892       9.724303       0.2            91.417123    
     21400   0.17091461     0.00067242873  0.00067242873  0              0              256.76279      11.82602       501.59892      0              599.19567      0              0              9.3999316      9.7292311      0.2            91.454107    
     21500   0.16783958     0.00065876488  0.00065876488  0              0              846.37802      1191.8293      500.83384      0             -240.20663      0              0              9.3989711      9.7275063      0.2            91.42855     
     21600   0.18385728     0.00065415203  0.00065415203  0              0              560.51366      719.0563       401.85518      0              38.21729       0              0              9.3980107      9.7272294      0.2            91.416606    
     21700   0.2239213      0.00061408963  0.00061408963  0              0              592.93566      812.27547      373.47262      0              79.366138      0              0              9.3970502      9.7229948      0.2            91.36747     
     21800   0.29927937     0.00055519191  0.00055519191  0              0              390.38468      485.83794      294.80311      0              536.45729      0              0              9.3960897      9.7355672      0.2            91.476263    
     21900   0.1554343      0.00056731316  0.00056731316  0              0              333.42453      446.81011      219.93735      0              193.94297      0              0              9.3951293      9.7351604      0.2            91.463091    
     22000   0.25144269     0.00060376406  0.00060376406  0              0              277.19944      421.47185      132.81597      0              650.87816      0              0              9.3941688      9.7430021      0.2            91.527407    
     22100   0.16282486     0.00068384528  0.00068384528  0              0              142.80372      133.03241      152.44907      0              566.37266      0              0              9.3932084      9.7448896      0.2            91.535779    
     22200   0.21199538     0.00067500706  0.00067500706  0              0             -353.03995     -690.50148     -15.70407       0              146.73045      0              0              9.3922479      9.7467277      0.2            91.543683    
     22300   0.2364117      0.00062184779  0.00062184779  0              0             -52.2402        12.684505     -117.27864      0             -339.16057      0              0              9.3912875      9.7443493      0.2            91.511985    
     22400   0.23223214     0.00068872604  0.00068872604  0              0             -5.1258028      273.36579     -283.73538      0              266.50637      0              0              9.390327       9.7579722      0.2            91.63055     
     22500   0.18378052     0.00062703295  0.00062703295  0              0             -225.22502     -57.892237     -392.69234      0              236.46653      0              0              9.3893666      9.7615147      0.2            91.65444     
     22600   0.19871864     0.00054789126  0.00054789126  0              0             -159.26882      91.134399     -409.80348      0             -13.212362      0              0              9.3884061      9.7596854      0.2            91.627891    
     22700   0.19972805     0.00079669281  0.00079669281  0              0             -205.25555     -6.3195331     -404.28948      0             -273.09461      0              0              9.3874457      9.7509528      0.2            91.536539    
     22800   0.23189794     0.00075240612  0.00075240612  0              0             -216.36337     -40.183205     -392.65713      0             -199.35426      0              0              9.3864852      9.7553027      0.2            91.568005    
     22900   0.20948369     0.00050322136  0.00050322136  0              0              19.931494      318.80892     -279.02889      0              69.986225      0              0              9.3855248      9.7596408      0.2            91.599351    
     23000   0.21112001     0.00062869058  0.00062869058  0              0              163.40596      568.98449     -242.28581      0             -372.97771      0              0              9.3845643      9.7705131      0.2            91.692009    
     23100   0.22294701     0.00065107007  0.00065107007  0              0              161.03734      603.2586      -281.29641      0             -103.04092      0              0              9.3836039      9.7590124      0.2            91.574707    
     23200   0.23366072     0.00057027464  0.00057027464  0              0             -140.9168      -22.854673     -259.09158      0             -310.99464      0              0              9.3826434      9.7768928      0.2            91.733099    
     23300   0.25458237     0.00063485801  0.00063485801  0              0              78.107397      370.65635     -214.55225      0              82.855478      0              0              9.381683       9.7585475      0.2            91.551599    
     23400   0.20407678     0.00071933449  0.00071933449  0              0              145.54733      469.12445     -178.1287       0              647.66882      0              0              9.3807225      9.7489546      0.2            91.452238    
     23500   0.22224256     0.00056279127  0.00056279127  0              0              145.57426      436.83811     -145.81236      0              137.08079      0              0              9.3797621      9.743865       0.2            91.395135    
     23600   0.173808       0.00059538358  0.00059538358  0              0              264.14576      678.29857     -150.10756      0              371.53725      0              0              9.3788016      9.7440189      0.2            91.38722     
     23700   0.21404171     0.00048492373  0.00048492373  0              0             -247.3991      -338.424       -156.46125      0             -369.59933      0              0              9.3778411      9.7529238      0.2            91.46137     
     23800   0.21417273     0.0005514292   0.0005514292   0              0              38.115119      149.93622     -73.802784      0              131.6161       0              0              9.3768807      9.7578391      0.2            91.498093    
     23900   0.21167253     0.00061399518  0.00061399518  0              0             -95.68622      -187.01324     -4.4732267      0              258.86975      0              0              9.3759202      9.7710424      0.2            91.612514    
     24000   0.17407152     0.00055660185  0.00055660185  0              0              2.6279847     -23.971436      29.092912      0              232.6076       0              0              9.3749598      9.7688257      0.2            91.582348    
     24100   0.15089447     0.00059391666  0.00059391666  0              0             -208.26561     -525.2623       108.63465      0              145.99836      0              0              9.3739993      9.7596121      0.2            91.486597    
     24200   0.33749823     0.00061650488  0.00061650488  0              0             -68.153926     -255.06467      118.63677      0             -417.84893      0              0              9.3730389      9.7456084      0.2            91.345966    
     24300   0.22096618     0.00066169541  0.00066169541  0              0              59.452517      2.5340549      116.25653      0              38.508342      0              0              9.3720784      9.7445862      0.2            91.327026    
     24400   0.2214846      0.00050709332  0.00050709332  0              0              8.9356705     -126.16789      143.92783      0             -229.05845      0              0              9.371118       9.7566217      0.2            91.430453    
     24500   0.24596338     0.00035270846  0.00035270846  0              0             -241.94478     -618.85455      134.8277       0              181.68417      0              0              9.3701575      9.7595653      0.2            91.448664    
     24600   0.24997905     0.00040449631  0.00040449631  0              0             -232.51728     -540.18883      75.039462      0             -24.040033      0              0              9.3691971      9.7639426      0.2            91.480303    
     24700   0.11451189     0.00049012584  0.00049012584  0              0             -337.2983      -741.4444       66.713571      0              285.69303      0              0              9.3682366      9.7580503      0.2            91.415724    
     24800   0.15033985     0.00040325908  0.00040325908  0              0              337.54844      623.0183       51.98032       0             -64.657402      0              0              9.3672762      9.7700899      0.2            91.51913     
     24900   0.20325208     0.00054898065  0.00054898065  0              0              181.86159      207.50576      156.09465      0              522.55161      0              0              9.3663157      9.7762176      0.2            91.567141    
     25000   0.26525676     0.00059192794  0.00059192794  0              0              261.28766      309.24929      213.20245      0              321.9642       0              0              9.3653553      9.766415       0.2            91.465946    
     25100   0.2280619      0.00056656334  0.00056656334  0              0              564.58553      938.09357      190.97015      0              122.99745      0              0              9.3643948      9.76152        0.2            91.410728    
     25200   0.25486039     0.00053055671  0.00053055671  0              0              543.14151      911.95931      174.21718      0              442.99268      0              0              9.3634344      9.7709108      0.2            91.489282    
     25300   0.15794916     0.00055243961  0.00055243961  0              0              296.20043      421.05952      171.23633      0              639.62943      0              0              9.3624739      9.7740159      0.2            91.508969    
     25400   0.16189126     0.000521976    0.000521976    0              0              369.29218      597.70524      140.7746       0              415.3263       0              0              9.3615135      9.7577026      0.2            91.346864    
     25500   0.21478972     0.00048739649  0.00048739649  0              0              112.70142      113.93975      111.34596      0             -39.594032      0              0              9.360553       9.7711373      0.2            91.463249    
     25600   0.2305547      0.00056260423  0.00056260423  0              0              445.46474      773.36183      117.44774      0              283.88704      0              0              9.3595925      9.7735441      0.2            91.47639     
     25700   0.14899614     0.00051401343  0.00051401343  0              0              630.9936       1151.9435      109.94071      0              226.61047      0              0              9.3586321      9.7640363      0.2            91.378023    
     25800   0.15376021     0.00046435281  0.00046435281  0              0              439.23259      778.87275      99.472369      0             -31.84737       0              0              9.3576716      9.7706623      0.2            91.430649    
     25900   0.18073953     0.00051104691  0.00051104691  0              0              592.523        980.25654      204.68235      0              324.19472      0              0              9.3567112      9.7797334      0.2            91.506141    
     26000   0.19063149     0.00042248175  0.00042248175  0              0             -105.17879     -482.83913      272.36604      0              168.46317      0              0              9.3557507      9.7701919      0.2            91.40748     
     26100   0.17122914     0.00056438954  0.00056438954  0              0             -11.965755     -382.11217      358.06739      0              496.94774      0              0              9.3547903      9.7618499      0.2            91.320059    
     26200   0.19264665     0.00084734468  0.00084734468  0              0             -45.174948     -415.45057      324.98197      0              605.79123      0              0              9.3538298      9.7572274      0.2            91.267445    
     26300   0.28027128     0.000681937    0.000681937    0              0              316.45715      304.738        328.07918      0              504.06901      0              0              9.3528694      9.7741799      0.2            91.416627    
     26400   0.1871738      0.00063411138  0.00063411138  0              0              514.31427      754.00793      274.48268      0              419.57691      0              0              9.3519089      9.7838079      0.2            91.497281    
     26500   0.21176569     0.00065556569  0.00065556569  0              0              439.06404      558.85203      319.19113      0              245.20505      0              0              9.3509485      9.771235       0.2            91.370315    
     26600   0.18008983     0.00068213917  0.00068213917  0              0              498.86031      605.18347      392.44531      0              158.51507      0              0              9.349988       9.7744323      0.2            91.390825    
     26700   0.15927178     0.00060905804  0.00060905804  0              0              460.49879      653.01551      267.85421      0             -83.688203      0              0              9.3490276      9.7845713      0.2            91.476227    
     26800   0.20370304     0.00038646625  0.00038646625  0              0              339.26459      479.16676      199.26883      0              249.85027      0              0              9.3480671      9.7758535      0.2            91.385334    
     26900   0.20258282     0.00053859898  0.00053859898  0              0              95.878398     -22.430091      214.01712      0             -41.884296      0              0              9.3471067      9.7789289      0.2            91.404692    
     27000   0.20164318     0.00064782871  0.00064782871  0              0              197.46951      123.35137      271.48471      0             -284.7599       0              0              9.3461462      9.7754308      0.2            91.362605    
     27100   0.16871482     0.0005144127   0.0005144127   0              0              244.87352      176.67321      312.95869      0              589.97106      0              0              9.3451858      9.7754688      0.2            91.353572    
     27200   0.25907145     0.00065801929  0.00065801929  0              0              763.5771       1123.631       403.42119      0             -106.57473      0              0              9.3442253      9.7814589      0.2            91.400156    
     27300   0.21038608     0.00051241193  0.00051241193  0              0              779.06141      1149.0348      408.97928      0              426.40026      0              0              9.3432649      9.7856006      0.2            91.429459    
     27400   0.16742211     0.00057192196  0.00057192196  0              0              544.47291      655.91995      432.92518      0             -160.85851      0              0              9.3423044      9.7796747      0.2            91.364698    
     27500   0.17285417     0.00049160634  0.00049160634  0              0              230.4923       50.962537      409.9011       0             -19.595236      0              0              9.3413439      9.7780703      0.2            91.340317    
     27600   0.19303855     0.0004378807   0.0004378807   0              0              271.69776      136.84734      406.41538      0             -263.33069      0              0              9.3403835      9.7798643      0.2            91.347683    
     27700   0.20400266     0.00080242666  0.00080242666  0              0              676.41128      924.83883      427.85447      0              213.67186      0              0              9.339423       9.7864461      0.2            91.39976     
     27800   0.15487531     0.00058283546  0.00058283546  0              0              892.28555      1333.8829      450.60226      0              272.80536      0              0              9.3384626      9.785553       0.2            91.38202     
[...]
     42800   0.22922322     0.00053892985  0.00053892985  0              0              402.65602      435.04535      370.13699      0              71.653736      0              0              9.1943947      9.8336284      0.2            90.414261    
     42900   0.22261912     0.00050203902  0.00050203902  0              0              524.32726      532.99187      515.55181      0             -301.23328      0              0              9.1934342      9.8286253      0.2            90.35882     
     43000   0.24017897     0.0004603784   0.0004603784   0              0              337.91636      128.96236      546.76601      0              116.41268      0              0              9.1924738      9.8274127      0.2            90.338234    
     43100   0.21516362     0.00058268     0.00058268     0              0              616.33722      630.32399      602.25413      0             -410.33922      0              0              9.1915133      9.8280229      0.2            90.334404    
     43200   0.25210863     0.0007635377   0.0007635377   0              0              620.03413      705.26952      534.68421      0             -305.78981      0              0              9.1905529      9.8300112      0.2            90.343238    
     43300   0.22135243     0.00065202724  0.00065202724  0              0              259.48835      195.03412      323.84417      0              403.22252      0              0              9.1895924      9.8248794      0.2            90.286638    
     43400   0.18778792     0.00052532108  0.00052532108  0              0              319.52051      496.16551      142.75018      0              106.92326      0              0              9.188632       9.8266348      0.2            90.293331    
     43500   0.13592992     0.00057914508  0.00057914508  0              0              300.54652      766.67517     -165.69054      0              225.51897      0              0              9.1876715      9.8388292      0.2            90.395931    
     43600   0.21332262     0.00056201436  0.00056201436  0              0             -508.10584     -611.6831      -404.64308      0              359.83626      0              0              9.1867111      9.8378483      0.2            90.37747     
     43700   0.159805       0.0005194823   0.0005194823   0              0             -465.94195     -300.3496      -631.66429      0              652.10755      0              0              9.1857506      9.8402171      0.2            90.38978     
     43800   0.14418624     0.00045196904  0.00045196904  0              0             -330.03246      127.56294     -787.72331      0              15.823591      0              0              9.1847902      9.8515746      0.2            90.484645    
     43900   0.1778856      0.00057162256  0.00057162256  0              0             -412.75661     -46.83397      -778.78298      0              164.93569      0              0              9.1838297      9.8613084      0.2            90.564577    
     44000   0.22063917     0.0006381552   0.0006381552   0              0             -322.90803      34.948098     -680.86099      0              428.77147      0              0              9.1828692      9.8593317      0.2            90.536954    
     44100   0.19719861     0.00062859589  0.00062859589  0              0              81.903745      610.30038     -446.59087      0              111.89948      0              0              9.1819088      9.8596588      0.2            90.530488    
     44200   0.20111456     0.00056309501  0.00056309501  0              0              338.8896       739.67399     -61.990085      0             -323.04739      0              0              9.1809483      9.854384       0.2            90.47259     
     44300   0.26579625     0.00044088254  0.00044088254  0              0              555.04513      868.67857      241.32135      0             -281.35678      0              0              9.1799879      9.8438273      0.2            90.366216    
     44400   0.20525928     0.00081041856  0.00081041856  0              0              598.33043      704.03824      492.49863      0             -639.61346      0              0              9.1790274      9.8421794      0.2            90.341634    
     44500   0.14492497     0.00063151349  0.00063151349  0              0              652.93461      658.98292      646.7771       0             -8.4503485      0              0              9.178067       9.8576354      0.2            90.474038    
     44600   0.17878094     0.00053506555  0.00053506555  0              0              661.53126      699.33374      623.60194      0              109.4302       0              0              9.1771065      9.8515837      0.2            90.409033    
     44700   0.23177171     0.00053805329  0.00053805329  0              0              762.91579      975.98798      549.75298      0              414.63481      0              0              9.1761461      9.8387552      0.2            90.281855    
     44800   0.19856626     0.00050362512  0.00050362512  0              0              326.81695      381.21834      272.3057       0              238.24709      0              0              9.1751856      9.8484883      0.2            90.361708    
     44900   0.15721871     0.00056738807  0.00056738807  0              0              151.25829      318.2935      -15.869206      0             -195.80074      0              0              9.1742252      9.8554263      0.2            90.4159      
     45000   0.17148851     0.00045908394  0.00045908394  0              0              411.16445      1167.0409     -344.79662      0              261.58227      0              0              9.1732647      9.8525833      0.2            90.380355    
     45100   0.15324945     0.00066197467  0.00066197467  0              0              202.20236      763.59122     -359.28645      0              164.66351      0              0              9.1723043      9.856766       0.2            90.409257    
     45200   0.17653583     0.00065484935  0.00065484935  0              0              33.737278      401.92843     -334.57341      0              28.200256      0              0              9.1713438      9.8471999      0.2            90.312056    
     45300   0.19136946     0.00054049799  0.00054049799  0              0             -329.68692     -326.41379     -333.08311      0              51.54912       0              0              9.1703834      9.8511019      0.2            90.338381    
     45400   0.20398322     0.00065505244  0.00065505244  0              0              262.50434      722.99983     -198.12132      0              772.98471      0              0              9.1694229      9.8579864      0.2            90.392046    
     45500   0.18859511     0.00079471296  0.00079471296  0              0              590.17081      1321.3454     -141.12321      0              486.43271      0              0              9.1684625      9.8411892      0.2            90.228573    
     45600   0.23464219     0.00070423461  0.00070423461  0              0              623.6805       1248.0688     -0.8419472      0              700.14941      0              0              9.167502       9.8450122      0.2            90.254169    
     45700   0.21426402     0.00052088591  0.00052088591  0              0              269.85755      400.52946      139.06588      0              838.98395      0              0              9.1665415      9.8386422      0.2            90.186323    
     45800   0.27848215     0.00074531174  0.00074531174  0              0              565.34584      801.39784      329.18754      0              165.91087      0              0              9.1655811      9.8446166      0.2            90.231632    
     45900   0.21146803     0.00084154653  0.00084154653  0              0              500.28283      635.77353      364.70005      0              235.04065      0              0              9.1646206      9.8391158      0.2            90.171764    
     46000   0.21115717     0.00067339109  0.00067339109  0              0              366.31181      335.05889      397.47392      0              731.36532      0              0              9.1636602      9.8323843      0.2            90.100629    
     46100   0.21783657     0.00074362858  0.00074362858  0              0              139.10782      14.237586      263.84254      0              116.44018      0              0              9.1626997      9.8469609      0.2            90.224746    
     46200   0.2329174      0.00058449764  0.00058449764  0              0             -238.3351      -608.19823      131.4035       0              212.71011      0              0              9.1617393      9.8550017      0.2            90.288956    
     46300   0.20241229     0.00048632132  0.00048632132  0              0             -127.40033     -155.46742     -99.449154      0              52.982837      0              0              9.1607788      9.8595148      0.2            90.320834    
     46400   0.20434        0.00062959239  0.00062959239  0              0              303.86071      768.03564     -160.40313      0              183.06055      0              0              9.1598184      9.863379       0.2            90.34676     
     46500   0.29584091     0.00058330427  0.00058330427  0              0             -205.62062     -140.21893     -271.14611      0              146.80365      0              0              9.1588579      9.8612096      0.2            90.317418    
     46600   0.25359932     0.00066333725  0.00066333725  0              0              69.2121        451.3713      -313.07826      0              428.32981      0              0              9.1578975      9.8567018      0.2            90.266665    
     46700   0.18586604     0.00059592829  0.00059592829  0              0              38.140776      203.01381     -126.87477      0              306.20713      0              0              9.156937       9.8542164      0.2            90.234439    
     46800   0.21587974     0.00058497686  0.00058497686  0              0              10.00739       85.482965     -65.599842      0              546.08767      0              0              9.1559766      9.8502025      0.2            90.188224    
     46900   0.18090566     0.00062199877  0.00062199877  0              0              89.819991      34.715648      144.82615      0              648.04532      0              0              9.1550161      9.8637506      0.2            90.302796    
     47000   0.23045011     0.00056796138  0.00056796138  0              0              303.73811      401.22701      206.13373      0             -22.477418      0              0              9.1540557      9.8610838      0.2            90.26891     
     47100   0.25624881     0.00051933367  0.00051933367  0              0              205.58862      56.870635      354.20472      0              280.17984      0              0              9.1530952      9.8639208      0.2            90.285406    
     47200   0.17661233     0.00049598017  0.00049598017  0              0              312.81521      244.84032      380.69832      0              616.92662      0              0              9.1521348      9.8500064      0.2            90.148586    
     47300   0.21011538     0.0004948121   0.0004948121   0              0              181.9628       174.87875      188.93194      0              326.55539      0              0              9.1511743      9.8555582      0.2            90.189931    
     47400   0.14315981     0.00069113929  0.00069113929  0              0              244.26652      450.89409      37.542912      0              178.97198      0              0              9.1502139      9.8593666      0.2            90.215313    
     47500   0.207856       0.00066522471  0.00066522471  0              0             -388.8609      -574.82174     -203.03473      0             -89.503265      0              0              9.1492534      9.8709444      0.2            90.311772    
     47600   0.15815452     0.00080056362  0.00080056362  0              0             -172.45613      82.044281     -427.07047      0             -132.42385      0              0              9.1482929      9.8704122      0.2            90.297423    
     47700   0.20687154     0.00050713702  0.00050713702  0              0             -238.64047     -62.27431      -415.08994      0              237.32544      0              0              9.1473325      9.8692111      0.2            90.276955    
     47800   0.20099599     0.00038848767  0.00038848767  0              0             -211.42254     -51.184002     -371.776        0              582.73138      0              0              9.146372       9.8705464      0.2            90.27969     
     47900   0.19402782     0.00066159181  0.00066159181  0              0             -365.9083      -569.48323     -162.44544      0              393.37343      0              0              9.1454116      9.8654812      0.2            90.223886    
     48000   0.19266504     0.00067703921  0.00067703921  0              0              27.230912     -112.18003      166.54462      0              611.59349      0              0              9.1444511      9.8579057      0.2            90.145137    
     48100   0.15524432     0.00055838238  0.00055838238  0              0              492.97995      434.36927      551.49053      0              379.45481      0              0              9.1434907      9.8582784      0.2            90.139077    
     48200   0.20730321     0.00041300916  0.00041300916  0              0              513.90078      268.62058      759.03323      0             -166.03752      0              0              9.1425302      9.8627435      0.2            90.17043     
     48300   0.27491434     0.00091427245  0.00091427245  0              0              1320.2551      1764.4189      875.96469      0              300.34877      0              0              9.1415698      9.860232       0.2            90.137999    
     48400   0.21137956     0.00082620075  0.00082620075  0              0              433.28253      162.60342      703.86353      0             -140.4173       0              0              9.1406093      9.8554618      0.2            90.084926    
     48500   0.19267434     0.00047894919  0.00047894919  0              0              350.18218      469.63672      230.61028      0              111.1142       0              0              9.1396489      9.867001       0.2            90.180925    
     48600   0.17117151     0.00057358234  0.00057358234  0              0             -176.07315     -31.923252     -320.31318      0             -348.39309      0              0              9.1386884      9.8831239      0.2            90.31879     
     48700   0.17229072     0.00067175345  0.00067175345  0              0             -515.54266     -192.76337     -838.45382      0              291.86965      0              0              9.137728       9.8830137      0.2            90.308291    
     48800   0.2141291      0.00060764656  0.00060764656  0              0             -418.88902      353.44056     -1191.3318      0             -113.67705      0              0              9.1367675      9.8855274      0.2            90.321766    
     48900   0.1668263      0.00063079603  0.00063079603  0              0             -909.05098     -740.64848     -1077.5484      0              188.64691      0              0              9.1358071      9.8793945      0.2            90.256242    
     49000   0.22945971     0.00070940341  0.00070940341  0              0             -315.86071      53.114603     -684.95021      0              356.56916      0              0              9.1348466      9.8685277      0.2            90.147487    
     49100   0.20439732     0.00051434002  0.00051434002  0              0             -300.82778     -540.81824     -60.958945      0              107.69313      0              0              9.1338862      9.8711311      0.2            90.161787    
     49200   0.24853613     0.00046736347  0.00046736347  0              0              212.18319      6.8679643      417.39044      0             -350.72066      0              0              9.1329257      9.873314       0.2            90.172243    
     49300   0.12176304     0.00052296218  0.00052296218  0              0              686.36847      565.96938      806.66659      0              98.873818      0              0              9.1319653      9.8687968      0.2            90.121509    
     49400   0.23892964     0.00060091879  0.00060091879  0              0              611.69413      324.45473      898.81792      0             -712.07997      0              0              9.1310048      9.8682481      0.2            90.107021    
     49500   0.19762071     0.00065302573  0.00065302573  0              0              473.7858       178.46364      769.02245      0             -537.44389      0              0              9.1300443      9.8719488      0.2            90.13133     
     49600   0.19918882     0.00058650116  0.00058650116  0              0              307.59755      205.0814       410.01873      0             -389.8602       0              0              9.1290839      9.8690987      0.2            90.09583     
     49700   0.24692606     0.00061300158  0.00061300158  0              0              108.82755      233.94364     -16.394019      0             -628.06362      0              0              9.1281234      9.8768525      0.2            90.157129    
     49800   0.19378833     0.0007435082   0.0007435082   0              0             -330.79172     -188.12605     -473.59675      0             -656.59764      0              0              9.127163       9.8952523      0.2            90.31558     
     49900   0.22260639     0.00056768377  0.00056768377  0              0             -788.89334     -977.19069     -600.69064      0             -716.95568      0              0              9.1262025      9.8871059      0.2            90.231731    
     50000   0.19227206     0.00076896784  0.00076896784  0              0             -535.08835     -464.79644     -605.51935      0             -168.70701      0              0              9.1252421      9.891312       0.2            90.260616    
     50098   0.23490475     0.00058457838  0.00058457838  0              0             -482.99194     -359.74855     -606.34606      0             -21.715122      0              0              9.1243008      9.8897808      0.2            90.237335    
Loop time of 0.761194 on 1 procs for 50000 steps with 36 atoms

Performance: 56752.944 ns/day, 0.000 hours/ns, 65686.278 timesteps/s
99.7% CPU use with 1 MPI tasks x 1 OpenMP threads

MPI task timing breakdown:
Section |  min time  |  avg time  |  max time  |%varavg| %total
---------------------------------------------------------------
Pair    | 0          | 0          | 0          |   0.0 |  0.00
Bond    | 0.10143    | 0.10143    | 0.10143    |   0.0 | 13.33
Neigh   | 0          | 0          | 0          |   0.0 |  0.00
Comm    | 0.24336    | 0.24336    | 0.24336    |   0.0 | 31.97
Output  | 0.0052623  | 0.0052623  | 0.0052623  |   0.0 |  0.69
Modify  | 0.39037    | 0.39037    | 0.39037    |   0.0 | 51.28
Other   |            | 0.02077    |            |       |  2.73

Nlocal:             36 ave          36 max          36 min
Histogram: 1 0 0 0 0 0 0 0 0 0
Nghost:            316 ave         316 max         316 min
Histogram: 1 0 0 0 0 0 0 0 0 0
Neighs:              0 ave           0 max           0 min
Histogram: 1 0 0 0 0 0 0 0 0 0

Total # of neighbors = 0
Ave neighs/atom = 0
Ave special neighs/atom = 18.777778
Neighbor list builds = 0
Dangerous builds = 0


Total wall time: 0:00:00
