ITEM: TIMESTEP
250
ITEM: NUMBER OF ATOMS
57
ITEM: BOX BOUNDS pp pp pp
-4.8239190903776112e+00 4.8239190903776112e+00
-4.8253711868756355e+00 4.8253711868756355e+00
-1.0000000000000001e-01 1.0000000000000001e-01
ITEM: ATOMS id type xs ys zs
4 1 0.0691906 0.0334179 0.499679
39 1 0.341012 0.036772 0.499539
21 1 0.471318 0.073745 0.500034
3 1 0.605856 0.132243 0.499702
20 1 0.915978 0.0452261 0.500536
65 1 0.0104295 0.1142 0.500369
37 1 0.0780144 0.177926 0.501159
33 1 0.177052 0.111789 0.498876
53 1 0.287762 0.127874 0.50078
45 1 0.380255 0.148954 0.49948
31 1 0.484724 0.197499 0.500603
52 1 0.925634 0.176394 0.500174
6 1 0.0825517 0.300617 0.50017
40 1 0.19452 0.229577 0.499334
19 1 0.431743 0.318615 0.49997
48 1 0.557201 0.300029 0.499401
22 1 0.66745 0.256019 0.4999
9 1 0.809145 0.241217 0.499819
61 1 0.9152 0.257185 0.501371
42 1 0.960805 0.320923 0.500056
13 1 0.53966 0.430819 0.500935
46 1 0.731067 0.342363 0.498892
16 1 0.854227 0.378607 0.501875
7 1 0.39584 0.478427 0.500785
44 1 0.500583 0.562332 0.49959
64 1 0.581558 0.541143 0.499122
15 1 0.688888 0.458215 0.499176
29 1 0.823643 0.509877 0.501047
27 1 0.93402 0.496127 0.500135
8 1 0.0363302 0.602873 0.50132
78 1 0.116679 0.686121 0.499986
41 1 0.407256 0.618309 0.501025
68 1 0.420227 0.692349 0.499994
47 1 0.500446 0.649413 0.500255
2 1 0.65183 0.622822 0.50084
32 1 0.894446 0.615048 0.500512
66 1 0.800301 0.602303 0.499951
35 1 0.0579377 0.743825 0.500153
11 1 0.200535 0.755245 0.500262
38 1 0.32656 0.688896 0.500145
28 1 0.445685 0.765506 0.499501
34 1 0.56518 0.73742 0.499124
17 1 0.781312 0.711317 0.500306
43 1 0.100588 0.845581 0.500038
54 1 0.326638 0.799995 0.498941
58 1 0.274981 0.863911 0.498058
26 1 0.413723 0.880479 0.498473
30 1 0.539053 0.861709 0.500592
5 1 0.672369 0.82487 0.499513
12 1 0.995487 0.902021 0.500389
70 1 0.166212 0.880455 0.499606
62 1 0.12239 0.917336 0.500723
18 1 0.218196 0.987331 0.500848
80 1 0.322987 0.935333 0.499717
50 1 0.43165 0.97642 0.50053
60 1 0.520315 0.972793 0.499989
1 1 0.63464 0.974716 0.500593
ITEM: TIMESTEP
500
ITEM: NUMBER OF ATOMS
57
ITEM: BOX BOUNDS pp pp pp
-4.8227129791388919e+00 4.8227129791388919e+00
-4.8238460745356146e+00 4.8238460745356146e+00
-1.0000000000000001e-01 1.0000000000000001e-01
ITEM: ATOMS id type xs ys zs
4 1 0.0693647 0.0335025 0.50005
39 1 0.34081 0.0363208 0.49835
21 1 0.471765 0.0741091 0.500016
3 1 0.605678 0.13214 0.500753
20 1 0.915923 0.0455965 0.500968
65 1 0.0104826 0.114801 0.501006
37 1 0.0781677 0.178858 0.502027
33 1 0.177 0.112241 0.49695
53 1 0.288133 0.127321 0.500814
45 1 0.38081 0.149455 0.499792
31 1 0.485502 0.198504 0.49995
52 1 0.925733 0.177121 0.502779
6 1 0.0832331 0.301517 0.500388
40 1 0.195212 0.230128 0.500226
19 1 0.431709 0.319614 0.500578
48 1 0.556472 0.30082 0.500854
22 1 0.666601 0.256309 0.499042
9 1 0.808975 0.24126 0.500739
61 1 0.915037 0.257455 0.502881
42 1 0.961194 0.320365 0.502905
13 1 0.540022 0.432416 0.500962
46 1 0.731304 0.342723 0.499003
16 1 0.854347 0.378544 0.501615
7 1 0.395214 0.478558 0.50034
44 1 0.499754 0.562741 0.500687
64 1 0.580558 0.542153 0.498745
15 1 0.688786 0.458122 0.499706
29 1 0.824137 0.509631 0.498691
27 1 0.934946 0.496477 0.499928
8 1 0.0370725 0.602612 0.500402
78 1 0.116883 0.686756 0.498932
41 1 0.406962 0.618694 0.500381
68 1 0.419658 0.69248 0.499142
47 1 0.500806 0.649648 0.501108
2 1 0.652123 0.622762 0.501488
32 1 0.894203 0.615232 0.501728
66 1 0.800488 0.601972 0.501941
35 1 0.0573868 0.74378 0.499116
11 1 0.200749 0.756096 0.500168
38 1 0.32649 0.689444 0.498638
28 1 0.445804 0.765175 0.498388
34 1 0.565348 0.737918 0.499325
17 1 0.78186 0.711708 0.498913
43 1 0.10058 0.845294 0.501688
54 1 0.326175 0.800673 0.499657
58 1 0.274269 0.864799 0.497916
26 1 0.413721 0.880231 0.499927
30 1 0.538971 0.862551 0.499497
5 1 0.672859 0.824882 0.498295
12 1 0.996169 0.901801 0.498783
70 1 0.166746 0.879441 0.498896
62 1 0.123123 0.916586 0.501634
18 1 0.218233 0.987151 0.501374
80 1 0.323217 0.935028 0.499614
50 1 0.432637 0.976683 0.49938
60 1 0.521349 0.973505 0.500384
1 1 0.635911 0.97453 0.499538
ITEM: TIMESTEP
750
ITEM: NUMBER OF ATOMS
57
ITEM: BOX BOUNDS pp pp pp
-4.8215068679001725e+00 4.8215068679001725e+00
-4.8279375875907187e+00 4.8279375875907187e+00
-1.0000000000000001e-01 1.0000000000000001e-01
ITEM: ATOMS id type xs ys zs
4 1 0.0695843 0.0338473 0.500366
39 1 0.341286 0.0367978 0.49858
21 1 0.472759 0.0748737 0.499355
3 1 0.606806 0.13287 0.49984
20 1 0.91656 0.0455392 0.502346
65 1 0.0110302 0.115175 0.501674
37 1 0.0785021 0.178675 0.503865
33 1 0.177625 0.112389 0.497146
53 1 0.288577 0.127582 0.501138
45 1 0.38065 0.149373 0.498381
31 1 0.485969 0.198814 0.502062
52 1 0.926388 0.175823 0.503077
6 1 0.0830274 0.301087 0.498005
40 1 0.19568 0.23002 0.501067
19 1 0.432229 0.319069 0.500604
48 1 0.557167 0.301323 0.50063
22 1 0.667244 0.25708 0.498846
9 1 0.809541 0.240723 0.501423
61 1 0.9161 0.255795 0.503282
42 1 0.961113 0.320303 0.504739
13 1 0.540232 0.432037 0.502877
46 1 0.731853 0.343356 0.501378
16 1 0.85522 0.378811 0.50249
7 1 0.395317 0.478431 0.497766
44 1 0.499804 0.563099 0.501103
64 1 0.580853 0.542398 0.49829
15 1 0.689162 0.458666 0.500953
29 1 0.824202 0.509706 0.495971
27 1 0.934307 0.49621 0.500313
8 1 0.0361359 0.602909 0.499626
78 1 0.116476 0.68588 0.499883
41 1 0.406336 0.618868 0.499747
68 1 0.419998 0.692527 0.499463
47 1 0.500889 0.649468 0.50224
2 1 0.65253 0.62302 0.502787
32 1 0.895713 0.614985 0.501821
66 1 0.800926 0.601951 0.50209
35 1 0.0575572 0.743538 0.498955
11 1 0.200046 0.756294 0.501015
38 1 0.326823 0.690563 0.497218
28 1 0.445402 0.76556 0.497402
34 1 0.564807 0.738164 0.500049
17 1 0.782009 0.711181 0.497157
43 1 0.101677 0.844973 0.504292
54 1 0.327006 0.801133 0.499267
58 1 0.275 0.864214 0.498824
26 1 0.414046 0.881295 0.497655
30 1 0.539522 0.862938 0.500742
5 1 0.672551 0.824437 0.498638
12 1 0.996911 0.901872 0.500803
70 1 0.167121 0.879847 0.499618
62 1 0.123365 0.91682 0.501451
18 1 0.218921 0.986986 0.502396
80 1 0.323783 0.935485 0.499554
50 1 0.43311 0.977932 0.499998
60 1 0.522288 0.974267 0.498921
1 1 0.636837 0.974584 0.499151
ITEM: TIMESTEP
1000
ITEM: NUMBER OF ATOMS
57
ITEM: BOX BOUNDS pp pp pp
-4.8203007566614531e+00 4.8203007566614531e+00
-4.8261403714995774e+00 4.8261403714995774e+00
-1.0000000000000001e-01 1.0000000000000001e-01
ITEM: ATOMS id type xs ys zs
4 1 0.0699484 0.0340829 0.501283
39 1 0.340972 0.0366394 0.499776
21 1 0.472213 0.0748647 0.498561
3 1 0.606218 0.133007 0.500999
20 1 0.91621 0.0443546 0.501174
65 1 0.0104111 0.114386 0.501298
37 1 0.0781473 0.178561 0.503044
33 1 0.177907 0.11235 0.497155
53 1 0.288468 0.127737 0.50139
45 1 0.381289 0.149493 0.496316
31 1 0.485531 0.199686 0.50261
52 1 0.926571 0.17535 0.502167
6 1 0.0840528 0.301473 0.499306
40 1 0.195739 0.230071 0.499856
19 1 0.431738 0.320147 0.500341
48 1 0.55705 0.30033 0.501479
22 1 0.66805 0.256989 0.498337
9 1 0.810452 0.240889 0.501077
61 1 0.917612 0.256146 0.502769
42 1 0.961953 0.321257 0.505198
13 1 0.540464 0.431651 0.502851
46 1 0.732095 0.342996 0.50322
16 1 0.855829 0.378751 0.502542
7 1 0.395054 0.479045 0.499023
44 1 0.499885 0.562736 0.499961
64 1 0.580806 0.541751 0.497097
15 1 0.689606 0.458188 0.501649
29 1 0.825249 0.509636 0.497241
27 1 0.935502 0.49607 0.499403
8 1 0.0366218 0.603411 0.500194
78 1 0.117094 0.686942 0.499267
41 1 0.406624 0.618351 0.49822
68 1 0.419662 0.692381 0.500839
47 1 0.500729 0.649718 0.501985
2 1 0.651688 0.623053 0.503749
32 1 0.896031 0.615333 0.500084
66 1 0.801751 0.601903 0.500997
35 1 0.0573504 0.743592 0.499992
11 1 0.200507 0.756415 0.50195
38 1 0.326404 0.689443 0.497319
28 1 0.445018 0.765603 0.496792
34 1 0.564807 0.738482 0.499211
17 1 0.781356 0.711122 0.49562
43 1 0.101444 0.844862 0.506001
54 1 0.327788 0.800361 0.496495
58 1 0.275554 0.86412 0.498161
26 1 0.414539 0.880971 0.496875
30 1 0.53945 0.862594 0.498991
5 1 0.673068 0.82439 0.501026
12 1 0.997217 0.901818 0.50102
70 1 0.167102 0.879222 0.499304
62 1 0.123067 0.91633 0.498955
18 1 0.21867 0.985883 0.503621
80 1 0.323986 0.93509 0.501025
50 1 0.432916 0.977509 0.501795
60 1 0.521477 0.974023 0.498616
1 1 0.63604 0.973972 0.498627
ITEM: TIMESTEP
1250
ITEM: NUMBER OF ATOMS
57
ITEM: BOX BOUNDS pp pp pp
-4.8190946454227337e+00 4.8190946454227337e+00
-4.8266399080682696e+00 4.8266399080682696e+00
-1.0000000000000001e-01 1.0000000000000001e-01
ITEM: ATOMS id type xs ys zs
4 1 0.0699018 0.0334446 0.501226
39 1 0.341283 0.036559 0.501343
21 1 0.472239 0.0749645 0.498278
3 1 0.6062 0.133016 0.498989
20 1 0.916252 0.0449159 0.500278
65 1 0.0110205 0.114104 0.501843
37 1 0.0788853 0.178393 0.501537
33 1 0.177694 0.111646 0.497105
53 1 0.288483 0.127284 0.502503
45 1 0.380517 0.150119 0.496742
31 1 0.485531 0.198444 0.50371
52 1 0.927468 0.175583 0.502064
6 1 0.0841143 0.30101 0.498761
40 1 0.196461 0.228896 0.501059
19 1 0.432253 0.319246 0.501175
48 1 0.55716 0.300803 0.500468
22 1 0.667721 0.256823 0.497041
9 1 0.811173 0.24104 0.502083
61 1 0.917842 0.256103 0.502421
42 1 0.962526 0.3207 0.503867
13 1 0.540934 0.432028 0.501729
46 1 0.732153 0.342433 0.503308
16 1 0.855998 0.378228 0.50371
7 1 0.395542 0.478832 0.498483
44 1 0.499867 0.56378 0.500263
64 1 0.580424 0.542145 0.496363
15 1 0.688961 0.457807 0.501811
29 1 0.823767 0.509699 0.499537
27 1 0.934124 0.496296 0.49905
8 1 0.0365978 0.602817 0.498186
78 1 0.116219 0.68675 0.499876
41 1 0.406146 0.618074 0.498047
68 1 0.419297 0.69209 0.501812
47 1 0.499386 0.650276 0.501108
2 1 0.650974 0.623557 0.503891
32 1 0.895349 0.615721 0.500659
66 1 0.800711 0.601849 0.50027
35 1 0.0575298 0.743983 0.501211
11 1 0.200325 0.756485 0.503127
38 1 0.326031 0.689364 0.497239
28 1 0.444283 0.765417 0.49828
34 1 0.563877 0.738487 0.499201
17 1 0.781378 0.711126 0.496942
43 1 0.101632 0.84511 0.506336
54 1 0.327097 0.800365 0.495476
58 1 0.275213 0.864361 0.498964
26 1 0.414051 0.88127 0.49639
30 1 0.539467 0.86333 0.499224
5 1 0.672308 0.824242 0.502207
12 1 0.997396 0.901615 0.498212
70 1 0.167054 0.88 0.498546
62 1 0.122951 0.916958 0.500316
18 1 0.218645 0.986767 0.503892
80 1 0.323531 0.93496 0.50024
50 1 0.433286 0.977421 0.50182
60 1 0.52215 0.974603 0.498418
1 1 0.636608 0.974266 0.497538
ITEM: TIMESTEP
1500
ITEM: NUMBER OF ATOMS
57
ITEM: BOX BOUNDS pp pp pp
-4.8178885341840143e+00 4.8178885341840143e+00
-4.8230545794856106e+00 4.8230545794856106e+00
-1.0000000000000001e-01 1.0000000000000001e-01
ITEM: ATOMS id type xs ys zs
4 1 0.0701237 0.0332633 0.502539
39 1 0.342061 0.0367005 0.501906
21 1 0.472015 0.0736932 0.499682
3 1 0.606079 0.131517 0.498199
20 1 0.915901 0.0450713 0.500882
65 1 0.0107417 0.114433 0.502303
37 1 0.0784204 0.178082 0.503076
33 1 0.177523 0.11152 0.495688
53 1 0.288098 0.127331 0.503371
45 1 0.380774 0.148258 0.498703
31 1 0.485824 0.198101 0.503193
52 1 0.926946 0.175754 0.502211
6 1 0.0838763 0.301235 0.499694
40 1 0.195368 0.229788 0.500154
19 1 0.432043 0.318981 0.501553
48 1 0.557865 0.30157 0.497494
22 1 0.667517 0.256461 0.498973
9 1 0.810261 0.240868 0.504866
61 1 0.917185 0.256218 0.504248
42 1 0.962141 0.320669 0.507727
13 1 0.539771 0.431529 0.503371
46 1 0.732495 0.343211 0.502197
16 1 0.85564 0.378407 0.503765
7 1 0.395035 0.478509 0.49896
44 1 0.499664 0.563367 0.499635
64 1 0.579956 0.541717 0.498647
15 1 0.688745 0.457978 0.502326
29 1 0.823961 0.509066 0.499756
27 1 0.934272 0.495764 0.501144
8 1 0.0368979 0.602428 0.498863
78 1 0.11624 0.686826 0.49976
41 1 0.405794 0.617948 0.499304
68 1 0.418551 0.691705 0.501976
47 1 0.500031 0.650412 0.50239
2 1 0.650463 0.6231 0.502346
32 1 0.894538 0.614626 0.501211
66 1 0.800294 0.601179 0.499654
35 1 0.0571045 0.743951 0.500139
11 1 0.199505 0.75784 0.503517
38 1 0.324838 0.688989 0.497221
28 1 0.444752 0.764599 0.499532
34 1 0.564561 0.738811 0.498903
17 1 0.780211 0.710777 0.496832
43 1 0.101948 0.844989 0.50611
54 1 0.325822 0.800366 0.494345
58 1 0.275023 0.865184 0.497882
26 1 0.413678 0.880375 0.498102
30 1 0.538616 0.862742 0.497849
5 1 0.67206 0.824831 0.502569
12 1 0.996819 0.901079 0.497471
70 1 0.167344 0.879802 0.497053
62 1 0.123124 0.916621 0.501668
18 1 0.219308 0.986601 0.506226
80 1 0.324971 0.935158 0.499431
50 1 0.433278 0.976697 0.503521
60 1 0.522033 0.973879 0.497462
1 1 0.636308 0.97475 0.498487
ITEM: TIMESTEP
1750
ITEM: NUMBER OF ATOMS
57
ITEM: BOX BOUNDS pp pp pp
-4.8166824229452949e+00 4.8166824229452949e+00
-4.8307680844649417e+00 4.8307680844649417e+00
-1.0000000000000001e-01 1.0000000000000001e-01
ITEM: ATOMS id type xs ys zs
4 1 0.0702625 0.0343701 0.501553
39 1 0.341638 0.0361145 0.502098
21 1 0.472382 0.074535 0.500661
3 1 0.606564 0.133197 0.499667
20 1 0.916762 0.0447807 0.501062
65 1 0.0105418 0.114808 0.502424
37 1 0.0785276 0.178867 0.503388
33 1 0.177945 0.113151 0.494892
53 1 0.288853 0.127575 0.503465
45 1 0.381272 0.149655 0.49799
31 1 0.48584 0.199345 0.503098
52 1 0.926632 0.175184 0.500867
6 1 0.0833714 0.301244 0.499528
40 1 0.19557 0.230371 0.502261
19 1 0.431544 0.319578 0.501398
48 1 0.556768 0.300452 0.497656
22 1 0.667215 0.256807 0.499695
9 1 0.810586 0.241892 0.504956
61 1 0.917629 0.255644 0.502923
42 1 0.961071 0.32079 0.507483
13 1 0.539391 0.431226 0.504688
46 1 0.73156 0.342687 0.501749
16 1 0.855218 0.378579 0.501548
7 1 0.394632 0.478688 0.499848
44 1 0.498961 0.563664 0.497076
64 1 0.579793 0.541068 0.49778
15 1 0.687722 0.457665 0.505105
29 1 0.823435 0.509248 0.497831
27 1 0.934821 0.496184 0.50091
8 1 0.0363476 0.602598 0.4971
78 1 0.115417 0.687428 0.499958
41 1 0.407237 0.618152 0.499031
68 1 0.419511 0.69205 0.502366
47 1 0.500604 0.650737 0.501796
2 1 0.649343 0.623247 0.503024
32 1 0.893796 0.614461 0.504857
66 1 0.799769 0.601269 0.500546
35 1 0.0561943 0.744459 0.498321
11 1 0.199968 0.756011 0.503172
38 1 0.326065 0.689585 0.498509
28 1 0.444633 0.765136 0.501676
34 1 0.56452 0.739314 0.50087
17 1 0.780187 0.710357 0.498018
43 1 0.102914 0.844787 0.505175
54 1 0.326659 0.800688 0.492113
58 1 0.274213 0.864158 0.497896
26 1 0.414647 0.880579 0.497333
30 1 0.53993 0.863544 0.497207
5 1 0.672224 0.82443 0.500824
12 1 0.998827 0.901787 0.498058
70 1 0.16809 0.880174 0.49711
62 1 0.123716 0.916639 0.502574
18 1 0.219298 0.987439 0.506151
80 1 0.323637 0.934692 0.500008
50 1 0.433466 0.977138 0.503786
60 1 0.5219 0.973903 0.496599
1 1 0.636741 0.974284 0.498266
ITEM: TIMESTEP
2000
ITEM: NUMBER OF ATOMS
57
ITEM: BOX BOUNDS pp pp pp
-4.8154763117065755e+00 4.8154763117065755e+00
-4.8335669352877790e+00 4.8335669352877790e+00
-1.0000000000000001e-01 1.0000000000000001e-01
ITEM: ATOMS id type xs ys zs
4 1 0.0700374 0.0344434 0.501492
39 1 0.341459 0.0355494 0.501536
21 1 0.471605 0.0746658 0.500543
3 1 0.606088 0.13267 0.500693
20 1 0.916456 0.0445618 0.500272
65 1 0.0109734 0.114759 0.501198
37 1 0.0787567 0.178718 0.502077
33 1 0.17737 0.111415 0.495217
53 1 0.288083 0.125971 0.504336
45 1 0.380296 0.149505 0.498427
31 1 0.484942 0.197887 0.50302
52 1 0.926777 0.175023 0.50239
6 1 0.0839868 0.30079 0.498119
40 1 0.195801 0.228726 0.502313
19 1 0.432854 0.318863 0.50299
48 1 0.557496 0.300759 0.49822
22 1 0.668225 0.255741 0.499658
9 1 0.811378 0.241367 0.504409
61 1 0.918399 0.255566 0.502264
42 1 0.961975 0.320961 0.509189
13 1 0.539967 0.431882 0.505325
46 1 0.731477 0.342384 0.499915
16 1 0.855571 0.379212 0.500551
7 1 0.395066 0.478141 0.499403
44 1 0.498201 0.564486 0.494975
64 1 0.57884 0.542482 0.498232
15 1 0.688615 0.45742 0.505483
29 1 0.823816 0.509987 0.497322
27 1 0.934076 0.497026 0.500858
8 1 0.0355452 0.603828 0.495911
78 1 0.11651 0.686404 0.500269
41 1 0.406077 0.618272 0.497453
68 1 0.419529 0.69207 0.502908
47 1 0.499897 0.651004 0.500979
2 1 0.650183 0.623299 0.503319
32 1 0.894253 0.615389 0.505313
66 1 0.799756 0.602243 0.501613
35 1 0.057294 0.74437 0.496959
11 1 0.20024 0.755737 0.502218
38 1 0.326008 0.689778 0.497175
28 1 0.443474 0.765485 0.500762
34 1 0.563737 0.739215 0.50132
17 1 0.78021 0.711309 0.499645
43 1 0.102893 0.84482 0.505422
54 1 0.326598 0.800833 0.491299
58 1 0.273951 0.864313 0.497951
26 1 0.413749 0.881176 0.496513
30 1 0.539459 0.86341 0.497661
5 1 0.672673 0.824602 0.500514
12 1 0.998636 0.902095 0.496545
70 1 0.167997 0.880684 0.494611
62 1 0.123432 0.916653 0.503014
18 1 0.218461 0.987688 0.503961
80 1 0.323251 0.934742 0.499204
50 1 0.433645 0.976663 0.504353
60 1 0.522548 0.974932 0.498134
1 1 0.636448 0.97434 0.498307
ITEM: TIMESTEP
2250
ITEM: NUMBER OF ATOMS
57
ITEM: BOX BOUNDS pp pp pp
-4.8142702004678561e+00 4.8142702004678561e+00
-4.8405634269498661e+00 4.8405634269498661e+00
-1.0000000000000001e-01 1.0000000000000001e-01
ITEM: ATOMS id type xs ys zs
4 1 0.0698144 0.0336346 0.501847
39 1 0.342025 0.0356259 0.503102
21 1 0.472265 0.0751077 0.499641
3 1 0.605867 0.133176 0.501999
20 1 0.915889 0.0444591 0.501283
65 1 0.0108997 0.113671 0.500692
37 1 0.0786883 0.177936 0.502473
33 1 0.177705 0.111842 0.494323
53 1 0.288256 0.125433 0.504697
45 1 0.380475 0.148832 0.497261
31 1 0.485149 0.19849 0.503171
52 1 0.92725 0.174573 0.502575
6 1 0.0840272 0.300073 0.499086
40 1 0.196488 0.22889 0.501853
19 1 0.431571 0.319071 0.501618
48 1 0.557146 0.300698 0.498318
22 1 0.668014 0.256363 0.501303
9 1 0.811864 0.242084 0.507258
61 1 0.918895 0.255069 0.504155
42 1 0.962145 0.320752 0.505888
13 1 0.54026 0.431593 0.507333
46 1 0.732659 0.34223 0.49739
16 1 0.856283 0.37909 0.499989
7 1 0.395126 0.476883 0.501144
44 1 0.497581 0.563619 0.49537
64 1 0.578264 0.542324 0.497982
15 1 0.689353 0.456764 0.50576
29 1 0.823279 0.509388 0.497381
27 1 0.933807 0.496582 0.500239
8 1 0.0338469 0.605237 0.495582
78 1 0.116001 0.686989 0.500879
41 1 0.406558 0.619564 0.497727
68 1 0.419243 0.693394 0.503097
47 1 0.500185 0.650265 0.499015
2 1 0.649238 0.624045 0.503345
32 1 0.893 0.615001 0.506444
66 1 0.798607 0.60128 0.503002
35 1 0.0574523 0.745008 0.496645
11 1 0.200387 0.756617 0.500895
38 1 0.3259 0.690567 0.498619
28 1 0.44342 0.76635 0.500376
34 1 0.563439 0.739865 0.501539
17 1 0.780029 0.710541 0.49959
43 1 0.101662 0.846022 0.504891
54 1 0.326932 0.800783 0.492623
58 1 0.275112 0.864158 0.496076
26 1 0.413815 0.881806 0.496481
30 1 0.539144 0.864743 0.498475
5 1 0.67214 0.824819 0.499855
12 1 0.996918 0.901878 0.496253
70 1 0.166887 0.881076 0.494204
62 1 0.122681 0.917678 0.501424
18 1 0.218991 0.987238 0.50361
80 1 0.323344 0.934602 0.498635
50 1 0.434102 0.976966 0.504352
60 1 0.523106 0.975701 0.497927
1 1 0.637469 0.974993 0.49658
ITEM: TIMESTEP
2500
ITEM: NUMBER OF ATOMS
57
ITEM: BOX BOUNDS pp pp pp
-4.8130640892291368e+00 4.8130640892291368e+00
-4.8443289866608534e+00 4.8443289866608534e+00
-1.0000000000000001e-01 1.0000000000000001e-01
ITEM: ATOMS id type xs ys zs
4 1 0.0687702 0.0332365 0.501614
39 1 0.342613 0.0350355 0.502785
21 1 0.472291 0.0744865 0.498082
3 1 0.606561 0.133602 0.501188
20 1 0.914827 0.0450476 0.501148
65 1 0.00985135 0.113863 0.498662
37 1 0.0783878 0.177018 0.500624
33 1 0.177103 0.110798 0.496527
53 1 0.288496 0.124838 0.501138
45 1 0.380696 0.147982 0.498972
31 1 0.485089 0.197942 0.500663
52 1 0.927067 0.175355 0.501893
6 1 0.0844122 0.299139 0.500187
40 1 0.196127 0.227542 0.501314
19 1 0.432448 0.318437 0.501277
48 1 0.558534 0.300996 0.498067
22 1 0.668585 0.255487 0.500402
9 1 0.811328 0.240813 0.509357
61 1 0.918035 0.25552 0.50471
42 1 0.962464 0.319968 0.507258
13 1 0.539927 0.431528 0.507685
46 1 0.732118 0.341597 0.496608
16 1 0.856018 0.377974 0.501963
7 1 0.395675 0.477075 0.502048
44 1 0.498117 0.564174 0.495288
64 1 0.578585 0.541715 0.498007
15 1 0.688976 0.455894 0.505974
29 1 0.823612 0.508823 0.496963
27 1 0.934103 0.496489 0.500794
8 1 0.0334011 0.605561 0.495732
78 1 0.115633 0.687168 0.500821
41 1 0.406481 0.618879 0.497651
68 1 0.418211 0.692532 0.499944
47 1 0.500035 0.650794 0.499155
2 1 0.647569 0.623992 0.504897
32 1 0.893423 0.61453 0.50656
66 1 0.799194 0.600845 0.502109
35 1 0.0569769 0.745304 0.495308
11 1 0.19985 0.756761 0.498471
38 1 0.324888 0.688819 0.499372
28 1 0.443017 0.765912 0.501304
34 1 0.563516 0.739551 0.503983
17 1 0.779231 0.709631 0.499432
43 1 0.101033 0.846753 0.503638
54 1 0.326746 0.799849 0.493172
58 1 0.275378 0.864024 0.495675
26 1 0.412856 0.881477 0.49684
30 1 0.538849 0.863763 0.496414
5 1 0.672057 0.82408 0.500027
12 1 0.995606 0.902135 0.495893
70 1 0.167084 0.880436 0.493831
62 1 0.123557 0.917896 0.500814
18 1 0.218769 0.987019 0.502101
80 1 0.324016 0.934464 0.497664
50 1 0.434327 0.976393 0.504796
60 1 0.52366 0.974781 0.498844
1 1 0.637782 0.973739 0.495954
ITEM: TIMESTEP
2750
ITEM: NUMBER OF ATOMS
57
ITEM: BOX BOUNDS pp pp pp
-4.8118579779904174e+00 4.8118579779904174e+00
-4.8468555654202490e+00 4.8468555654202490e+00
-1.0000000000000001e-01 1.0000000000000001e-01
ITEM: ATOMS id type xs ys zs
4 1 0.0692463 0.0323062 0.503867
39 1 0.342262 0.0346535 0.501828
21 1 0.4715 0.0741001 0.498463
3 1 0.605891 0.13317 0.503296
20 1 0.914728 0.0444344 0.501221
65 1 0.00982326 0.112802 0.499133
37 1 0.0779185 0.17686 0.500474
33 1 0.177087 0.109942 0.497909
53 1 0.288243 0.124322 0.499939
45 1 0.380335 0.148405 0.497653
31 1 0.485021 0.19772 0.502784
52 1 0.926589 0.174868 0.503008
6 1 0.084707 0.299295 0.499985
40 1 0.195535 0.226525 0.500907
19 1 0.432262 0.318331 0.500447
48 1 0.558066 0.301579 0.49701
22 1 0.667945 0.255947 0.500941
9 1 0.811038 0.241028 0.508546
61 1 0.918336 0.255059 0.503764
42 1 0.962505 0.320137 0.506558
13 1 0.539989 0.431235 0.507936
46 1 0.731921 0.341941 0.497079
16 1 0.855718 0.378483 0.501344
7 1 0.39485 0.47769 0.502512
44 1 0.497859 0.564476 0.494433
64 1 0.578114 0.541567 0.49592
15 1 0.688673 0.456681 0.507296
29 1 0.823251 0.508908 0.497229
27 1 0.933271 0.496534 0.500584
8 1 0.0330905 0.604808 0.496167
78 1 0.114623 0.687034 0.500002
41 1 0.405373 0.619631 0.497557
68 1 0.418034 0.693038 0.499378
47 1 0.499456 0.650965 0.49818
2 1 0.648495 0.623428 0.504775
32 1 0.892979 0.614181 0.50762
66 1 0.798201 0.600699 0.503508
35 1 0.0557159 0.744881 0.49458
11 1 0.199263 0.756794 0.498817
38 1 0.324538 0.689274 0.49914
28 1 0.443415 0.765523 0.501006
34 1 0.563543 0.73891 0.503638
17 1 0.779951 0.70984 0.500677
43 1 0.0998509 0.846488 0.504064
54 1 0.326625 0.800095 0.492572
58 1 0.274304 0.863885 0.495981
26 1 0.413246 0.881236 0.496388
30 1 0.538921 0.864161 0.497161
5 1 0.671563 0.82356 0.499322
12 1 0.994696 0.901315 0.496839
70 1 0.165229 0.880761 0.493596
62 1 0.121513 0.917766 0.50116
18 1 0.21855 0.986629 0.501731
80 1 0.322863 0.934296 0.497994
50 1 0.434811 0.976266 0.50536
60 1 0.524139 0.975262 0.499245
1 1 0.638917 0.973511 0.494559
ITEM: TIMESTEP
3000
ITEM: NUMBER OF ATOMS
57
ITEM: BOX BOUNDS pp pp pp
-4.8106518667516980e+00 4.8106518667516980e+00
-4.8458737230580589e+00 4.8458737230580589e+00
-1.0000000000000001e-01 1.0000000000000001e-01
ITEM: ATOMS id type xs ys zs
4 1 0.0687569 0.0328078 0.504785
39 1 0.341726 0.0352617 0.502682
21 1 0.471945 0.0744118 0.498438
3 1 0.606803 0.13204 0.503834
20 1 0.914588 0.0446232 0.502817
65 1 0.0095759 0.113042 0.497528
37 1 0.0775015 0.176944 0.50054
33 1 0.177011 0.110416 0.497755
53 1 0.288361 0.124697 0.500106
45 1 0.379982 0.148216 0.498321
31 1 0.484817 0.198157 0.501489
52 1 0.926778 0.175397 0.504941
6 1 0.0830589 0.29864 0.500301
40 1 0.195562 0.227863 0.501981
19 1 0.431766 0.318929 0.50117
48 1 0.557663 0.301974 0.496573
22 1 0.667438 0.255312 0.501238
9 1 0.810801 0.240817 0.509315
61 1 0.917382 0.255626 0.504412
42 1 0.96173 0.320155 0.50482
13 1 0.538691 0.43173 0.507355
46 1 0.731968 0.341503 0.496393
16 1 0.85534 0.378007 0.501436
7 1 0.393655 0.477822 0.502831
44 1 0.497446 0.562592 0.494433
64 1 0.578461 0.541624 0.4938
15 1 0.687599 0.456081 0.507634
29 1 0.823018 0.508478 0.496402
27 1 0.933975 0.496416 0.500078
8 1 0.0335393 0.605439 0.496824
78 1 0.115175 0.687761 0.499811
41 1 0.405398 0.619103 0.498975
68 1 0.418668 0.692784 0.499686
47 1 0.500004 0.648984 0.496337
2 1 0.648304 0.623281 0.504099
32 1 0.892837 0.614431 0.506904
66 1 0.798204 0.600387 0.503303
35 1 0.0563604 0.745863 0.494269
11 1 0.199634 0.756761 0.498906
38 1 0.324833 0.689946 0.497956
28 1 0.443182 0.765927 0.501202
34 1 0.56252 0.738354 0.503706
17 1 0.779627 0.709776 0.499613
43 1 0.0998723 0.846591 0.503049
54 1 0.325884 0.799963 0.493684
58 1 0.274012 0.863938 0.497238
26 1 0.411894 0.881074 0.496295
30 1 0.537773 0.863394 0.495694
5 1 0.671026 0.8228 0.497774
12 1 0.994409 0.901953 0.497289
70 1 0.165879 0.880758 0.494292
62 1 0.121881 0.917717 0.499296
18 1 0.217868 0.987488 0.501842
80 1 0.32239 0.934213 0.499459
50 1 0.433656 0.976709 0.505932
60 1 0.522919 0.974869 0.499174
1 1 0.637774 0.972698 0.493337
ITEM: TIMESTEP
3250
ITEM: NUMBER OF ATOMS
57
ITEM: BOX BOUNDS pp pp pp
-4.8094457555129786e+00 4.8094457555129786e+00
-4.8496805821117466e+00 4.8496805821117466e+00
-1.0000000000000001e-01 1.0000000000000001e-01
ITEM: ATOMS id type xs ys zs
4 1 0.068305 0.0337322 0.505349
39 1 0.341167 0.0349993 0.504603
21 1 0.472057 0.0743864 0.496666
3 1 0.606695 0.132906 0.504096
20 1 0.914344 0.0456686 0.500978
65 1 0.00946258 0.114438 0.49814
37 1 0.0779359 0.177734 0.501005
33 1 0.177224 0.110561 0.497694
53 1 0.288254 0.125915 0.50167
45 1 0.38067 0.148246 0.497736
31 1 0.485021 0.198162 0.501942
52 1 0.926026 0.175645 0.506282
6 1 0.0835693 0.299716 0.499164
40 1 0.195341 0.227527 0.501503
19 1 0.432229 0.318364 0.500528
48 1 0.557939 0.302189 0.496117
22 1 0.66718 0.2562 0.503091
9 1 0.809971 0.241729 0.510913
61 1 0.917008 0.25576 0.504411
42 1 0.961354 0.320167 0.506714
13 1 0.538685 0.431677 0.504741
46 1 0.730569 0.342538 0.496664
16 1 0.854707 0.378444 0.499
7 1 0.393745 0.476682 0.503306
44 1 0.496367 0.563347 0.494006
64 1 0.577149 0.542102 0.494117
15 1 0.68729 0.457208 0.506468
29 1 0.822821 0.508724 0.497022
27 1 0.933193 0.496522 0.50016
8 1 0.0334538 0.604943 0.497283
78 1 0.114098 0.687596 0.499543
41 1 0.405575 0.618965 0.499579
68 1 0.419319 0.69218 0.500038
47 1 0.499424 0.649513 0.496654
2 1 0.64704 0.623949 0.503436
32 1 0.893218 0.614785 0.507796
66 1 0.798694 0.600852 0.504728
35 1 0.0558038 0.745444 0.495484
11 1 0.198975 0.755982 0.499472
38 1 0.325428 0.690188 0.497548
28 1 0.441796 0.766192 0.501759
34 1 0.56156 0.739696 0.502347
17 1 0.779268 0.709925 0.500266
43 1 0.099256 0.846699 0.503804
54 1 0.325731 0.800958 0.491963
58 1 0.273037 0.863308 0.498536
26 1 0.412561 0.881701 0.494977
30 1 0.538041 0.863754 0.49634
5 1 0.671088 0.823478 0.499907
12 1 0.99456 0.902743 0.496928
70 1 0.165363 0.880718 0.492522
62 1 0.12184 0.918279 0.501173
18 1 0.217497 0.987161 0.502356
80 1 0.321949 0.934296 0.499393
50 1 0.433641 0.977281 0.504282
60 1 0.522137 0.974559 0.498781
1 1 0.63691 0.97343 0.493258
ITEM: TIMESTEP
3500
ITEM: NUMBER OF ATOMS
57
ITEM: BOX BOUNDS pp pp pp
-4.8082396442742592e+00 4.8082396442742592e+00
-4.8522905250527328e+00 4.8522905250527328e+00
-1.0000000000000001e-01 1.0000000000000001e-01
ITEM: ATOMS id type xs ys zs
4 1 0.0686659 0.0331798 0.506704
39 1 0.340879 0.0343461 0.50504
21 1 0.472578 0.0742252 0.497122
3 1 0.606638 0.133838 0.506277
20 1 0.915022 0.0448414 0.501188
65 1 0.00962067 0.113867 0.496896
37 1 0.0782124 0.177246 0.499909
33 1 0.177257 0.110472 0.496392
53 1 0.288282 0.124831 0.501009
45 1 0.380633 0.148103 0.496163
31 1 0.484612 0.198365 0.501788
52 1 0.925765 0.174203 0.505623
6 1 0.0837107 0.29944 0.498546
40 1 0.195662 0.227104 0.500559
19 1 0.431282 0.319185 0.50126
48 1 0.556957 0.300985 0.495005
22 1 0.667774 0.25664 0.502952
9 1 0.811103 0.242063 0.510931
61 1 0.918603 0.25475 0.504874
42 1 0.962074 0.320225 0.505411
13 1 0.538567 0.431467 0.504185
46 1 0.731884 0.342408 0.495353
16 1 0.855948 0.378587 0.500416
7 1 0.392962 0.476941 0.504133
44 1 0.495614 0.563148 0.496398
64 1 0.576815 0.542382 0.49511
15 1 0.688503 0.457155 0.504405
29 1 0.823179 0.508788 0.497225
27 1 0.934151 0.49645 0.501247
8 1 0.0346768 0.604817 0.498768
78 1 0.114535 0.688023 0.500186
41 1 0.405982 0.61838 0.499298
68 1 0.420033 0.691741 0.498537
47 1 0.49981 0.649251 0.4957
2 1 0.646977 0.62428 0.50503
32 1 0.894032 0.614352 0.505451
66 1 0.799992 0.600519 0.505687
35 1 0.0558821 0.745417 0.496607
11 1 0.199769 0.755753 0.499303
38 1 0.326244 0.690666 0.497289
28 1 0.441275 0.765583 0.502728
34 1 0.5613 0.73905 0.501367
17 1 0.778863 0.70903 0.500155
43 1 0.0997003 0.846046 0.504611
54 1 0.32622 0.801327 0.492703
58 1 0.272828 0.863952 0.49828
26 1 0.412799 0.881926 0.495245
30 1 0.538094 0.86302 0.495962
5 1 0.670221 0.823009 0.498849
12 1 0.994822 0.901798 0.495426
70 1 0.165166 0.880322 0.49146
62 1 0.121381 0.917552 0.501819
18 1 0.217461 0.986169 0.50252
80 1 0.322247 0.934057 0.498525
50 1 0.433966 0.977199 0.505572
60 1 0.522873 0.974337 0.498379
1 1 0.637031 0.972708 0.492774
ITEM: TIMESTEP
3750
ITEM: NUMBER OF ATOMS
57
ITEM: BOX BOUNDS pp pp pp
-4.8070335330355398e+00 4.8070335330355398e+00
-4.8485429545610721e+00 4.8485429545610721e+00
-1.0000000000000001e-01 1.0000000000000001e-01
ITEM: ATOMS id type xs ys zs
4 1 0.0683937 0.0325627 0.508012
39 1 0.341359 0.0347362 0.504985
21 1 0.471829 0.0743545 0.498893
3 1 0.606023 0.134497 0.508056
20 1 0.914413 0.0450229 0.500977
65 1 0.0091948 0.113787 0.496605
37 1 0.0775326 0.17738 0.499886
33 1 0.176337 0.110721 0.497669
53 1 0.287817 0.125018 0.502422
45 1 0.380036 0.148354 0.49532
31 1 0.48424 0.198017 0.502748
52 1 0.927068 0.174645 0.506227
6 1 0.0844835 0.299821 0.498511
40 1 0.195955 0.227152 0.499471
19 1 0.431339 0.317936 0.501432
48 1 0.556614 0.300156 0.495787
22 1 0.66802 0.256137 0.501366
9 1 0.811134 0.241696 0.510142
61 1 0.918158 0.254939 0.502141
42 1 0.962679 0.319776 0.507287
13 1 0.539942 0.430569 0.504243
46 1 0.73181 0.342333 0.497314
16 1 0.85644 0.378211 0.498779
7 1 0.392991 0.475623 0.503711
44 1 0.495382 0.562447 0.496446
64 1 0.576572 0.542072 0.496218
15 1 0.689104 0.457035 0.505499
29 1 0.824128 0.508805 0.497261
27 1 0.934728 0.496609 0.499853
8 1 0.0340478 0.605465 0.501174
78 1 0.115047 0.688129 0.502897
41 1 0.405448 0.618801 0.498949
68 1 0.420345 0.692041 0.499412
47 1 0.500046 0.649009 0.494293