LAMMPS (23 Jun 2022 - Update 4)
  using 1 OpenMP thread(s) per MPI task
# Compute elastic constant tensor for a crystal
#
# Written by Aidan Thompson (Sandia, athomps@sandia.gov)
#
#  This script uses the following three include files.
#
#   init.mod      (must be modified for different crystal structures)
# 	       	  Define units, deformation parameters and initial
#		  configuration of the atoms and simulation cell.
#
#
#   potential.mod    (must be modified for different pair styles)
# 		     Define pair style and other attributes
#		     not stored in restart file
#
#
#   displace.mod    (displace.mod should not need to be modified)
# 		    Perform positive and negative box displacements
# 		    in direction ${dir} and size ${up}.
# 		    It uses the resultant changes
#		    in stress to compute one
# 		    row of the elastic stiffness tensor
#
#		    Inputs variables:
#		    	   dir = the Voigt deformation component
#		    		    (1,2,3,4,5,6)
#		    Global constants:
#       	    	   up = the deformation magnitude (strain units)
#       		   cfac = conversion from LAMMPS pressure units to
#               	   output units for elastic constants
#
#
#  To run this on a different system, it should only be necessary to
#  modify the files init.mod and potential.mod. In order to calculate
#  the elastic constants correctly, care must be taken to specify
#  the correct units in init.mod (units, cfac and cunits). It is also
#  important to verify that the minimization of energy w.r.t atom
#  positions in the deformed cell is fully converged.
#  One indication of this is that the elastic constants are insensitive
#  to the choice of the variable ${up} in init.mod. Another is to check
#  the final max and two-norm forces reported in the log file. If you know
#  that minimization is not required, you can set maxiter = 0.0 in
#  init.mod.
#



variable dt equal 0.01
variable strain equal 0.05
variable srate equal 1e-4
variable M equal 1000 # averaging time for properties
variable strainsteps equal ${strain}/${dt}/${srate}
variable strainsteps equal 0.05/${dt}/${srate}
variable strainsteps equal 0.05/0.01/${srate}
variable strainsteps equal 0.05/0.01/0.0001


dimension 2
include init.mod
# NOTE: This script can be modified for different atomic structures,
# units, etc. See in.elastic for more info.
#

# Define the finite deformation size. Try several values of this
# variable to verify that results do not depend on it.
variable up equal 1.0e-1

# Define the amount of random jiggle for atoms
# This prevents atoms from staying on saddle points
variable atomjiggle equal 1.0e-6

# Uncomment one of these blocks, depending on what units
# you are using in LAMMPS and for output

# metal units, elastic constants in eV/A^3
#units		metal
#variable cfac equal 6.2414e-7
#variable cunits string eV/A^3

# Choose potential
# metal units, elastic constants in GPa
units		metal
atom_style	full
#pair_style      lj/cut 1.0
#pair_style      yukawa 1.0 2.0
#pair_modify     mix arithmetic
bond_style      harmonic
angle_style     harmonic
dihedral_style  zero
special_bonds   amber
variable cfac equal 1.0e-4
variable cunits string GPa
boundary	p p p

# Need to set mass to something, just to satisfy LAMMPS
#mass 1 1.0e-20
read_data network.lmp
Reading data file ...
  orthogonal box = (-4.824445 -4.824445 -0.1) to (4.824445 4.824445 0.1)
  1 by 1 by 1 MPI processor grid
WARNING: Atom style in data file differs from currently defined atom style (src/read_data.cpp:538)
  reading atoms ...
  57 atoms
WARNING: Bond style in data file differs from currently defined bond style (src/read_data.cpp:630)
  scanning bonds ...
  6 = max bonds/atom
  reading bonds ...
  119 bonds
Finding 1-2 1-3 1-4 neighbors ...
  special bond factors lj:    0        0        0.5     
  special bond factors coul:  0        0        0.8333333333333334
     9 = max # of 1-2 neighbors
    44 = max # of 1-3 neighbors
   241 = max # of 1-4 neighbors
    26 = max # of special neighbors
  special bonds CPU = 0.000 seconds
  read_data CPU = 0.003 seconds

# real units, elastic constants in GPa
#units		real
#variable cfac equal 1.01325e-4
#variable cunits string GPa

# Define minimization parameters
variable etol equal 0.0
variable ftol equal 5.0e-10
variable maxiter equal 100000
variable maxeval equal 20000
variable dmax equal 1.0e-2


include potential.mod
# NOTE: This script can be modified for different pair styles
# See in.elastic for more info.

# Setup neighbor style
neighbor 3.0 nsq
neigh_modify once no every 1 delay 0 check yes
comm_modify cutoff 2.0

# Setup minimization style
min_style	     cg
min_modify	     dmax ${dmax} line quadratic
min_modify	     dmax 0.01 line quadratic

timestep	0.001


# Setup output
thermo		500
thermo_style custom step temp pe ebond eangle edihed press pxx pyy pzz pxy pxz pyz lx ly lz vol
thermo_modify norm no


#change_box all triclinic
comm_modify mode single cutoff 10.0 vel yes
atom_modify sort 0 0



# Compute initial state

#dump rela all atom 1 traj_relax.lmpstrj
fix 3 all box/relax x 0 y 0 # xy 0  #MS comment: relax if the network is periodic
minimize ${etol} ${ftol} ${maxiter} ${maxeval}
minimize 0 ${ftol} ${maxiter} ${maxeval}
minimize 0 5e-10 ${maxiter} ${maxeval}
minimize 0 5e-10 100000 ${maxeval}
minimize 0 5e-10 100000 20000
Neighbor list info ...
  update every 1 steps, delay 0 steps, check yes
  max neighbors/atom: 2000, page size: 100000
  master list distance cutoff = 0
  ghost atom cutoff = 10
  0 neighbor lists, perpetual/occasional/extra = 0 0 0
WARNING: Inconsistent image flags (src/domain.cpp:819)
Per MPI rank memory allocation (min/avg/max) = 8.714 | 8.714 | 8.714 Mbytes
   Step          Temp          PotEng         E_bond        E_angle        E_dihed         Press           Pxx            Pyy            Pzz            Pxy            Pxz            Pyz             Lx             Ly             Lz           Volume    
         0   0              2.7964639e-11  2.7964639e-11  0              0             -0.14669906    -0.13923988    -0.15415824     0              0.0018472445   0              0              9.64889        9.64889        0.2            93.101078    
       141   0              1.3954447e-19  1.3954447e-19  0              0             -2.4081065e-07  2.9950939e-06 -3.4767152e-06  0             -3.4653116e-06  0              0              9.6488899      9.6488887      0.2            93.101065    
Loop time of 0.00683722 on 1 procs for 141 steps with 57 atoms

100.0% CPU use with 1 MPI tasks x 1 OpenMP threads

Minimization stats:
  Stopping criterion = force tolerance
  Energy initial, next-to-last, final = 
    2.79646393460537e-11 1.43875202900301e-19 1.39544465147137e-19
  Force two-norm initial, final = 2.2858704e-05 4.3741857e-10
  Force max component initial, final = 8.9580006e-06 2.0202888e-10
  Final line search alpha, max atom move = 1 2.0202888e-10
  Iterations, force evaluations = 141 282

MPI task timing breakdown:
Section |  min time  |  avg time  |  max time  |%varavg| %total
---------------------------------------------------------------
Pair    | 0          | 0          | 0          |   0.0 |  0.00
Bond    | 0.0009184  | 0.0009184  | 0.0009184  |   0.0 | 13.43
Neigh   | 0          | 0          | 0          |   0.0 |  0.00
Comm    | 0.0021186  | 0.0021186  | 0.0021186  |   0.0 | 30.99
Output  | 0          | 0          | 0          |   0.0 |  0.00
Modify  | 0          | 0          | 0          |   0.0 |  0.00
Other   |            | 0.0038     |            |       | 55.58

Nlocal:             57 ave          57 max          57 min
Histogram: 1 0 0 0 0 0 0 0 0 0
Nghost:            480 ave         480 max         480 min
Histogram: 1 0 0 0 0 0 0 0 0 0
Neighs:              0 ave           0 max           0 min
Histogram: 1 0 0 0 0 0 0 0 0 0

Total # of neighbors = 0
Ave neighs/atom = 0
Ave special neighs/atom = 20.350877
Neighbor list builds = 0
Dangerous builds = 0
#dump rela all atom 1 traj_relax.lmpstrj
thermo 100
unfix 3

fix 2d all enforce2d



#dump dump0 all xyz 1000000 cfg0.xyz
#dump_modify dump0 format line "%d %20.10g %20.10g %20.10g"
#minimize ${etol} ${ftol} ${maxiter} ${maxeval}

#undump rela

#write_restart restart.equil

# These formulas define the derivatives w.r.t. strain components
# Constants uses $, variables use v_


timestep        ${dt}
timestep        0.01
variable nsteps equal round(${strainsteps})
variable nsteps equal round(50000)

fix             4 all nve
fix             5 all langevin 0.1 0.1 1 904297
#fix		6 all press/berendsen y  0.0 0.0 1 x 0.0 0.0 10
fix             6 all nph y 0.0 0.0 10 ptemp 0.1 # x 0.0 0.0 10

# For PLUMED2
# fix 22 all plumed plumedfile plumed.dat outfile plumed.out

#fix             6 all nph x 0.0 0.0 10
fix     	9 all deform 1 x erate -${srate} units box remap x
fix     	9 all deform 1 x erate -0.0001 units box remap x

#fix     8 all deform 1 xy erate ${srate} units box remap x



#fix    10 all ave/time

dump 1 all atom 250 deform_dump.lammpstrj


#To avoid flying ice cube phenomenon:
#fix 21 all momentum 100 linear 1 1 1 angular


run  ${nsteps}
run  50000
WARNING: One or more atoms are time integrated more than once (src/modify.cpp:292)
WARNING: Inconsistent image flags (src/domain.cpp:819)
Per MPI rank memory allocation (min/avg/max) = 7.589 | 7.589 | 7.589 Mbytes
   Step          Temp          PotEng         E_bond        E_angle        E_dihed         Press           Pxx            Pyy            Pzz            Pxy            Pxz            Pyz             Lx             Ly             Lz           Volume    
       141   0              1.3954447e-19  1.3954447e-19  0              0             -2.4081065e-07  2.9950939e-06 -3.4767152e-06  0             -3.4653116e-06  0              0              9.6488899      9.6488887      0.2            93.101065    
       200   0.15872446     0.00041135519  0.00041135519  0              0              396.56171      754.57131      38.374776      0             -70.664916      0              0              9.6483206      9.6486511      0.2            93.09328     
       300   0.20143423     0.00074113863  0.00074113863  0              0             -34.981911     -42.929203     -27.181975      0             -535.87648      0              0              9.6473557      9.6439197      0.2            93.038324    
       400   0.18694827     0.00088038062  0.00088038062  0              0              191.06948      268.83868      113.13703      0              575.25334      0              0              9.6463908      9.6428252      0.2            93.018461    
       500   0.18179056     0.00067489142  0.00067489142  0              0              335.67841      682.59619     -11.403548      0              208.89938      0              0              9.645426       9.6476921      0.2            93.0561      
       600   0.20645862     0.00073352215  0.00073352215  0              0             -203.69849     -228.78371     -178.79013      0             -126.52651      0              0              9.6444611      9.6367588      0.2            92.941345    
       700   0.17098232     0.00063039535  0.00063039535  0              0              188.76004      282.84653      94.494938      0              60.474057      0              0              9.6434962      9.651225       0.2            93.071552    
       800   0.18874446     0.0008289304   0.0008289304   0              0             -292.53872     -776.94496      191.70809      0              288.0414       0              0              9.6425313      9.6515318      0.2            93.065197    
       900   0.20974214     0.00078688019  0.00078688019  0              0             -672.35668     -1249.4924     -95.350454      0              393.01055      0              0              9.6415664      9.6508321      0.2            93.049139    
      1000   0.22174344     0.00070723843  0.00070723843  0              0             -484.54151     -784.46606     -184.77825      0             -61.497612      0              0              9.6406015      9.6522807      0.2            93.053792    
      1100   0.17478071     0.00079699249  0.00079699249  0              0             -211.86727     -563.87914      140.00314      0              197.08524      0              0              9.6396366      9.6555837      0.2            93.076318    
      1200   0.2071924      0.00070105092  0.00070105092  0              0              270.02555      311.88884      227.98941      0              448.62827      0              0              9.6386717      9.656913       0.2            93.079814    
      1300   0.16380917     0.00056337318  0.00056337318  0              0              44.419505      300.63307     -211.95309      0              231.80167      0              0              9.6377068      9.654558       0.2            93.0478      
      1400   0.19949411     0.000792598    0.000792598    0              0             -185.89733     -173.55764     -198.41573      0             -89.359311      0              0              9.636742       9.6505257      0.2            92.999626    
      1500   0.20419059     0.001069697    0.001069697    0              0              210.23675      328.08351      92.215168      0             -116.98973      0              0              9.6357771      9.6461092      0.2            92.947757    
      1600   0.19896764     0.0010095771   0.0010095771   0              0              280.04832      203.01789      356.92428      0             -356.38459      0              0              9.6348122      9.6513186      0.2            92.988642    
      1700   0.22019376     0.00081138019  0.00081138019  0              0             -184.19246     -339.46389     -29.113059      0             -187.37262      0              0              9.6338473      9.6621922      0.2            93.084084    
      1800   0.20739625     0.00099644472  0.00099644472  0              0             -230.5746       31.286254     -492.61541      0              86.501663      0              0              9.6328824      9.671053       0.2            93.160117    
      1900   0.16220699     0.0010848067   0.0010848067   0              0              127.09322      177.60617      76.431021      0              91.581674      0              0              9.6319175      9.6652847      0.2            93.095225    
      2000   0.19507489     0.00091820177  0.00091820177  0              0              887.41516      996.41053      778.2342       0              529.21394      0              0              9.6309526      9.6671339      0.2            93.103708    
      2100   0.22182962     0.00094912481  0.00094912481  0              0              132.61303      241.13607      23.939496      0              411.01543      0              0              9.6299877      9.6720345      0.2            93.141574    
      2200   0.18733775     0.0008900208   0.0008900208   0              0             -204.08548      420.12892     -828.48369      0             -562.30403      0              0              9.6290228      9.6910581      0.2            93.31542     
      2300   0.24853869     0.00088296828  0.00088296828  0              0             -305.15373     -498.24781     -112.20136      0              179.99268      0              0              9.628058       9.6910383      0.2            93.305878    
      2400   0.23563536     0.00087545687  0.00087545687  0              0              142.05335     -486.80091      770.73266      0              2.6713037      0              0              9.6270931      9.6811335      0.2            93.201174    
      2500   0.24115489     0.00083637118  0.00083637118  0              0              143.96758      36.85663       250.89177      0             -69.079491      0              0              9.6261282      9.688658       0.2            93.264264    
      2600   0.22918158     0.00098792165  0.00098792165  0              0             -647.5531      -472.56369     -822.70159      0              47.386754      0              0              9.6251633      9.6997433      0.2            93.361613    
      2700   0.27742921     0.001016458    0.001016458    0              0             -61.199286      171.23336     -293.79153      0             -240.71226      0              0              9.6241984      9.6957223      0.2            93.313555    
      2800   0.18660171     0.0010002569   0.0010002569   0              0              202.27668     -466.61959      871.00132      0              514.78688      0              0              9.6232335      9.6806321      0.2            93.158983    
      2900   0.20948652     0.00072133664  0.00072133664  0              0              146.4615       61.899941      230.88274      0              313.13167      0              0              9.6222686      9.6849863      0.2            93.19154     
      3000   0.21755918     0.0010130499   0.0010130499   0              0             -356.90192      73.448752     -787.41863      0             -252.63123      0              0              9.6213037      9.6917474      0.2            93.247246    
      3100   0.24969727     0.00090279216  0.00090279216  0              0              246.77908      741.51827     -248.11072      0              100.4096       0              0              9.6203388      9.6888958      0.2            93.210461    
      3200   0.19891534     0.0008598064   0.0008598064   0              0              450.70176      338.44223      562.78772      0             -112.74961      0              0              9.619374       9.6839813      0.2            93.153837    
      3300   0.1805385      0.00081394668  0.00081394668  0              0              671.84282      1107.7977      235.68798      0              176.20682      0              0              9.6184091      9.6976593      0.2            93.276054    
      3400   0.16040348     0.00098399941  0.00098399941  0              0             -637.99171     -741.2519      -534.89388      0             -165.52794      0              0              9.6174442      9.7031872      0.2            93.319862    
      3500   0.17824327     0.00079972905  0.00079972905  0              0              409.25792      1106.1372     -287.80111      0              363.7555       0              0              9.6164793      9.7045811      0.2            93.323903    
      3600   0.22446138     0.00090012566  0.00090012566  0              0              160.18592     -218.06721      538.27635      0              255.77332      0              0              9.6155144      9.6931072      0.2            93.204212    
      3700   0.19685921     0.00086728278  0.00086728278  0              0              244.1727       37.708148      450.43576      0              93.575303      0              0              9.6145495      9.6919435      0.2            93.183671    
      3800   0.16459619     0.00090990698  0.00090990698  0              0             -472.8202      -590.75678     -355.06807      0             -131.27128      0              0              9.6135846      9.7027437      0.2            93.278148    
      3900   0.18755043     0.0007322179   0.0007322179   0              0              70.263491      657.61205     -517.27363      0             -525.08605      0              0              9.6126197      9.6951967      0.2            93.196239    
      4000   0.18877505     0.0010366735   0.0010366735   0              0              613.18711      995.31663      230.89176      0              349.53151      0              0              9.6116548      9.6949525      0.2            93.184537    
      4100   0.22324802     0.00094684323  0.00094684323  0              0              703.8034       964.1555       443.29283      0              1038.8222      0              0              9.61069        9.6836255      0.2            93.066322    
      4200   0.21681663     0.00097983851  0.00097983851  0              0              628.25716      1330.1822     -73.853865      0              96.813831      0              0              9.6097251      9.684936       0.2            93.069573    
      4300   0.23019568     0.00099050766  0.00099050766  0              0              228.03364      748.27589     -292.35654      0             -701.41401      0              0              9.6087602      9.6806184      0.2            93.018741    
      4400   0.21076152     0.00093374918  0.00093374918  0              0              744.88467      1531.8201     -42.228419      0              18.260819      0              0              9.6077953      9.6918445      0.2            93.117258    
      4500   0.2162578      0.00098577464  0.00098577464  0              0              733.14718      1182.8735      283.20158      0             -908.40967      0              0              9.6068304      9.6964964      0.2            93.152596    
      4600   0.16103772     0.00094271399  0.00094271399  0              0              621.95496      1021.8741      221.87802      0             -185.93677      0              0              9.6058655      9.6968927      0.2            93.147047    
      4700   0.21206945     0.00083973225  0.00083973225  0              0             -249.37        -229.91561     -268.98963      0             -211.47363      0              0              9.6049006      9.6841615      0.2            93.015409    
      4800   0.16470838     0.0010413134   0.0010413134   0              0             -141.94896     -30.383793     -253.7026       0              65.749672      0              0              9.6039357      9.6880457      0.2            93.043368    
      4900   0.24248398     0.0011096766   0.0011096766   0              0              1027.2765      1819.7127      234.66823      0             -404.07257      0              0              9.6029708      9.6803895      0.2            92.960498    
      5000   0.21636823     0.00087408948  0.00087408948  0              0              217.17251      96.684333      337.47762      0             -5.6579484      0              0              9.602006       9.6841873      0.2            92.987624    
      5100   0.21173407     0.0010271132   0.0010271132   0              0              276.26961      680.65012     -128.29513      0             -87.29145       0              0              9.6010411      9.688348       0.2            93.018227    
      5200   0.16018752     0.00091767075  0.00091767075  0              0             -173.28707      190.65239     -537.44348      0             -271.36353      0              0              9.6000762      9.6911573      0.2            93.035848    
      5300   0.23877181     0.00081125107  0.00081125107  0              0              178.26377      297.97113      58.415981      0             -150.01876      0              0              9.5991113      9.6774377      0.2            92.894802    
      5400   0.19229605     0.00082186056  0.00082186056  0              0             -101.3839      -694.81814      491.85651      0              296.49803      0              0              9.5981464      9.684693       0.2            92.955101    
      5500   0.22479488     0.0010535284   0.0010535284   0              0              97.917476      102.92571      92.760025      0              365.95861      0              0              9.5971815      9.675499       0.2            92.857521    
      5600   0.23494619     0.00087875916  0.00087875916  0              0             -494.29232     -515.12723     -473.62485      0             -371.80899      0              0              9.5962166      9.6796489      0.2            92.888008    
      5700   0.20363563     0.0010210379   0.0010210379   0              0             -153.31041     -123.51961     -183.2818       0             -217.54456      0              0              9.5952517      9.6880303      0.2            92.95909     
      5800   0.19103517     0.00095498345  0.00095498345  0              0              130.68954     -255.49345      516.7189       0              191.29813      0              0              9.5942868      9.6744499      0.2            92.819448    
      5900   0.17409501     0.0010137461   0.0010137461   0              0             -316.85346     -876.17976      242.32238      0              59.390917      0              0              9.593322       9.6794407      0.2            92.857991    
      6000   0.17613061     0.0011372816   0.0011372816   0              0             -285.22301      5.1489821     -575.76615      0              170.67538      0              0              9.5923571      9.6793818      0.2            92.848087    
      6100   0.2298221      0.00095414336  0.00095414336  0              0             -502.56904     -640.98801     -364.28841      0             -33.081987      0              0              9.5913922      9.687079       0.2            92.912573    
      6200   0.20951184     0.00071548198  0.00071548198  0              0              93.947588     -388.5277       576.25658      0              315.24858      0              0              9.5904273      9.6795134      0.2            92.830669    
      6300   0.19434566     0.00089959113  0.00089959113  0              0              103.87083     -175.89078      383.48001      0              494.62903      0              0              9.5894624      9.6797024      0.2            92.823142    
      6400   0.19049145     0.00082850843  0.00082850843  0              0             -669.4506      -700.20625     -638.82567      0             -339.03058      0              0              9.5884975      9.6882258      0.2            92.895529    
      6500   0.20366598     0.00091142562  0.00091142562  0              0             -355.72735     -195.84105     -515.77203      0              624.63044      0              0              9.5875326      9.6803734      0.2            92.810896    
      6600   0.14717717     0.00087162481  0.00087162481  0              0              871.08048      1248.0771      493.90413      0              172.19629      0              0              9.5865677      9.6780697      0.2            92.77947     
      6700   0.15777627     0.00089955241  0.00089955241  0              0              603.57361      535.66166      671.29005      0              189.69908      0              0              9.5856028      9.6758589      0.2            92.74894     
      6800   0.17486819     0.00080320132  0.00080320132  0              0             -334.60376     -132.27237     -537.11799      0              375.84233      0              0              9.584638       9.6932557      0.2            92.906347    
      6900   0.14004845     0.00093986776  0.00093986776  0              0             -475.48977     -108.19566     -842.96234      0             -326.63556      0              0              9.5836731      9.7007491      0.2            92.968808    
      7000   0.20437373     0.00074032347  0.00074032347  0              0              192.66997     -53.428508      438.58658      0              612.02714      0              0              9.5827082      9.6907789      0.2            92.863906    
      7100   0.22990993     0.0010474925   0.0010474925   0              0              959.37676      959.99349      958.60301      0              73.695211      0              0              9.5817433      9.6849646      0.2            92.798844    
      7200   0.23020566     0.00093717752  0.00093717752  0              0             -473.65706     -578.62124     -368.88931      0              895.66789      0              0              9.5807784      9.6994565      0.2            92.928344    
      7300   0.24631986     0.00075827898  0.00075827898  0              0             -639.74085     -407.47644     -872.16061      0             -13.99179       0              0              9.5798135      9.7160985      0.2            93.078411    
      7400   0.20745944     0.00086553225  0.00086553225  0              0              276.44476      430.11909      122.5868       0              380.21932      0              0              9.5788486      9.7174616      0.2            93.082093    
      7500   0.22288351     0.00093636551  0.00093636551  0              0              446.59187     -76.103586      969.09333      0              755.57387      0              0              9.5778837      9.706958       0.2            92.972115    
      7600   0.2233581      0.00088580611  0.00088580611  0              0              436.58699      865.85287      7.141942       0              597.13414      0              0              9.5769188      9.70738        0.2            92.966791    
      7700   0.22537572     0.00086067048  0.00086067048  0              0             -423.04361      31.089682     -877.39917      0              237.91125      0              0              9.575954       9.7038596      0.2            92.923712    
      7800   0.19150738     0.00087007853  0.00087007853  0              0             -292.75995     -404.11818     -181.57203      0              338.19236      0              0              9.5749891      9.7040594      0.2            92.916262    
      7900   0.21579455     0.00088031324  0.00088031324  0              0              1035.5356      1198.6467      872.26319      0             -32.274479      0              0              9.5740242      9.6883848      0.2            92.75683     
      8000   0.18209648     0.00082462282  0.00082462282  0              0              474.01367      748.03498      199.81573      0              470.65875      0              0              9.5730593      9.6796911      0.2            92.664257    
      8100   0.21997316     0.00097321608  0.00097321608  0              0              195.75501      1175.0105     -783.68785      0              390.69839      0              0              9.5720944      9.6753751      0.2            92.613604    
      8200   0.20731417     0.00099119037  0.00099119037  0              0              283.94285      892.09902     -324.35691      0              665.10912      0              0              9.5711295      9.6812813      0.2            92.660797    
      8300   0.18868515     0.00089651612  0.00089651612  0              0              435.16926      214.64493      655.54087      0              426.24031      0              0              9.5701646      9.6697646      0.2            92.541239    
      8400   0.21053834     0.00099153331  0.00099153331  0              0              955.16353      1538.9327      371.24537      0             -173.87777      0              0              9.5691997      9.6654711      0.2            92.490824    
      8500   0.15317665     0.00081116369  0.00081116369  0              0              423.26067      1349.1155     -502.77331      0              164.11455      0              0              9.5682348      9.6766642      0.2            92.588596    
      8600   0.17734926     0.0008455776   0.0008455776   0              0              137.44911      678.03528     -403.29103      0              307.36346      0              0              9.56727        9.6808446      0.2            92.619254    
      8700   0.23076998     0.0010326828   0.0010326828   0              0              452.38451      425.51831      479.07468      0             -488.3948       0              0              9.5663051      9.6788233      0.2            92.590576    
      8800   0.22274831     0.0007416265   0.0007416265   0              0              87.040948     -294.61172      468.53827      0              605.43225      0              0              9.5653402      9.6869011      0.2            92.658504    
      8900   0.22344663     0.00085473542  0.00085473542  0              0             -240.81176     -122.89869     -358.88785      0              77.360563      0              0              9.5643753      9.6935002      0.2            92.712273    
      9000   0.17646105     0.0010123369   0.0010123369   0              0             -141.99633      261.23836     -545.39179      0              692.76273      0              0              9.5634104      9.6976328      0.2            92.742443    
      9100   0.18577751     0.0012099463   0.0012099463   0              0              1126.489       1995.2594      257.57832      0             -73.02244       0              0              9.5624455      9.6917577      0.2            92.676905    
      9200   0.18090114     0.00084599182  0.00084599182  0              0              756.54212      1041.641       471.26895      0              443.31963      0              0              9.5614806      9.6912094      0.2            92.662311    
      9300   0.20365539     0.00080467181  0.00080467181  0              0              596.45376      1343.2316     -150.50426      0              205.42495      0              0              9.5605157      9.693802       0.2            92.677746    
      9400   0.25462654     0.00094881596  0.00094881596  0              0             -156.99297      251.9448      -566.12128      0              210.12924      0              0              9.5595508      9.6927555      0.2            92.658389    
      9500   0.20871137     0.0010351519   0.0010351519   0              0              274.89081      370.03657      179.57592      0              181.75692      0              0              9.5585859      9.7016301      0.2            92.733865    
      9600   0.16595925     0.0008875841   0.0008875841   0              0              870.27053      1151.1687      589.1461       0             -281.90845      0              0              9.5576211      9.7092712      0.2            92.797535    
      9700   0.15028179     0.00088361716  0.00088361716  0              0              584.00378      1147.6196      20.226649      0             -501.85879      0              0              9.5566562      9.7058906      0.2            92.75586     
      9800   0.19484111     0.0007972233   0.0007972233   0              0              319.94886      1313.7991     -674.05977      0              138.33989      0              0              9.5556913      9.7205668      0.2            92.886735    
      9900   0.16674454     0.00072944776  0.00072944776  0              0              53.060004      353.97954     -248.04615      0              38.162167      0              0              9.5547264      9.7251827      0.2            92.92146     
     10000   0.20150146     0.00082633706  0.00082633706  0              0              534.04393      507.29697      560.60098      0              125.14942      0              0              9.5537615      9.7146067      0.2            92.811035    
     10100   0.21288685     0.00082144026  0.00082144026  0              0              1006.9811      1628.2096      385.56066      0              294.73261      0              0              9.5527966      9.7215515      0.2            92.868004    
     10200   0.26224246     0.00089668749  0.00089668749  0              0             -148.55337      132.98175     -430.2631       0              131.48544      0              0              9.5518317      9.729807       0.2            92.937479    
     10300   0.22446644     0.0011368577   0.0011368577   0              0             -333.14135     -278.77948     -387.69253      0              390.67011      0              0              9.5508668      9.7352848      0.2            92.980409    
     10400   0.20575029     0.0011319158   0.0011319158   0              0              642.059        959.7612       324.20687      0              188.36217      0              0              9.5499019      9.7418015      0.2            93.033249    
     10500   0.24802893     0.0010612474   0.0010612474   0              0              623.21511      685.86686      560.38948      0              463.66328      0              0              9.5489371      9.7420595      0.2            93.026313    
     10600   0.21113823     0.00101521     0.00101521     0              0              658.90696      1468.451      -150.78266      0             -300.55506      0              0              9.5479722      9.7416534      0.2            93.013036    
     10700   0.21944981     0.00083865623  0.00083865623  0              0              191.01229      805.38462     -423.52028      0              125.82911      0              0              9.5470073      9.7496994      0.2            93.080451    
     10800   0.18183959     0.00089820389  0.00089820389  0              0              327.8606       583.35592      72.222336      0             -177.46561      0              0              9.5460424      9.7298435      0.2            92.881498    
     10900   0.20727944     0.00087661524  0.00087661524  0              0              387.71969      334.35566      440.92767      0              264.0264       0              0              9.5450775      9.7240921      0.2            92.817213    
     11000   0.20789734     0.0008246909   0.0008246909   0              0              165.55148      317.23909      13.704736      0              306.84236      0              0              9.5441126      9.7239156      0.2            92.806145    
     11100   0.23888096     0.0011626803   0.0011626803   0              0             -106.79731      109.69427     -323.48236      0              402.01953      0              0              9.5431477      9.730004       0.2            92.854866    
     11200   0.21470936     0.00091362907  0.00091362907  0              0              431.24582      874.13685     -11.844687      0              103.61132      0              0              9.5421828      9.7179529      0.2            92.730484    
     11300   0.20089965     0.00091309638  0.00091309638  0              0              551.26124      902.00752      200.351        0              138.58783      0              0              9.5412179      9.7110206      0.2            92.654964    
     11400   0.16620461     0.0010756594   0.0010756594   0              0              655.61434      1230.1656      80.888921      0              683.50607      0              0              9.5402531      9.7130013      0.2            92.664491    
     11500   0.20471721     0.0010205046   0.0010205046   0              0              364.01429      926.38061     -198.49957      0              185.16735      0              0              9.5392882      9.7133412      0.2            92.658361    
     11600   0.19287301     0.0011877555   0.0011877555   0              0              656.89819      1324.5341     -10.935018      0              3.6142593      0              0              9.5383233      9.7148635      0.2            92.663509    
     11700   0.18121809     0.0009871016   0.0009871016   0              0             -136.25793     -457.64777      184.98701      0              69.126744      0              0              9.5373584      9.7041757      0.2            92.552202    
     11800   0.25691539     0.00086172761  0.00086172761  0              0              220.87646      428.43691      13.168779      0              158.7876       0              0              9.5363935      9.6919975      0.2            92.426702    
     11900   0.16293802     0.00080733972  0.00080733972  0              0              61.44886       371.16985     -248.43596      0              54.592487      0              0              9.5354286      9.688153       0.2            92.380691    
     12000   0.21714531     0.00095598502  0.00095598502  0              0              122.14855      312.52824     -68.42515       0              364.1564       0              0              9.5344637      9.6944979      0.2            92.431839    
     12100   0.17766733     0.00088440096  0.00088440096  0              0              162.37823     -9.8908444      334.47578      0              546.90862      0              0              9.5334988      9.6977024      0.2            92.453034    
     12200   0.18837476     0.00087060295  0.00087060295  0              0             -211.32367     -325.72471     -97.120514      0              174.3633       0              0              9.5325339      9.699812       0.2            92.463787    
     12300   0.23357516     0.0010823253   0.0010823253   0              0             -312.23773     -376.81072     -247.87571      0              196.36172      0              0              9.5315691      9.6929601      0.2            92.389118    
     12400   0.22346329     0.0010588728   0.0010588728   0              0              448.53914      698.13187      198.79665      0              165.01869      0              0              9.5306042      9.6903361      0.2            92.354757    
     12500   0.13447627     0.00076258943  0.00076258943  0              0              495.37575      761.91915      228.67856      0              808.90324      0              0              9.5296393      9.6993662      0.2            92.431461    
     12600   0.18088762     0.00078261692  0.00078261692  0              0              99.250225      454.76896     -256.42796      0              508.36671      0              0              9.5286744      9.6938305      0.2            92.369354    
     12700   0.15477208     0.001054056    0.001054056    0              0              314.28548      763.00535     -134.61059      0              399.47205      0              0              9.5277095      9.7047787      0.2            92.464312    
     12800   0.21857882     0.00095361433  0.00095361433  0              0              282.73203      550.79895      14.491622      0              517.60898      0              0              9.5267446      9.698465       0.2            92.394799    
     12900   0.18147659     0.0011843088   0.0011843088   0              0              106.47705     -59.924143      272.68757      0              429.71724      0              0              9.5257797      9.6879664      0.2            92.285434    
     13000   0.18023578     0.00084672736  0.00084672736  0              0              214.12589      225.33494      202.75677      0              409.66334      0              0              9.5248148      9.6886751      0.2            92.282836    
     13100   0.19359235     0.00082571505  0.00082571505  0              0             -511.00077     -768.03167     -254.12891      0              290.91539      0              0              9.5238499      9.6859801      0.2            92.247821    
     13200   0.15985425     0.00096751444  0.00096751444  0              0             -340.14353     -342.91485     -337.52186      0              604.34114      0              0              9.5228851      9.6779496      0.2            92.162002    
     13300   0.19346806     0.00083930011  0.00083930011  0              0              511.86948      725.15354      298.42164      0              191.29782      0              0              9.5219202      9.6743661      0.2            92.118541    
     13400   0.2590728      0.00078236728  0.00078236728  0              0              903.59103      1320.2171      486.76386      0              222.84623      0              0              9.5209553      9.6732397      0.2            92.098483    
     13500   0.23680096     0.0010191136   0.0010191136   0              0              153.41677      670.69989     -364.02509      0              537.12133      0              0              9.5199904      9.670263       0.2            92.060811    
     13600   0.16323411     0.00095340353  0.00095340353  0              0              295.02976      1074.5362     -484.69962      0             -50.476106      0              0              9.5190255      9.6810192      0.2            92.153869    
     13700   0.1698447      0.00067505766  0.00067505766  0              0              604.85396      900.58717      308.9081       0              280.18239      0              0              9.5180606      9.6700801      0.2            92.040409    
     13800   0.20714986     0.0009799895   0.0009799895   0              0              1152.7786      1764.0146      541.38176      0              669.47487      0              0              9.5170957      9.6659595      0.2            91.991862    
     13900   0.2193809      0.0011418397   0.0011418397   0              0              491.02394      1011.581      -29.694157      0              651.47649      0              0              9.5161308      9.6684517      0.2            92.006252    
     14000   0.21827811     0.00093805984  0.00093805984  0              0              431.56301      1218.0173     -355.0368       0              140.09359      0              0              9.5151659      9.6755932      0.2            92.064875    
     14100   0.29608831     0.00061604131  0.00061604131  0              0              117.70305      272.56589     -37.347508      0              379.77548      0              0              9.5142011      9.6798087      0.2            92.095646    
     14200   0.19478253     0.00096552565  0.00096552565  0              0              739.41311      984.52242      494.1269       0              528.50883      0              0              9.5132362      9.6835066      0.2            92.121486    
     14300   0.16221113     0.00092118549  0.00092118549  0              0              165.98436      118.8099       212.99395      0              205.87032      0              0              9.5122713      9.6927294      0.2            92.199872    
     14400   0.19997802     0.00099360251  0.00099360251  0              0             -362.0395      -93.608548     -630.64919      0              83.939153      0              0              9.5113064      9.6966493      0.2            92.227803    
     14500   0.2601205      0.00072058838  0.00072058838  0              0             -318.61698     -98.764937     -538.65585      0             -302.48812      0              0              9.5103415      9.6905197      0.2            92.160152    
     14600   0.21057091     0.00086603827  0.00086603827  0              0              783.58882      984.34988      582.65611      0              499.50187      0              0              9.5093766      9.6725001      0.2            91.979446    
     14700   0.19175751     0.00097942068  0.00097942068  0              0              444.79309      318.24737      571.1788       0              705.59558      0              0              9.5084117      9.6703695      0.2            91.949854    
     14800   0.22058998     0.00091714865  0.00091714865  0              0             -486.943       -391.65225     -582.3883       0              35.456891      0              0              9.5074468      9.6807694      0.2            92.0394      
     14900   0.16435069     0.0010424259   0.0010424259   0              0             -519.45105     -473.16793     -565.87604      0              319.50257      0              0              9.5064819      9.6873166      0.2            92.092301    
     15000   0.19527731     0.0011103757   0.0011103757   0              0              1278.0462      2068.0675      487.85955      0              462.37127      0              0              9.5055171      9.6776695      0.2            91.991253    
     15100   0.16223432     0.00097459938  0.00097459938  0              0              1197.358       1706.8037      687.73562      0             -303.51279      0              0              9.5045522      9.6765357      0.2            91.971139    
     15200   0.21080306     0.00095960948  0.00095960948  0              0             -88.408755      312.26177     -489.26697      0              364.09021      0              0              9.5035873      9.6795813      0.2            91.990746    
     15300   0.22144901     0.0008851599   0.0008851599   0              0             -359.65823      175.69767     -895.15247      0             -80.45247       0              0              9.5026224      9.6901689      0.2            92.082016    
     15400   0.20985739     0.0010597867   0.0010597867   0              0              878.03516      1198.7599      557.17538      0              383.80754      0              0              9.5016575      9.6740972      0.2            91.919958    
     15500   0.20520135     0.0010514643   0.0010514643   0              0              1049.3512      1052.6682      1045.8452      0             -100.31284      0              0              9.5006926      9.6651346      0.2            91.825473    
     15600   0.1997407      0.0010405538   0.0010405538   0              0              168.47751      715.52209     -378.70498      0              62.845795      0              0              9.4997277      9.6784838      0.2            91.94296     
     15700   0.22804495     0.0011298664   0.0011298664   0              0             -502.60594      130.52324     -1135.9091      0             -113.75483      0              0              9.4987628      9.6861428      0.2            92.006373    
     15800   0.22185413     0.0010430696   0.0010430696   0              0              530.04187      912.09059      147.84911      0              985.53211      0              0              9.4977979      9.6852534      0.2            91.98858     
     15900   0.25102684     0.00096911877  0.00096911877  0              0              864.39554      554.88891      1173.7122      0             -377.49843      0              0              9.4968331      9.6742205      0.2            91.874457    
     16000   0.19826175     0.00097197608  0.00097197608  0              0              817.52428      1696.4013     -61.536117      0              26.515833      0              0              9.4958682      9.6969784      0.2            92.081228    
     16100   0.23002033     0.0010280925   0.0010280925   0              0             -920.43183     -479.00765     -1362.0256      0              89.382906      0              0              9.4949033      9.7107827      0.2            92.202942    
     16200   0.2017104      0.00096192016  0.00096192016  0              0             -145.7803       54.831813     -346.50938      0              90.417878      0              0              9.4939384      9.7061756      0.2            92.149833    
     16300   0.16892482     0.00084701384  0.00084701384  0              0              1116.5835      1013.4043      1219.5956      0             -8.6782022      0              0              9.4929735      9.6992961      0.2            92.075161    
     16400   0.20891627     0.00090759164  0.00090759164  0              0              1035.7547      1480.7478      590.62349      0              134.85811      0              0              9.4920086      9.7029312      0.2            92.100307    
     16500   0.22838973     0.0010470372   0.0010470372   0              0             -65.392438      770.00287     -900.96233      0              231.11713      0              0              9.4910437      9.7053286      0.2            92.113698    
     16600   0.27381416     0.0010366987   0.0010366987   0              0             -513.1757      -408.33079     -618.21322      0              288.8327       0              0              9.4900788      9.7144631      0.2            92.191021    
     16700   0.24035459     0.00095162304  0.00095162304  0              0             -7.7244306     -498.91197      483.29517      0              521.85103      0              0              9.4891139      9.7204377      0.2            92.238341    
     16800   0.18284556     0.0010963272   0.0010963272   0              0              1139.4354      1540.0342      738.63725      0              498.37382      0              0              9.4881491      9.7187554      0.2            92.213       
     16900   0.24165477     0.00083420276  0.00083420276  0              0              120.24948      451.96118     -211.65181      0              420.35881      0              0              9.4871842      9.7338003      0.2            92.346356    
     17000   0.1852176      0.00089088108  0.00089088108  0              0             -535.9335      -363.93708     -708.06897      0              439.68598      0              0              9.4862193      9.7461253      0.2            92.453882    
     17100   0.20700227     0.0010167076   0.0010167076   0              0              310.45219      824.59114     -203.84239      0             -240.67227      0              0              9.4852544      9.7456353      0.2            92.43983     
     17200   0.18382269     0.0010343393   0.0010343393   0              0              997.5562       1475.8388      519.08784      0              925.90281      0              0              9.4842895      9.7303156      0.2            92.28513     
     17300   0.18442269     0.00082635376  0.00082635376  0              0              519.9576       654.46707      385.28469      0              839.96239      0              0              9.4833246      9.7295228      0.2            92.268223    
     17400   0.19890324     0.00082426871  0.00082426871  0              0              354.76922      910.44691     -201.06262      0              656.22581      0              0              9.4823597      9.7199138      0.2            92.167719    
     17500   0.22442394     0.00080006692  0.00080006692  0              0              17.168212      376.26422     -342.07055      0             -14.580161      0              0              9.4813948      9.7240403      0.2            92.197466    
     17600   0.21009593     0.00076390586  0.00076390586  0              0              608.90531      1206.3133      11.34846       0              566.95367      0              0              9.4804299      9.7180253      0.2            92.131058    
     17700   0.23910217     0.00086609767  0.00086609767  0              0              881.13537      1356.5716      405.55743      0              499.93061      0              0              9.4794651      9.7148245      0.2            92.09134     
     17800   0.26169038     0.00064129099  0.00064129099  0              0              85.181482     -19.40184       189.58622      0              166.58815      0              0              9.4785002      9.7270192      0.2            92.197553    
     17900   0.1721855      0.00092671376  0.00092671376  0              0             -166.33727      175.08126     -507.91705      0              60.120146      0              0              9.4775353      9.7329399      0.2            92.244281    
     18000   0.18424643     0.0010026519   0.0010026519   0              0             -408.71028     -502.40586     -315.16681      0             -37.02679       0              0              9.4765704      9.7336719      0.2            92.241827    
     18100   0.24577473     0.00097764088  0.00097764088  0              0              522.29229      632.93578      411.46456      0              385.82966      0              0              9.4756055      9.72803        0.2            92.178975    
     18200   0.21730481     0.0007609216   0.0007609216   0              0              337.07204      108.5074       565.47028      0              418.76309      0              0              9.4746406      9.7239516      0.2            92.130947    
     18300   0.23727246     0.0010049273   0.0010049273   0              0              69.665615      524.67396     -385.51439      0              481.38205      0              0              9.4736757      9.7331608      0.2            92.208809    
     18400   0.17154966     0.0008325907   0.0008325907   0              0             -740.04404     -889.04102     -591.19828      0              310.78391      0              0              9.4727108      9.7271811      0.2            92.142774    
     18500   0.23482192     0.00076022857  0.00076022857  0              0              516.67533      952.37786      80.810191      0             -208.219        0              0              9.4717459      9.7230884      0.2            92.094623    
     18600   0.19142764     0.00082347326  0.00082347326  0              0              605.88208      510.69653      700.88381      0              617.38029      0              0              9.4707811      9.7103681      0.2            91.964771    
     18700   0.19850522     0.00093698808  0.00093698808  0              0              776.14496      1275.6676      276.50499      0              97.957912      0              0              9.4698162      9.7187101      0.2            92.034398    
     18800   0.17715203     0.00085523382  0.00085523382  0              0             -53.185152      630.42566     -736.93043      0              584.45146      0              0              9.4688513      9.7319426      0.2            92.150318    
     18900   0.18656328     0.0010471176   0.0010471176   0              0             -97.714418      615.16777     -810.78251      0              261.71576      0              0              9.4678864      9.7318773      0.2            92.140309    
     19000   0.19195686     0.00089637061  0.00089637061  0              0              11.931913     -187.255        210.94183      0              395.10777      0              0              9.4669215      9.7324749      0.2            92.136576    
     19100   0.18131405     0.00094593642  0.00094593642  0              0              859.2361       892.23042      826.09316      0             -408.5958       0              0              9.4659566      9.7231566      0.2            92.038979    
     19200   0.20901877     0.0008547594   0.0008547594   0              0              651.55351      1007.6601      295.2788       0             -537.30424      0              0              9.4649917      9.7346529      0.2            92.138409    
     19300   0.21447975     0.00094853366  0.00094853366  0              0             -239.19678      232.32346     -710.86047      0             -156.10223      0              0              9.4640268      9.7362692      0.2            92.144313    
     19400   0.1844314      0.00084576522  0.00084576522  0              0             -193.01176      354.51985     -740.71239      0             -139.00306      0              0              9.4630619      9.7291615      0.2            92.067658    
     19500   0.19891609     0.00089473921  0.00089473921  0              0              422.70012      594.98534      250.25047      0             -343.95636      0              0              9.462097       9.733553       0.2            92.099823    
     19600   0.2117104      0.00095221481  0.00095221481  0              0              1022.5648      1129.7716      915.17065      0             -23.270686      0              0              9.4611322      9.7300998      0.2            92.05776     
     19700   0.20351727     0.00091168106  0.00091168106  0              0              466.44259      477.01533      455.68316      0              396.07865      0              0              9.4601673      9.7265057      0.2            92.014371    
     19800   0.19424539     0.0010602049   0.0010602049   0              0             -331.41298      30.235149     -693.2344       0             -578.13891      0              0              9.4592024      9.7255553      0.2            91.995996    
     19900   0.21275838     0.0012556545   0.0012556545   0              0              87.345185      981.95472     -807.42475      0             -468.47046      0              0              9.4582375      9.7202943      0.2            91.936852    
     20000   0.22163816     0.00098963555  0.00098963555  0              0              312.82298      653.24307     -27.775099      0              353.2159       0              0              9.4572726      9.7170009      0.2            91.896326    
     20100   0.16735446     0.0011342701   0.0011342701   0              0              1290.8268      1801.3251      780.16696      0             -245.44749      0              0              9.4563077      9.7121061      0.2            91.840664    
     20200   0.23414055     0.00078324627  0.00078324627  0              0              388.10323      228.05145      547.97752      0             -93.887291      0              0              9.4553428      9.7087692      0.2            91.799741    
     20300   0.19090503     0.00098372137  0.00098372137  0              0             -339.52284     -241.7787      -437.42578      0              85.507842      0              0              9.4543779      9.710953       0.2            91.811019    
     20400   0.24989526     0.00084733377  0.00084733377  0              0             -924.6554      -1201.416      -648.06543      0              367.30852      0              0              9.453413       9.719079       0.2            91.878468    
     20500   0.15791311     0.00098452322  0.00098452322  0              0              0.51729876     57.311233     -56.443684      0             -403.25611      0              0              9.4524482      9.7175857      0.2            91.854975    
     20600   0.21849152     0.00092976578  0.00092976578  0              0              418.89284      302.05198      535.57032      0             -169.32768      0              0              9.4514833      9.7111846      0.2            91.785098    
     20700   0.22264218     0.00081058249  0.00081058249  0              0              191.47984      69.008394      313.74163      0             -154.74871      0              0              9.4505184      9.7194715      0.2            91.854044    
     20800   0.20608881     0.0010534864   0.0010534864   0              0             -81.079996     -29.75795      -132.57607      0             -269.69827      0              0              9.4495535      9.7220056      0.2            91.868612    
     20900   0.19660713     0.0011974229   0.0011974229   0              0             -65.233182      449.36382     -579.98945      0              319.68251      0              0              9.4485886      9.7187435      0.2            91.828409    
     21000   0.22565315     0.00093637222  0.00093637222  0              0              388.35438      1003.9668     -227.44976      0             -242.0605       0              0              9.4476237      9.7249515      0.2            91.877683    
     21100   0.20148247     0.0008622322   0.0008622322   0              0              818.95212      1295.8247      341.91792      0              182.21892      0              0              9.4466588      9.7139755      0.2            91.764612    
     21200   0.21386143     0.0011029469   0.0011029469   0              0              161.41226     -222.04081      544.69214      0              189.79886      0              0              9.4456939      9.7071237      0.2            91.690519    
     21300   0.19910431     0.00084306369  0.00084306369  0              0              165.40371      334.03127     -3.3938548      0              130.95919      0              0              9.444729       9.696392       0.2            91.579795    
     21400   0.1908676      0.0010714712   0.0010714712   0              0             -345.29427     -242.59304     -448.16209      0              454.81596      0              0              9.4437642      9.7001527      0.2            91.605954    
     21500   0.19023274     0.0010189092   0.0010189092   0              0             -742.73244     -1073.9163     -411.72365      0             -624.32982      0              0              9.4427993      9.7070492      0.2            91.661717    
     21600   0.25164334     0.00097405297  0.00097405297  0              0             -247.78937     -601.93887      106.18222      0              755.58785      0              0              9.4418344      9.7005857      0.2            91.591323    
     21700   0.18797272     0.001004186    0.001004186    0              0              280.68521      68.261289      492.93322      0              124.98176      0              0              9.4408695      9.7075987      0.2            91.648173    
     21800   0.25461373     0.0010716394   0.0010716394   0              0             -46.324387     -169.18356      76.362673      0              92.518519      0              0              9.4399046      9.7120945      0.2            91.681246    
     21900   0.2055451      0.00081672796  0.00081672796  0              0              185.50081      704.06057     -333.21803      0             -461.42854      0              0              9.4389397      9.7152985      0.2            91.702117    
     22000   0.18428701     0.00090503788  0.00090503788  0              0              8.3120978      437.38184     -420.92839      0              132.28909      0              0              9.4379748      9.7149507      0.2            91.68946     
     22100   0.19648993     0.00096332206  0.00096332206  0              0              465.37929      852.37429      78.217901      0              344.96661      0              0              9.4370099      9.7122434      0.2            91.654538    
     22200   0.22401324     0.00085229694  0.00085229694  0              0              683.85723      950.58901      416.96122      0              48.660326      0              0              9.436045       9.7089009      0.2            91.613626    
     22300   0.17219481     0.00085587426  0.00085587426  0              0              593.71975      860.82684      326.43101      0              415.50219      0              0              9.4350802      9.706944       0.2            91.585795    
     22400   0.17981512     0.0010074607   0.0010074607   0              0             -143.15007     -178.03633     -108.45817      0              316.75325      0              0              9.4341153      9.712208       0.2            91.62609     
     22500   0.23175081     0.00091409182  0.00091409182  0              0              117.13325      703.12529     -469.03572      0             -55.471629      0              0              9.4331504      9.703308       0.2            91.532764    
     22600   0.21048951     0.00098477293  0.00098477293  0              0              246.45519      620.13829     -127.41246      0              104.22938      0              0              9.4321855      9.6992775      0.2            91.485384    
     22700   0.20918222     0.00095466429  0.00095466429  0              0              1005.7385      1690.0902      321.20947      0             -382.51014      0              0              9.4312206      9.6955696      0.2            91.441055    
     22800   0.18127463     0.00119947     0.00119947     0              0              964.03662      1427.7106      500.1933       0             -290.58456      0              0              9.4302557      9.695242       0.2            91.428611    
     22900   0.22891807     0.0011945915   0.0011945915   0              0              821.30801      1535.5482      106.90037      0             -202.565        0              0              9.4292908      9.7055889      0.2            91.516821    
     23000   0.21725227     0.00092507979  0.00092507979  0              0              96.647228      712.62741     -519.55933      0              126.23037      0              0              9.4283259      9.717703       0.2            91.621671    
     23100   0.17519574     0.0011759744   0.0011759744   0              0             -207.25864      249.17249     -663.87257      0             -113.43375      0              0              9.427361       9.7204627      0.2            91.638312    
     23200   0.18839598     0.0010624578   0.0010624578   0              0              151.75962      431.17759     -127.81679      0             -77.447936      0              0              9.4263962      9.7138653      0.2            91.566743    
     23300   0.16038755     0.0010278866   0.0010278866   0              0              561.76071      554.18254      569.19482      0              234.98081      0              0              9.4254313      9.7054854      0.2            91.478385    
     23400   0.21555606     0.00084013836  0.00084013836  0              0              494.3164       208.61828      779.81265      0              47.476522      0              0              9.4244664      9.6947824      0.2            91.368151    
     23500   0.19003276     0.0011101643   0.0011101643   0              0              550.86378      933.4545       168.11427      0             -371.75952      0              0              9.4235015      9.7041072      0.2            91.446669    
     23600   0.20025513     0.00093546646  0.00093546646  0              0             -7.4748937      540.59381     -555.71419      0              64.902767      0              0              9.4225366      9.7055542      0.2            91.450939    
     23700   0.21409551     0.00088102957  0.00088102957  0              0             -442.12839     -216.90696     -667.55921      0             -138.39155      0              0              9.4215717      9.7036513      0.2            91.423647    
     23800   0.20551077     0.00091153252  0.00091153252  0              0             -106.87694     -354.93132      140.98114      0              201.90917      0              0              9.4206068      9.6897869      0.2            91.283673    
     23900   0.21239002     0.0011317327   0.0011317327   0              0              978.4194       1228.0842      728.56859      0             -19.81619       0              0              9.4196419      9.6868306      0.2            91.246476    
     24000   0.20364766     0.0011158294   0.0011158294   0              0              540.88068      595.95597      485.64263      0              111.49919      0              0              9.418677       9.6960147      0.2            91.323631    
     24100   0.20133241     0.0010680721   0.0010680721   0              0              65.415711      389.42307     -258.76607      0             -894.01272      0              0              9.4177122      9.694051       0.2            91.295782    
     24200   0.24090418     0.00093612003  0.00093612003  0              0             -445.39088     -139.65187     -751.31086      0              117.70774      0              0              9.4167473      9.6968485      0.2            91.312772    
     24300   0.21220068     0.00097934387  0.00097934387  0              0              594.4489       1491.2066     -302.4626       0              60.524937      0              0              9.4157824      9.6944579      0.2            91.280906    
     24400   0.19290698     0.001084216    0.001084216    0              0              1135.713       1666.5596      604.72807      0             -96.772472      0              0              9.4148175      9.6940177      0.2            91.267408    
     24500   0.21443012     0.0010248105   0.0010248105   0              0              878.0543       878.57105      877.36533      0              341.53653      0              0              9.4138526      9.6957745      0.2            91.274592    
     24600   0.2412733      0.00091832937  0.00091832937  0              0              399.09383      652.25616      145.782        0              292.2865       0              0              9.4128877      9.6917695      0.2            91.227538    
     24700   0.19516523     0.00091866053  0.00091866053  0              0             -316.50441      258.1954      -891.4013       0             -162.55183      0              0              9.4119228      9.7047604      0.2            91.340456    
     24800   0.20111228     0.00078460547  0.00078460547  0              0              57.547964      900.52506     -785.60473      0             -68.515164      0              0              9.4109579      9.7046893      0.2            91.330423    
     24900   0.19716837     0.00081957286  0.00081957286  0              0              446.71537      681.59448      211.66309      0             -131.77891      0              0              9.409993       9.6950445      0.2            91.230301    
     25000   0.16352393     0.00096848019  0.00096848019  0              0              795.07823      563.79651      1026.2026      0              916.48768      0              0              9.4090282      9.6883078      0.2            91.157561    
     25100   0.17181703     0.00085324552  0.00085324552  0              0              380.3295       271.41725      489.02922      0              42.46348       0              0              9.4080633      9.6920477      0.2            91.183397    
     25200   0.21259078     0.00071120653  0.00071120653  0              0              110.51251      778.54447     -557.68629      0              2.8744519      0              0              9.4070984      9.7088912      0.2            91.332495    
     25300   0.22718156     0.0012627169   0.0012627169   0              0              91.665534      1142.0997     -958.93031      0             -604.68363      0              0              9.4061335      9.7120738      0.2            91.353063    
     25400   0.20154533     0.0011422039   0.0011422039   0              0              506.34416      1194.7905     -182.31697      0             -261.1134       0              0              9.4051686      9.709835       0.2            91.322635    
     25500   0.19259513     0.00087731046  0.00087731046  0              0              699.96225      678.0981       721.63449      0             -176.22922      0              0              9.4042037      9.7078423      0.2            91.294526    
     25600   0.21781009     0.00088257363  0.00088257363  0              0              950.977        1233.17        668.59443      0              313.79924      0              0              9.4032388      9.7042758      0.2            91.251623    
     25700   0.18495266     0.00091247822  0.00091247822  0              0              625.69945      1239.3661      11.886897      0             -374.42641      0              0              9.4022739      9.7077424      0.2            91.274853    
     25800   0.25192266     0.0010132089   0.0010132089   0              0             -219.17278      222.45849     -660.96199      0              385.39925      0              0              9.401309       9.7184247      0.2            91.365914    
     25900   0.18932104     0.00097769578  0.00097769578  0              0              199.59594      947.41072     -548.39624      0              574.72881      0              0              9.4003442      9.7178764      0.2            91.351383    
     26000   0.20396475     0.0010559468   0.0010559468   0              0              647.9606       1172.8006      122.97266      0              347.16558      0              0              9.3993793      9.7095022      0.2            91.263294    
     26100   0.17673318     0.00094117348  0.00094117348  0              0              719.63947      885.95147      553.13335      0              166.81074      0              0              9.3984144      9.6980428      0.2            91.146225    
     26200   0.15259089     0.00084652254  0.00084652254  0              0              790.45766      1191.2597      389.48108      0             -172.06622      0              0              9.3974495      9.6983522      0.2            91.139775    
     26300   0.17895769     0.00098776797  0.00098776797  0              0             -159.19636     -117.15947     -201.43822      0             -802.50314      0              0              9.3964846      9.6978265      0.2            91.125478    
     26400   0.19453934     0.00079706244  0.00079706244  0              0              95.764546      703.80532     -512.41492      0             -509.53754      0              0              9.3955197      9.7054209      0.2            91.187473    
     26500   0.2100416      0.00094122764  0.00094122764  0              0             -352.44025     -424.75686     -280.3132       0              128.89394      0              0              9.3945548      9.7100635      0.2            91.221724    
     26600   0.1949002      0.00096708728  0.00096708728  0              0              539.41792      866.17884      212.50701      0             -84.279915      0              0              9.3935899      9.6948196      0.2            91.06916     
     26700   0.24700113     0.0011165479   0.0011165479   0              0              617.77872      681.23855      554.15771      0              267.4426       0              0              9.392625       9.7045012      0.2            91.150741    
     26800   0.2130575      0.0012427271   0.0012427271   0              0              530.98756      883.9948       177.83147      0             -509.57102      0              0              9.3916602      9.703707       0.2            91.133918    
     26900   0.16974649     0.0010334627   0.0010334627   0              0              256.1992       763.40196     -251.18687      0              217.36572      0              0              9.3906953      9.7097814      0.2            91.181598    
     27000   0.18574828     0.00082915725  0.00082915725  0              0             -539.50878     -716.46798     -362.72663      0              16.532119      0              0              9.3897304      9.7112973      0.2            91.186464    
     27100   0.17148399     0.00081069824  0.00081069824  0              0              401.09364      835.4259      -33.43308       0              103.83516      0              0              9.3887655      9.7091343      0.2            91.156785    
     27200   0.20539694     0.00084834474  0.00084834474  0              0              400.96354      535.89395      265.83903      0              36.111448      0              0              9.3878006      9.7073636      0.2            91.130794    
     27300   0.22798429     0.0009474733   0.0009474733   0              0              1057.27        1908.7013      205.6846       0              252.30503      0              0              9.3868357      9.7009817      0.2            91.061521    
     27400   0.23647665     0.0011513584   0.0011513584   0              0              473.27098      1116.3652     -170.02075      0             -253.17308      0              0              9.3858708      9.7061508      0.2            91.100677    
     27500   0.17948321     0.00082003225  0.00082003225  0              0              466.61779      1245.2215     -312.15715      0             -467.42184      0              0              9.3849059      9.6994271      0.2            91.028211    
     27600   0.232218       0.00092433638  0.00092433638  0              0             -193.27481     -375.72332     -11.009657      0              332.03166      0              0              9.383941       9.6944681      0.2            90.972317    
     27700   0.19963326     0.0010614789   0.0010614789   0              0              82.162734      0.085849297    164.08289      0             -254.18327      0              0              9.3829762      9.6874907      0.2            90.897494    
     27800   0.21612351     0.00074743018  0.00074743018  0              0             -56.09855      -246.9556       134.54868      0              102.30446      0              0              9.3820113      9.6915712      0.2            90.92643     
     27900   0.25695277     0.00086074132  0.00086074132  0              0             -74.919848     -118.63065     -31.396036      0             -42.691109      0              0              9.3810464      9.6961215      0.2            90.959765    
[...]
     42900   0.20762776     0.00097497557  0.00097497557  0              0             -114.72472      722.33285     -951.92489      0              106.13938      0              0              9.236313       9.6539748      0.2            89.167133    
     43000   0.18311716     0.00085093864  0.00085093864  0              0              419.22351      790.56435      47.678348      0              315.8082       0              0              9.2353481      9.6486142      0.2            89.108312    
     43100   0.18208187     0.00085085114  0.00085085114  0              0              1329.1038      1445.9375      1212.0958      0              547.81964      0              0              9.2343832      9.6374774      0.2            88.99616     
     43200   0.21839292     0.0010360913   0.0010360913   0              0              1124.2718      974.03709      1274.3229      0             -134.99764      0              0              9.2334184      9.632007       0.2            88.936351    
     43300   0.21922569     0.0011118598   0.0011118598   0              0              837.24944      1677.486      -3.2025209      0              502.8243       0              0              9.2324535      9.6411397      0.2            89.011374    
     43400   0.16502027     0.0011901953   0.0011901953   0              0             -343.74451      619.3853      -1307.0138      0              353.8823       0              0              9.2314886      9.6533249      0.2            89.114559    
     43500   0.18021808     0.00082079435  0.00082079435  0              0             -672.79208      26.828753     -1372.6089      0             -99.905056      0              0              9.2305237      9.6535195      0.2            89.107041    
     43600   0.19543013     0.00094612722  0.00094612722  0              0              422.94699      1042.8512     -197.12627      0              347.98452      0              0              9.2295588      9.6444032      0.2            89.013587    
     43700   0.21130793     0.0011548446   0.0011548446   0              0              860.6798       428.09035      1293.1048      0              1141.3083      0              0              9.2285939      9.6442735      0.2            89.003083    
     43800   0.22918497     0.0008613448   0.0008613448   0              0              1782.2747      2210.2726      1354.0665      0              680.61782      0              0              9.227629       9.6417975      0.2            88.970931    
     43900   0.17821291     0.00078771101  0.00078771101  0              0              121.47323      90.125599      152.61004      0              159.01088      0              0              9.2266641      9.6468343      0.2            89.0081      
     44000   0.21334384     0.0010951238   0.0010951238   0              0             -555.24729     -33.926395     -1076.7856      0              388.22575      0              0              9.2256992      9.6530535      0.2            89.056168    
     44100   0.1885896      0.00099264749  0.00099264749  0              0             -454.17462      190.34077     -1098.8676      0             -129.79905      0              0              9.2247344      9.6457914      0.2            88.979863    
     44200   0.18856077     0.0010091928   0.0010091928   0              0              354.55237      870.80435     -161.91642      0             -168.12183      0              0              9.2237695      9.655143       0.2            89.056813    
     44300   0.18830926     0.00090195118  0.00090195118  0              0              458.14069      134.94987      781.18795      0              206.75684      0              0              9.2228046      9.6509426      0.2            89.008757    
     44400   0.2175722      0.0010418428   0.0010418428   0              0              1174.0913      1454.1985      893.82949      0             -319.97267      0              0              9.2218397      9.6531647      0.2            89.019937    
     44500   0.19771287     0.00082931585  0.00082931585  0              0              263.40997      281.85954      244.79406      0             -482.87718      0              0              9.2208748      9.6624522      0.2            89.096262    
     44600   0.21350916     0.000855618    0.000855618    0              0             -301.32365     -246.99848     -355.81208      0             -516.33609      0              0              9.2199099      9.6629737      0.2            89.091747    
     44700   0.18555912     0.00085173568  0.00085173568  0              0              96.783716      764.51765     -571.16149      0             -374.19991      0              0              9.218945       9.6591481      0.2            89.047155    
     44800   0.19552772     0.0010390169   0.0010390169   0              0             -212.89175      20.404753     -446.35484      0             -260.15054      0              0              9.2179801      9.6521608      0.2            88.973426    
     44900   0.22986404     0.00093018149  0.00093018149  0              0              1198.6976      2215.7069      181.5347       0             -131.48014      0              0              9.2170152      9.6475783      0.2            88.921876    
     45000   0.22765376     0.00095831981  0.00095831981  0              0              262.96896     -120.45537      646.23756      0             -207.90695      0              0              9.2160504      9.6524369      0.2            88.957345    
     45100   0.20352709     0.00092339187  0.00092339187  0              0              524.33665      675.93561      372.56988      0             -210.13128      0              0              9.2150855      9.6537566      0.2            88.960192    
     45200   0.22362823     0.00096897008  0.00096897008  0              0              128.9842       303.59667     -45.831754      0             -468.80513      0              0              9.2141206      9.6593431      0.2            89.002352    
     45300   0.21760437     0.00085651671  0.00085651671  0              0              104.38878      598.28098     -389.67674      0              416.54793      0              0              9.2131557      9.6504856      0.2            88.911426    
     45400   0.17043322     0.00093458997  0.00093458997  0              0             -311.986       -301.9158      -322.19041      0             -189.95945      0              0              9.2121908      9.6508257      0.2            88.905248    
     45500   0.2220641      0.00080892135  0.00080892135  0              0              120.38645      182.19617      58.381635      0             -625.31161      0              0              9.2112259      9.6462458      0.2            88.85375     
     45600   0.19064601     0.00077548752  0.00077548752  0              0              569.19862      811.48879      326.72136      0              386.70259      0              0              9.210261       9.6475868      0.2            88.856793    
     45700   0.25781382     0.00092033708  0.00092033708  0              0              1148.5221      1935.5466      361.33929      0             -257.46379      0              0              9.2092961      9.6464523      0.2            88.837036    
     45800   0.19306208     0.0010020867   0.0010020867   0              0              649.25073      1211.0422      87.289995      0             -253.98801      0              0              9.2083312      9.6568696      0.2            88.923654    
     45900   0.23312852     0.00064891566  0.00064891566  0              0             -89.529531      79.458135     -258.68279      0              466.52912      0              0              9.2073664      9.648375       0.2            88.836124    
     46000   0.17784962     0.00069352107  0.00069352107  0              0             -219.44185      35.751205     -474.8223       0              254.31655      0              0              9.2064015      9.6502334      0.2            88.843923    
     46100   0.17905438     0.00075840939  0.00075840939  0              0              244.83522      597.57543     -108.11678      0             -535.73796      0              0              9.2054366      9.6542473      0.2            88.871561    
     46200   0.21419217     0.00088652083  0.00088652083  0              0              788.95738      1398.5861      179.18012      0             -287.55758      0              0              9.2044717      9.6549095      0.2            88.868341    
     46300   0.2277144      0.00095619153  0.00095619153  0              0              733.25789      1164.558       301.77322      0             -31.383461      0              0              9.2035068      9.6466684      0.2            88.783178    
     46400   0.21013627     0.00086527153  0.00086527153  0              0              287.3656       442.17975      132.42881      0              24.22203       0              0              9.2025419      9.6507939      0.2            88.811835    
     46500   0.25442751     0.00081251985  0.00081251985  0              0              284.50106      775.94233     -207.12483      0              685.70367      0              0              9.201577       9.6530379      0.2            88.823172    
     46600   0.23353865     0.0010555233   0.0010555233   0              0              752.17629      1827.6442     -323.45295      0             -112.18811      0              0              9.2006121      9.6487973      0.2            88.774841    
     46700   0.1885226      0.0011447659   0.0011447659   0              0              18.988156     -71.515058      109.31435      0              320.16501      0              0              9.1996472      9.6356895      0.2            88.644945    
     46800   0.22334975     0.00097075773  0.00097075773  0              0             -100.90282     -505.04912      303.05003      0              388.57342      0              0              9.1986824      9.6384048      0.2            88.660624    
     46900   0.28092285     0.00088135112  0.00088135112  0              0              613.29338      888.02766      338.41437      0             -878.12839      0              0              9.1977175      9.646241       0.2            88.723399    
     47000   0.20598607     0.00092623696  0.00092623696  0              0              156.62192      404.52334     -91.444918      0              197.7032       0              0              9.1967526      9.6524174      0.2            88.770895    
     47100   0.19313882     0.0010585896   0.0010585896   0              0             -65.146811      372.96066     -503.43364      0             -648.01603      0              0              9.1957877      9.6602504      0.2            88.833612    
     47200   0.20477519     0.00099569191  0.00099569191  0              0              357.34602      1025.7779     -311.2728       0             -9.9038842      0              0              9.1948228      9.6627518      0.2            88.847291    
     47300   0.18360142     0.0010057727   0.0010057727   0              0              270.758        404.32672      137.05846      0             -206.25601      0              0              9.1938579      9.6602844      0.2            88.815282    
     47400   0.2061319      0.0011830678   0.0011830678   0              0              946.03441      1417.2348      474.67441      0              669.77208      0              0              9.192893       9.6541649      0.2            88.749705    
     47500   0.22481571     0.0011751329   0.0011751329   0              0              1075.2533      1769.0086      381.3112       0              669.23315      0              0              9.1919281      9.6567969      0.2            88.764583    
     47600   0.21992364     0.0011877102   0.0011877102   0              0              560.78484      1273.9984     -152.59774      0             -351.0752       0              0              9.1909632      9.6561938      0.2            88.749723    
     47700   0.22080304     0.0010519175   0.0010519175   0              0              556.23237      1635.4151     -523.11038      0              183.31984      0              0              9.1899984      9.6505171      0.2            88.688236    
     47800   0.23013941     0.0010921529   0.0010921529   0              0             -268.14747     -22.661531     -513.82866      0             -509.13615      0              0              9.1890335      9.6570104      0.2            88.738592    
     47900   0.23896473     0.0010041088   0.0010041088   0              0              366.75433      764.5074      -31.194158      0             -880.68568      0              0              9.1880686      9.655486       0.2            88.715267    
     48000   0.23176147     0.00107455     0.00107455     0              0              389.93926      280.59738      499.08983      0             -439.13845      0              0              9.1871037      9.6486481      0.2            88.64313     
     48100   0.18684808     0.00082555289  0.00082555289  0              0              765.49313      873.30481      657.49674      0             -514.81619      0              0              9.1861388      9.6485126      0.2            88.632576    
     48200   0.19444741     0.0012718318   0.0012718318   0              0              550.86641      932.81939      168.75551      0             -16.00372       0              0              9.1851739      9.6483412      0.2            88.621692    
     48300   0.20883298     0.00087107932  0.00087107932  0              0             -33.385831      574.91464     -641.86361      0             -823.23648      0              0              9.184209       9.66121        0.2            88.730572    
     48400   0.21404077     0.0010628411   0.0010628411   0              0             -397.74883      218.7888      -1014.4536      0             -508.04244      0              0              9.1832441      9.6600226      0.2            88.710346    
     48500   0.19467147     0.0012614924   0.0012614924   0              0              327.52374      1029.2828     -374.40016      0             -381.69168      0              0              9.1822792      9.6548142      0.2            88.6532      
     48600   0.17397204     0.0011325915   0.0011325915   0              0              734.72846      938.84046      530.44298      0              96.773805      0              0              9.1813144      9.6484341      0.2            88.585307    
     48700   0.16455773     0.00096124771  0.00096124771  0              0              962.27754      951.41621      972.99805      0              760.45013      0              0              9.1803495      9.6381094      0.2            88.481212    
     48800   0.17302828     0.00079536916  0.00079536916  0              0              646.78095      728.87361      564.519        0              261.81387      0              0              9.1793846      9.6465846      0.2            88.54971     
     48900   0.19966392     0.00099055612  0.00099055612  0              0              150.58681      624.69074     -323.66052      0              294.5777       0              0              9.1784197      9.6493533      0.2            88.565814    
     49000   0.19141445     0.0010960441   0.0010960441   0              0              60.316284      1052.3355     -931.88604      0             -278.65652      0              0              9.1774548      9.651098       0.2            88.572516    
     49100   0.189874       0.0010908348   0.0010908348   0              0              158.7186       959.7477      -642.45863      0             -166.44007      0              0              9.1764899      9.6534272      0.2            88.584578    
     49200   0.21517018     0.00095915551  0.00095915551  0              0              857.08561      1712.264       1.7516932      0             -259.48816      0              0              9.175525       9.6489095      0.2            88.533811    
     49300   0.21889049     0.00085447613  0.00085447613  0              0              824.76691      884.78249      764.60328      0             -805.89416      0              0              9.1745601      9.6338395      0.2            88.38624     
     49400   0.2016397      0.00086929253  0.00086929253  0              0              830.45879      911.51837      749.21087      0             -225.57109      0              0              9.1735952      9.6306468      0.2            88.347655    
     49500   0.18228321     0.00086575883  0.00086575883  0              0              275.85747      710.62661     -159.06955      0              212.13356      0              0              9.1726304      9.6420087      0.2            88.442581    
     49600   0.24143377     0.000952182    0.000952182    0              0             -756.5173      -698.95377     -814.2418       0             -841.2652       0              0              9.1716655      9.6530697      0.2            88.534726    
     49700   0.18040341     0.00086092106  0.00086092106  0              0             -316.07771      67.631105     -700.00941      0              12.514456      0              0              9.1707006      9.6527648      0.2            88.522615    
     49800   0.1936921      0.00083359489  0.00083359489  0              0              499.17864      1058.3359     -60.17795       0              431.58079      0              0              9.1697357      9.6400172      0.2            88.39641     
     49900   0.20654333     0.0010715482   0.0010715482   0              0              731.551        797.792        665.14578      0             -474.65636      0              0              9.1687708      9.6334369      0.2            88.326775    
     50000   0.22212262     0.00085566347  0.00085566347  0              0              1052.0085      1288.8102      815.01963      0              48.66244       0              0              9.1678059      9.6293821      0.2            88.280306    
     50100   0.235518       0.00098917524  0.00098917524  0              0              146.0804      -34.735781      326.73522      0             -304.02051      0              0              9.166841       9.6212403      0.2            88.19638     
     50141   0.20189548     0.0011101497   0.0011101497   0              0             -1032.6282     -1314.7727     -750.66258      0             -305.08831      0              0              9.1664454      9.6229649      0.2            88.208383    
Loop time of 1.0532 on 1 procs for 50000 steps with 57 atoms

Performance: 41017.975 ns/day, 0.001 hours/ns, 47474.508 timesteps/s
99.2% CPU use with 1 MPI tasks x 1 OpenMP threads

MPI task timing breakdown:
Section |  min time  |  avg time  |  max time  |%varavg| %total
---------------------------------------------------------------
Pair    | 0          | 0          | 0          |   0.0 |  0.00
Bond    | 0.14633    | 0.14633    | 0.14633    |   0.0 | 13.89
Neigh   | 0          | 0          | 0          |   0.0 |  0.00
Comm    | 0.35833    | 0.35833    | 0.35833    |   0.0 | 34.02
Output  | 0.0066355  | 0.0066355  | 0.0066355  |   0.0 |  0.63
Modify  | 0.516      | 0.516      | 0.516      |   0.0 | 48.99
Other   |            | 0.02589    |            |       |  2.46

Nlocal:             57 ave          57 max          57 min
Histogram: 1 0 0 0 0 0 0 0 0 0
Nghost:            480 ave         480 max         480 min
Histogram: 1 0 0 0 0 0 0 0 0 0
Neighs:              0 ave           0 max           0 min
Histogram: 1 0 0 0 0 0 0 0 0 0

Total # of neighbors = 0
Ave neighs/atom = 0
Ave special neighs/atom = 20.350877
Neighbor list builds = 0
Dangerous builds = 0


Total wall time: 0:00:01
