LAMMPS data file.

     57 atoms
    119 bonds
      0 angles
      0 dihedrals
      0 impropers
      1 atom types
    119 bond types
      0 angle types
      0 dihedral types
      0 improper types
  -4.824445   4.824445 xlo xhi
  -4.824445   4.824445 ylo yhi
  -0.100000   0.100000 zlo zhi

Masses # ['atom_id', 'mass']

1 10000.0

Atoms # ['atomID', 'moleculeID', 'atomType', 'charge', 'x', 'y', 'z']

      4      1      1   0.000000  -4.158144  -4.501474   0.000000
     39      1      1   0.000000  -1.538851  -4.471433   0.000000
     21      1      1   0.000000  -0.276655  -4.111042   0.000000
      3      1      1   0.000000   1.018684  -3.551459   0.000000
     20      1      1   0.000000   4.008340  -4.391532   0.000000
     65      1      1   0.000000  -4.729492  -3.722139   0.000000
     37      1      1   0.000000  -4.076195  -3.103736   0.000000
     33      1      1   0.000000  -3.120382  -3.744842   0.000000
     53      1      1   0.000000  -2.050744  -3.593819   0.000000
     45      1      1   0.000000  -1.156510  -3.386587   0.000000
     31      1      1   0.000000  -0.146275  -2.913796   0.000000
     52      1      1   0.000000   4.109816  -3.129686   0.000000
      6      1      1   0.000000  -4.025342  -1.920705   0.000000
     40      1      1   0.000000  -2.945096  -2.610214   0.000000
     19      1      1   0.000000  -0.658859  -1.746647   0.000000
     48      1      1   0.000000   0.547338  -1.932836   0.000000
     22      1      1   0.000000   1.612440  -2.357751   0.000000
      9      1      1   0.000000   2.987372  -2.500314   0.000000
     61      1      1   0.000000   4.015389  -2.352570   0.000000
     42      1      1   0.000000   4.448624  -1.730640   0.000000
     13      1      1   0.000000   0.390784  -0.666558   0.000000
     46      1      1   0.000000   2.229156  -1.523464   0.000000
     16      1      1   0.000000   3.419609  -1.173871   0.000000
      7      1      1   0.000000  -1.002732  -0.207115   0.000000
     44      1      1   0.000000   0.011680   0.601191   0.000000
     64      1      1   0.000000   0.789398   0.392306   0.000000
     15      1      1   0.000000   1.822645  -0.408003   0.000000
     29      1      1   0.000000   3.121804   0.093355   0.000000
     27      1      1   0.000000   4.185974  -0.036578   0.000000
      8      1      1   0.000000  -4.478230   0.993333   0.000000
     78      1      1   0.000000  -3.697957   1.793790   0.000000
     41      1      1   0.000000  -0.894713   1.136301   0.000000
     68      1      1   0.000000  -0.769021   1.849199   0.000000
     47      1      1   0.000000   0.009506   1.438430   0.000000
      2      1      1   0.000000   1.463921   1.183131   0.000000
     32      1      1   0.000000   3.805084   1.110962   0.000000
     66      1      1   0.000000   2.895437   0.982808   0.000000
     35      1      1   0.000000  -4.265199   2.350840   0.000000
     11      1      1   0.000000  -2.886326   2.463526   0.000000
     38      1      1   0.000000  -1.669573   1.822781   0.000000
     28      1      1   0.000000  -0.525302   2.555260   0.000000
     34      1      1   0.000000   0.628322   2.293656   0.000000
     17      1      1   0.000000   2.713911   2.039758   0.000000
     43      1      1   0.000000  -3.852354   3.334629   0.000000
     54      1      1   0.000000  -1.668779   2.894140   0.000000
     58      1      1   0.000000  -2.170931   3.508879   0.000000
     26      1      1   0.000000  -0.830848   3.670276   0.000000
     30      1      1   0.000000   0.375349   3.493026   0.000000
      5      1      1   0.000000   1.661868   3.133938   0.000000
     12      1      1   0.000000   4.784822   3.874591   0.000000
     70      1      1   0.000000  -3.220955   3.670550   0.000000
     62      1      1   0.000000  -3.644759   4.027116   0.000000
     18      1      1   0.000000  -2.721596   4.700637   0.000000
     80      1      1   0.000000  -1.709556   4.198661   0.000000
     50      1      1   0.000000  -0.658830   4.600024   0.000000
     60      1      1   0.000000   0.197067   4.564497   0.000000
      1      1      1   0.000000   1.300498   4.580284   0.000000

Bond Coeffs # ['bondID', 'bondCoeff', 'd']

      1   0.615392   1.274747
      2   0.903103   1.052280
      3   0.608882   1.281544
      4   0.689467   1.204324
      5   0.870064   1.072073
      6   0.766567   1.142154
      7   1.426585   0.837242
      8   0.671331   1.220483
      9   0.614261   1.275920
     10   0.515683   1.392542
     11   0.714651   1.182914
     12   3.259998   0.553849
     13   0.624005   1.265919
     14   0.441837   1.504420
     15   0.441837   1.504420
     16   0.487016   1.432941
     17   1.587148   0.793764
     18   0.529603   1.374120
     19   0.599575   1.291452
     20   0.933130   1.035211
     21   0.709469   1.187226
     22   0.653968   1.236579
     23   0.871224   1.071359
     24   1.012984   0.993571
     25   1.012984   0.993571
     26   0.821147   1.103544
     27   0.803789   1.115396
     28   0.490670   1.427596
     29   0.523351   1.382304
     30   1.908315   0.723894
     31   1.070890   0.966334
     32   0.401863   1.577469
     33   1.235758   0.899567
     34   0.927086   1.038580
     35   0.566976   1.328060
     36   0.665565   1.225758
     37   0.623227   1.266709
     38   0.925596   1.039415
     39   0.758664   1.148088
     40   0.397619   1.585865
     41   1.231997   0.900939
     42   0.449943   1.490806
     43   0.397619   1.585865
     44   0.531703   1.371405
     45   1.542073   0.805281
     46   0.748157   1.156122
     47   0.769835   1.139728
     48   0.603868   1.286853
     49   1.187127   0.917807
     50   1.740677   0.757951
     51   0.528809   1.375152
     52   0.517735   1.389781
     53   0.522469   1.383470
     54   0.765780   1.142742
     55   1.118540   0.945528
     56   1.100238   0.953360
     57   0.968767   1.015992
     58   0.464474   1.467301
     59   0.590128   1.301748
     60   0.760460   1.146732
     61   0.684029   1.209101
     62   0.510103   1.400139
     63   0.665604   1.225722
     64   0.781197   1.131409
     65   0.672799   1.219150
     66   0.782404   1.130536
     67   0.902637   1.052552
     68   0.902637   1.052552
     69   0.869494   1.072424
     70   1.186803   0.917932
     71   0.440850   1.506102
     72   0.472349   1.455018
     73   0.452568   1.486477
     74   0.452568   1.486477
     75   0.705931   1.190197
     76   0.594393   1.297069
     77   0.713191   1.184124
     78   0.435486   1.515350
     79   0.783573   1.129692
     80   1.582108   0.795027
     81   0.614914   1.275243
     82   0.472052   1.455477
     83   0.472052   1.455477
     84   0.649607   1.240722
     85   0.614914   1.275243
     86   0.513801   1.395091
     87   0.929045   1.037484
     88   0.656621   1.234078
     89   0.434023   1.517901
     90   0.856947   1.080247
     91   0.878517   1.066903
     92   1.792367   0.746941
     93   1.631783   0.782832
     94   1.452085   0.829858
     95   0.782404   1.130536
     96   0.563605   1.332025
     97   1.955003   0.715198
     98   0.847576   1.086202
     99   1.362729   0.856634
    100   0.730532   1.169985
    101   0.897388   1.055625
    102   0.705931   1.190197
    103   0.975068   1.012704
    104   0.975068   1.012704
    105   0.760384   1.146789
    106   0.800284   1.117835
    107   0.760384   1.146789
    108   0.502250   1.411042
    109   0.606266   1.284306
    110   0.562593   1.333223
    111   0.754948   1.150910
    112   1.913385   0.722934
    113   0.560514   1.335693
    114   0.853370   1.082508
    115   0.853370   1.082508
    116   0.763105   1.144743
    117   0.492532   1.424894
    118   0.492532   1.424894
    119   1.185001   0.918630

Bonds # ['ID', 'type', 'atom1', 'atom2']

         1         1        31        19
         2         2        78        11
         3         3         6        40
         4         4        21        31
         5         5        29        27
         6         6        54        26
         7         7        44        47
         8         8        19        48
         9         9        48        13
        10        10        15        29
        11        11        28        34
        12        12        70        62
        13        13        20        52
        14        14         4        18
        15        15        18         4
        16        16        32        17
        17        17        54        58
        18        18         8        35
        19        19        11        54
        20        20        41        38
        21        21        46        15
        22        22         9        46
        23        23        38        54
        24        24        39        80
        25        25        80        39
        26        26        60         1
        27        27        45        31
        28        28        30         1
        29        29        22         9
        30        30        41        68
        31        31         4        65
        32        32        19         7
        33        33        65        37
        34        34         9        61
        35        35         3        31
        36        36        34        30
        37        37        11        58
        38        38        64         2
        39        39        33        40
        40        40        20        12
        41        41        68        38
        42        42         5         1
        43        43        12        20
        44        44        16        27
        45        45        44        64
        46        46        28        26
        47        47        21        45
        48        48        52         9
        49        49        29        66
        50        50        61        42
        51        51        11        38
        52        52         2        34
        53        53        35        11
        54        54        62        18
        55        55        26        50
        56        56        41        47
        57        57        39        53
        58        58        13         7
        59        59        16        29
        60        60        48        22
        61        61        27        32
        62        62         4        37
        63        63        29        32
        64        64        13        64
        65        65        26        30
        66        66        65        20
        67        67        50        39
        68        68        39        50
        69        69        66        17
        70        70        53        45
        71        71        19        13
        72        72        13        15
        73        73         4        20
        74        74        20         4
        75        75        42         6
        76        76         7        44
        77        77        37         6
        78        78         2        17
        79        79        18        80
        80        80        78        35
        81        81        39        18
        82        82        12         4
        83        83         4        12
        84        84        46        16
        85        85        18        39
        86        86         9        16
        87        87        22        46
        88        88        37        40
        89        89        17         5
        90        90        33        53
        91        91        35        43
        92        92        68        28
        93        93        52        61
        94        94        58        80
        95        95        20        65
        96        96        34         5
        97        97        43        70
        98        98        30        60
        99        99        50        60
       100       100        42        16
       101       101        47        34
       102       102         6        42
       103       103        21        50
       104       104        50        21
       105       105        12        43
       106       106         8        78
       107       107        43        12
       108       108        21         3
       109       109         4        33
       110       110         3        22
       111       111        37        33
       112       112        43        62
       113       113        30         5
       114       114        21        60
       115       115        60        21
       116       116        70        18
       117       117        27         8
       118       118         8        27
       119       119        32        66
