ITEM: TIMESTEP
500
ITEM: NUMBER OF ATOMS
62
ITEM: BOX BOUNDS pp pp pp
-4.8037989809029273e+00 4.8037989809029273e+00
-4.8092323036686606e+00 4.8092323036686606e+00
-1.0000000000000001e-01 1.0000000000000001e-01
ITEM: ATOMS id type xs ys zs
3 1 0.0828907 0.109613 0.49903
77 1 0.133274 0.00470905 0.500273
11 1 0.234458 0.0834481 0.499057
38 1 0.363231 0.0442723 0.499186
69 1 0.642552 0.054145 0.502035
58 1 0.800779 0.0147706 0.50104
60 1 0.851744 0.0817745 0.500725
31 1 0.911999 0.994115 0.4994
43 1 0.170332 0.198649 0.499675
33 1 0.276077 0.209168 0.500915
29 1 0.391602 0.169197 0.500036
73 1 0.440893 0.0933556 0.499873
20 1 0.556401 0.0987531 0.501522
15 1 0.718228 0.118423 0.50057
64 1 0.842678 0.164638 0.500826
18 1 0.949047 0.155479 0.498805
17 1 0.0528847 0.253091 0.497936
16 1 0.199577 0.319779 0.499804
36 1 0.338656 0.327883 0.498928
28 1 0.493219 0.224602 0.49816
55 1 0.542416 0.324459 0.49899
47 1 0.804377 0.218104 0.497274
46 1 0.883308 0.25261 0.500591
80 1 0.0866482 0.35513 0.502105
56 1 0.438487 0.338965 0.499219
75 1 0.496291 0.396006 0.501412
2 1 0.662744 0.384456 0.501384
13 1 0.806971 0.346415 0.502253
27 1 0.0880146 0.442581 0.501183
72 1 0.14619 0.52226 0.500656
6 1 0.23351 0.464664 0.500021
1 1 0.396716 0.463148 0.500094
19 1 0.554631 0.499688 0.498869
65 1 0.654791 0.503209 0.501002
54 1 0.726724 0.485412 0.49908
5 1 0.852021 0.479321 0.501043
48 1 0.972639 0.485104 0.500517
25 1 0.0597554 0.565695 0.498294
26 1 0.445181 0.583101 0.499768
24 1 0.558675 0.637045 0.500096
45 1 0.669152 0.576602 0.502533
9 1 0.792981 0.61 0.500884
35 1 0.940496 0.587946 0.498185
4 1 0.68508 0.695013 0.501738
67 1 0.79886 0.735899 0.500215
70 1 0.851427 0.771462 0.498962
74 1 0.850948 0.708238 0.500971
30 1 0.443144 0.829227 0.500809
7 1 0.575753 0.798396 0.500602
71 1 0.641708 0.897719 0.498339
14 1 0.739881 0.836373 0.500654
37 1 0.882587 0.862517 0.499931
23 1 0.0354314 0.983138 0.500507
41 1 0.979177 0.894951 0.50118
52 1 0.0647203 0.880005 0.500289
44 1 0.142012 0.943813 0.500537
8 1 0.269483 0.935038 0.501125
53 1 0.407522 0.936906 0.500826
12 1 0.53064 0.947139 0.501952
39 1 0.697676 0.976195 0.498874
62 1 0.7683 0.92857 0.502216
66 1 0.838035 0.932523 0.498543
ITEM: TIMESTEP
750
ITEM: NUMBER OF ATOMS
62
ITEM: BOX BOUNDS pp pp pp
-4.8025977320467366e+00 4.8025977320467366e+00
-4.8100018358444903e+00 4.8100018358444903e+00
-1.0000000000000001e-01 1.0000000000000001e-01
ITEM: ATOMS id type xs ys zs
3 1 0.0827324 0.109387 0.498519
77 1 0.132886 0.00470039 0.500133
11 1 0.234868 0.0839308 0.500364
38 1 0.363213 0.0445242 0.49933
69 1 0.642783 0.0536819 0.503282
58 1 0.801362 0.0140425 0.50276
60 1 0.852207 0.0814625 0.499926
31 1 0.912636 0.994108 0.499928
43 1 0.171011 0.198943 0.499693
33 1 0.277092 0.209977 0.499553
29 1 0.392112 0.168598 0.498336
73 1 0.440767 0.0926726 0.501245
20 1 0.55676 0.0992104 0.501965
15 1 0.718694 0.117847 0.501482
64 1 0.842931 0.163879 0.501519
18 1 0.949505 0.155733 0.501373
17 1 0.054124 0.252969 0.496766
16 1 0.200498 0.320513 0.502147
36 1 0.338867 0.328795 0.500132
28 1 0.493013 0.225675 0.497465
55 1 0.542537 0.325107 0.499254
47 1 0.80528 0.217854 0.496987
46 1 0.88419 0.253507 0.500307
80 1 0.0871737 0.355285 0.503693
56 1 0.438792 0.338884 0.498919
75 1 0.496049 0.396323 0.49992
2 1 0.662773 0.383706 0.501309
13 1 0.806945 0.346757 0.500662
27 1 0.0882161 0.443302 0.500025
72 1 0.146195 0.522168 0.500276
6 1 0.233645 0.465892 0.497692
1 1 0.397303 0.463387 0.500612
19 1 0.55468 0.499765 0.497561
65 1 0.655073 0.502623 0.502658
54 1 0.72711 0.484234 0.499257
5 1 0.853365 0.479652 0.502293
48 1 0.973795 0.485604 0.500513
25 1 0.0602038 0.566333 0.497041
26 1 0.445302 0.583296 0.501901
24 1 0.557877 0.637566 0.499998
45 1 0.670021 0.576007 0.501583
9 1 0.793621 0.61055 0.501176
35 1 0.940629 0.588367 0.496913
4 1 0.685046 0.694387 0.502
67 1 0.798609 0.735519 0.500607
70 1 0.851193 0.771229 0.498573
74 1 0.850766 0.708503 0.500669
30 1 0.443037 0.830531 0.500589
7 1 0.576079 0.798185 0.501128
71 1 0.642245 0.897161 0.498949
14 1 0.739553 0.836658 0.500572
37 1 0.882055 0.862769 0.500577
23 1 0.0357273 0.982881 0.499645
41 1 0.979103 0.894789 0.501029
52 1 0.0641791 0.879182 0.500209
44 1 0.142192 0.943853 0.502609
8 1 0.269514 0.935136 0.501753
53 1 0.409042 0.937703 0.501401
12 1 0.532972 0.947706 0.500801
39 1 0.698197 0.975842 0.498025
62 1 0.769417 0.927967 0.498834
66 1 0.838325 0.933559 0.498457
ITEM: TIMESTEP
1000
ITEM: NUMBER OF ATOMS
62
ITEM: BOX BOUNDS pp pp pp
-4.8013964831905458e+00 4.8013964831905458e+00
-4.8104187471977555e+00 4.8104187471977555e+00
-1.0000000000000001e-01 1.0000000000000001e-01
ITEM: ATOMS id type xs ys zs
3 1 0.0830474 0.109381 0.497988
77 1 0.133284 0.00555017 0.502172
11 1 0.234148 0.0828562 0.500385
38 1 0.363102 0.0447017 0.499605
69 1 0.642619 0.0528179 0.502201
58 1 0.802152 0.0138641 0.503076
60 1 0.852381 0.0807694 0.500125
31 1 0.913167 0.994314 0.498771
43 1 0.171204 0.198442 0.499137
33 1 0.277155 0.209109 0.497582
29 1 0.392458 0.16972 0.496917
73 1 0.440695 0.0932602 0.502416
20 1 0.557059 0.0986791 0.499038
15 1 0.718345 0.117215 0.504663
64 1 0.842687 0.163599 0.502469
18 1 0.949467 0.155714 0.500883
17 1 0.0534126 0.253077 0.496828
16 1 0.199756 0.32 0.504766
36 1 0.338175 0.32857 0.500269
28 1 0.495014 0.224959 0.496791
55 1 0.543379 0.325933 0.499923
47 1 0.804814 0.217433 0.496181
46 1 0.883553 0.252761 0.499414
80 1 0.0861936 0.355483 0.503379
56 1 0.438622 0.339072 0.498098
75 1 0.495513 0.396327 0.497708
2 1 0.662789 0.384802 0.501535
13 1 0.806721 0.346406 0.501484
27 1 0.0874364 0.443213 0.501
72 1 0.146964 0.522122 0.501102
6 1 0.233981 0.464717 0.49788
1 1 0.397568 0.463444 0.49974
19 1 0.555025 0.499002 0.498763
65 1 0.655636 0.503447 0.501689
54 1 0.727584 0.484833 0.500971
5 1 0.853859 0.479651 0.501391
48 1 0.974336 0.485874 0.501217
25 1 0.0611364 0.566642 0.497557
26 1 0.445826 0.583129 0.501068
24 1 0.559133 0.636457 0.498623
45 1 0.669309 0.576587 0.502987
9 1 0.793738 0.610237 0.503776
35 1 0.94108 0.588412 0.496288
4 1 0.684749 0.694969 0.499997
67 1 0.797718 0.734135 0.5
70 1 0.849214 0.771839 0.497635
74 1 0.851174 0.708781 0.501201
30 1 0.444385 0.831031 0.49973
7 1 0.575868 0.797967 0.502312
71 1 0.642259 0.897182 0.499641
14 1 0.740242 0.836305 0.500087
37 1 0.882674 0.862598 0.500578
23 1 0.0363125 0.982761 0.498492
41 1 0.979828 0.894337 0.500366
52 1 0.0655894 0.880244 0.501773
44 1 0.143535 0.945029 0.503218
8 1 0.269776 0.934175 0.500533
53 1 0.410389 0.938853 0.503772
12 1 0.533809 0.947616 0.50027
39 1 0.698824 0.975478 0.49995
62 1 0.770072 0.927745 0.499214
66 1 0.83919 0.933232 0.49836
ITEM: TIMESTEP
1250
ITEM: NUMBER OF ATOMS
62
ITEM: BOX BOUNDS pp pp pp
-4.8001952343343541e+00 4.8001952343343541e+00
-4.8105971633770608e+00 4.8105971633770608e+00
-1.0000000000000001e-01 1.0000000000000001e-01
ITEM: ATOMS id type xs ys zs
3 1 0.0823732 0.109577 0.498147
77 1 0.133195 0.00582013 0.501783
11 1 0.23402 0.0831801 0.500306
38 1 0.362669 0.0447776 0.500097
69 1 0.642979 0.0531411 0.502862
58 1 0.801442 0.0141114 0.503159
60 1 0.851736 0.0813672 0.500164
31 1 0.912579 0.994631 0.496873
43 1 0.170471 0.19843 0.499905
33 1 0.276565 0.208881 0.498197
29 1 0.392089 0.169513 0.494233
73 1 0.440643 0.0934913 0.500583
20 1 0.557405 0.0993504 0.497622
15 1 0.71875 0.118145 0.505305
64 1 0.841497 0.164306 0.502432
18 1 0.948608 0.156189 0.499277
17 1 0.0532854 0.253685 0.496462
16 1 0.199388 0.319628 0.505305
36 1 0.337998 0.327945 0.499589
28 1 0.493453 0.225069 0.497817
55 1 0.544115 0.324276 0.500081
47 1 0.804983 0.219195 0.495467
46 1 0.884441 0.253584 0.500494
80 1 0.0867272 0.355742 0.503367
56 1 0.43796 0.337812 0.499479
75 1 0.495707 0.394908 0.497582
2 1 0.66424 0.384707 0.502742
13 1 0.808564 0.347209 0.50148
27 1 0.0876722 0.442864 0.500898
72 1 0.147218 0.521768 0.501929
6 1 0.233967 0.464138 0.497752
1 1 0.39759 0.462598 0.500234
19 1 0.555061 0.49826 0.495975
65 1 0.655264 0.503033 0.502083
54 1 0.728101 0.486175 0.50248
5 1 0.853765 0.48029 0.500188
48 1 0.974136 0.485511 0.501127
25 1 0.0611124 0.566386 0.49804
26 1 0.445267 0.582487 0.501751
24 1 0.558909 0.635764 0.499666
45 1 0.669956 0.57669 0.501103
9 1 0.793771 0.610607 0.502459
35 1 0.941479 0.58852 0.496451
4 1 0.684185 0.694929 0.498215
67 1 0.797954 0.734532 0.498885
70 1 0.849708 0.772004 0.497398
74 1 0.851201 0.709053 0.502185
30 1 0.442876 0.831071 0.500115
7 1 0.575193 0.797881 0.5028
71 1 0.64242 0.895828 0.499156
14 1 0.740728 0.835796 0.500244
37 1 0.882927 0.862982 0.501732
23 1 0.0362012 0.982944 0.498546
41 1 0.980315 0.894373 0.499626
52 1 0.0657065 0.879852 0.500315
44 1 0.142785 0.944919 0.504951
8 1 0.269659 0.934914 0.502136
53 1 0.410231 0.939266 0.50545
12 1 0.533476 0.947878 0.499537
39 1 0.698227 0.974754 0.500418
62 1 0.769312 0.92778 0.500663
66 1 0.838477 0.933143 0.499774
ITEM: TIMESTEP
1500
ITEM: NUMBER OF ATOMS
62
ITEM: BOX BOUNDS pp pp pp
-4.7989939854781634e+00 4.7989939854781634e+00
-4.8072723452144333e+00 4.8072723452144333e+00
-1.0000000000000001e-01 1.0000000000000001e-01
ITEM: ATOMS id type xs ys zs
3 1 0.0827646 0.109328 0.498977
77 1 0.133698 0.00475857 0.502005
11 1 0.233764 0.0821199 0.500786
38 1 0.361944 0.0448732 0.500434
69 1 0.642434 0.0536776 0.501501
58 1 0.800102 0.0142494 0.503289
60 1 0.851688 0.081216 0.501976
31 1 0.911853 0.993743 0.49702
43 1 0.17082 0.198261 0.500693
33 1 0.27658 0.208163 0.498681
29 1 0.392312 0.169554 0.493704
73 1 0.440177 0.092824 0.501073
20 1 0.55653 0.0987648 0.49773
15 1 0.718085 0.118418 0.505931
64 1 0.842822 0.1642 0.50235
18 1 0.949077 0.15566 0.500129
17 1 0.0535361 0.252792 0.497311
16 1 0.199507 0.318986 0.505458
36 1 0.338393 0.327445 0.497784
28 1 0.494237 0.225274 0.498109
55 1 0.543883 0.325353 0.501887
47 1 0.805268 0.218219 0.495738
46 1 0.883787 0.253497 0.500768
80 1 0.0867057 0.355423 0.504075
56 1 0.438293 0.337858 0.500956
75 1 0.495477 0.395544 0.498003
2 1 0.664175 0.384044 0.505145
13 1 0.807965 0.346906 0.501582
27 1 0.0876465 0.442878 0.500371
72 1 0.147059 0.521629 0.501967
6 1 0.233918 0.464428 0.49821
1 1 0.397417 0.462384 0.499451
19 1 0.555203 0.498151 0.494599
65 1 0.655163 0.50264 0.503598
54 1 0.727876 0.485027 0.502691
5 1 0.853838 0.479648 0.501947
48 1 0.973763 0.486026 0.503621
25 1 0.0612519 0.56641 0.497542
26 1 0.445579 0.581548 0.503219
24 1 0.559189 0.635278 0.498501
45 1 0.669468 0.57631 0.503191
9 1 0.79318 0.61061 0.501571
35 1 0.941618 0.589129 0.49835
4 1 0.684444 0.694642 0.497568
67 1 0.797019 0.734467 0.498043
70 1 0.848572 0.772053 0.499467
74 1 0.850239 0.709067 0.501947
30 1 0.442335 0.830794 0.499654
7 1 0.575069 0.797143 0.503279
71 1 0.641569 0.896507 0.497792
14 1 0.740598 0.836455 0.49962
37 1 0.882661 0.862238 0.502121
23 1 0.0361644 0.983535 0.498886
41 1 0.979348 0.895476 0.499615
52 1 0.0646587 0.880086 0.500376
44 1 0.142697 0.943961 0.504891
8 1 0.270096 0.933413 0.501576
53 1 0.409855 0.938641 0.505987
12 1 0.533189 0.947191 0.499082
39 1 0.697121 0.97557 0.500587
62 1 0.768846 0.928764 0.501175
66 1 0.837948 0.932131 0.502785
ITEM: TIMESTEP
1750
ITEM: NUMBER OF ATOMS
62
ITEM: BOX BOUNDS pp pp pp
-4.7977927366219726e+00 4.7977927366219726e+00
-4.8155092610576533e+00 4.8155092610576533e+00
-1.0000000000000001e-01 1.0000000000000001e-01
ITEM: ATOMS id type xs ys zs
3 1 0.08252 0.109488 0.500402
77 1 0.133209 0.0056157 0.500298
11 1 0.233646 0.0827818 0.500494
38 1 0.362772 0.0449411 0.501239
69 1 0.642421 0.0540648 0.498996
58 1 0.800435 0.0142424 0.504029
60 1 0.851001 0.0814909 0.49939
31 1 0.912129 0.995142 0.497131
43 1 0.170406 0.198063 0.501872
33 1 0.276409 0.208883 0.497924
29 1 0.392094 0.1694 0.49492
73 1 0.440549 0.0928721 0.500382
20 1 0.556175 0.0993162 0.497389
15 1 0.717988 0.119191 0.506757
64 1 0.84201 0.16372 0.502173
18 1 0.94871 0.155059 0.500628
17 1 0.0528575 0.25258 0.496503
16 1 0.199011 0.318796 0.505798
36 1 0.337831 0.328522 0.499169
28 1 0.493343 0.226508 0.50098
55 1 0.544926 0.324979 0.502205
47 1 0.805462 0.218712 0.496688
46 1 0.88443 0.253001 0.500588
80 1 0.0856924 0.355531 0.502249
56 1 0.437563 0.338377 0.500814
75 1 0.496398 0.394764 0.499599
2 1 0.664695 0.384331 0.503527
13 1 0.808715 0.347035 0.501605
27 1 0.087537 0.442876 0.500962
72 1 0.147328 0.521247 0.502234
6 1 0.233855 0.462477 0.497213
1 1 0.398068 0.46306 0.499105
19 1 0.555943 0.497637 0.494177
65 1 0.656371 0.502547 0.504823
54 1 0.728563 0.484569 0.503143
5 1 0.854302 0.480631 0.502436
48 1 0.97424 0.485743 0.50239
25 1 0.0617048 0.566117 0.497255
26 1 0.446402 0.582338 0.503741
24 1 0.560432 0.634679 0.496231
45 1 0.670681 0.576 0.504816
9 1 0.794255 0.610893 0.501508
35 1 0.94219 0.588656 0.497273
4 1 0.684746 0.694358 0.496155
67 1 0.796452 0.734869 0.498589
70 1 0.847704 0.772756 0.500368
74 1 0.84979 0.710063 0.501225
30 1 0.441387 0.830891 0.49744
7 1 0.574695 0.798717 0.502588
71 1 0.642037 0.896594 0.499147
14 1 0.740316 0.836696 0.500589
37 1 0.883065 0.862352 0.50288
23 1 0.0361947 0.983347 0.498262
41 1 0.979596 0.895542 0.497406
52 1 0.0652128 0.87981 0.499308
44 1 0.14253 0.944847 0.504339
8 1 0.270159 0.934384 0.502894
53 1 0.408043 0.938203 0.505754
12 1 0.531029 0.94826 0.499029
39 1 0.697303 0.975712 0.500515
62 1 0.769325 0.928746 0.50007
66 1 0.83841 0.932987 0.50529
ITEM: TIMESTEP
2000
ITEM: NUMBER OF ATOMS
62
ITEM: BOX BOUNDS pp pp pp
-4.7965914877657818e+00 4.7965914877657818e+00
-4.8094268801709097e+00 4.8094268801709097e+00
-1.0000000000000001e-01 1.0000000000000001e-01
ITEM: ATOMS id type xs ys zs
3 1 0.082369 0.110933 0.498976
77 1 0.132485 0.00626075 0.499445
11 1 0.233401 0.0830328 0.500636
38 1 0.362289 0.0445684 0.501921
69 1 0.642315 0.0543353 0.498247
58 1 0.799598 0.0146338 0.504473
60 1 0.850899 0.0812826 0.498634
31 1 0.911623 0.994608 0.49774
43 1 0.170309 0.19888 0.501475
33 1 0.276915 0.20891 0.499205
29 1 0.392143 0.168193 0.495108
73 1 0.440822 0.0922225 0.498973
20 1 0.55679 0.0994151 0.49756
15 1 0.717297 0.119694 0.505933
64 1 0.841435 0.163881 0.503883
18 1 0.948161 0.15555 0.50015
17 1 0.0523494 0.253961 0.496729
16 1 0.199971 0.319596 0.506527
36 1 0.33853 0.328363 0.498294
28 1 0.493594 0.225311 0.50081
55 1 0.544131 0.324403 0.500878
47 1 0.805104 0.218784 0.49474
46 1 0.883976 0.253492 0.501008
80 1 0.0866246 0.355325 0.501416
56 1 0.437901 0.337229 0.500627
75 1 0.495472 0.394466 0.500716
2 1 0.66439 0.383557 0.505226
13 1 0.808672 0.347438 0.501058
27 1 0.0883809 0.442765 0.502492
72 1 0.147587 0.521342 0.500642
6 1 0.234273 0.463478 0.496749
1 1 0.397763 0.462695 0.499718
19 1 0.555389 0.497915 0.493465
65 1 0.656113 0.502341 0.503951
54 1 0.728472 0.483811 0.504444
5 1 0.854489 0.479973 0.50135
48 1 0.974181 0.486785 0.501723
25 1 0.0619881 0.566608 0.495311
26 1 0.445694 0.582188 0.504624
24 1 0.560197 0.634907 0.49738
45 1 0.671822 0.575628 0.503679
9 1 0.794193 0.611165 0.502851
35 1 0.942498 0.589345 0.496987
4 1 0.684766 0.694402 0.495879
67 1 0.796954 0.734027 0.498427
70 1 0.847385 0.773203 0.498604
74 1 0.850711 0.710322 0.500017
30 1 0.442452 0.830239 0.495774
7 1 0.574481 0.797543 0.50153
71 1 0.641424 0.896112 0.500085
14 1 0.739482 0.836288 0.501885
37 1 0.882047 0.863461 0.502107
23 1 0.0351006 0.98398 0.497666
41 1 0.979355 0.895398 0.495813
52 1 0.0647677 0.880591 0.497653
44 1 0.142289 0.945556 0.503511
8 1 0.269048 0.934378 0.503608
53 1 0.408628 0.938194 0.50686
12 1 0.532534 0.948262 0.499446
39 1 0.69653 0.974841 0.501589
62 1 0.768517 0.928575 0.500956
66 1 0.837469 0.933309 0.506035
ITEM: TIMESTEP
2250
ITEM: NUMBER OF ATOMS
62
ITEM: BOX BOUNDS pp pp pp
-4.7953902389095910e+00 4.7953902389095910e+00
-4.8110390277810167e+00 4.8110390277810167e+00
-1.0000000000000001e-01 1.0000000000000001e-01
ITEM: ATOMS id type xs ys zs
3 1 0.0813694 0.110237 0.497159
77 1 0.131888 0.00652846 0.500484
11 1 0.232837 0.0822209 0.499602
38 1 0.362144 0.0440913 0.502606
69 1 0.643144 0.0549146 0.500704
58 1 0.799535 0.0150464 0.505743
60 1 0.850558 0.0820347 0.498006
31 1 0.911061 0.994414 0.498823
43 1 0.170419 0.198116 0.500836
33 1 0.276466 0.208372 0.497016
29 1 0.391789 0.168362 0.49541
73 1 0.440594 0.0924162 0.501898
20 1 0.556493 0.0989148 0.497044
15 1 0.718327 0.120475 0.505419
64 1 0.841768 0.164872 0.50374
18 1 0.94794 0.156684 0.497894
17 1 0.0533419 0.253635 0.496201
16 1 0.19959 0.319422 0.505876
36 1 0.338344 0.327546 0.496607
28 1 0.492794 0.225272 0.499806
55 1 0.544312 0.323705 0.50048
47 1 0.805389 0.219567 0.495396
46 1 0.884023 0.254584 0.498829
80 1 0.0861624 0.355959 0.502978
56 1 0.438608 0.336841 0.500089
75 1 0.495819 0.394014 0.499092
2 1 0.664111 0.383824 0.503606
13 1 0.808193 0.347732 0.502025
27 1 0.0877894 0.442979 0.501151
72 1 0.147734 0.520879 0.500612
6 1 0.234619 0.463733 0.496408
1 1 0.397839 0.461713 0.499431
19 1 0.555566 0.497223 0.491554
65 1 0.655707 0.502284 0.504003
54 1 0.728152 0.48483 0.502889
5 1 0.854714 0.480766 0.502668
48 1 0.97519 0.48576 0.501283
25 1 0.0620321 0.566467 0.495928
26 1 0.446301 0.58193 0.505267
24 1 0.560403 0.633763 0.496756
45 1 0.670472 0.575744 0.502622
9 1 0.794144 0.611775 0.503924
35 1 0.94269 0.589846 0.497236
4 1 0.684835 0.694278 0.496885
67 1 0.7978 0.734468 0.497435
70 1 0.848889 0.772343 0.496689
74 1 0.851639 0.709643 0.500959
30 1 0.441597 0.829943 0.497569
7 1 0.574386 0.796966 0.500785
71 1 0.640962 0.895868 0.501234
14 1 0.739674 0.835919 0.500192
37 1 0.881339 0.862779 0.502577
23 1 0.0344448 0.983445 0.497827
41 1 0.978801 0.894486 0.495569
52 1 0.0647226 0.880525 0.498692
44 1 0.142138 0.945861 0.504709
8 1 0.269165 0.933908 0.503389
53 1 0.409164 0.937889 0.507608
12 1 0.53221 0.947156 0.501128
39 1 0.696289 0.975412 0.501309
62 1 0.768066 0.928246 0.500949
66 1 0.837434 0.932953 0.504199
ITEM: TIMESTEP
2500
ITEM: NUMBER OF ATOMS
62
ITEM: BOX BOUNDS pp pp pp
-4.7941889900534003e+00 4.7941889900534003e+00
-4.8121865588942550e+00 4.8121865588942550e+00
-1.0000000000000001e-01 1.0000000000000001e-01
ITEM: ATOMS id type xs ys zs
3 1 0.0809386 0.109071 0.49793
77 1 0.132008 0.00504076 0.499482
11 1 0.233083 0.0820134 0.498352
38 1 0.362842 0.0435071 0.502954
69 1 0.644621 0.0553205 0.502512
58 1 0.798783 0.0162214 0.504245
60 1 0.849668 0.0824934 0.497606
31 1 0.910546 0.995834 0.496664
43 1 0.170233 0.197673 0.502594
33 1 0.276371 0.208029 0.495909
29 1 0.391595 0.168442 0.496364
73 1 0.44077 0.0923016 0.50312
20 1 0.557221 0.0978814 0.497427
15 1 0.717831 0.122714 0.505263
64 1 0.840653 0.16475 0.503662
18 1 0.947309 0.15635 0.499216
17 1 0.0524328 0.252769 0.495636
16 1 0.198764 0.318722 0.506162
36 1 0.337722 0.327305 0.496667
28 1 0.493257 0.22422 0.500693
55 1 0.544063 0.324288 0.500346
47 1 0.806387 0.220936 0.49572
46 1 0.885765 0.255921 0.4992
80 1 0.085424 0.355154 0.503813
56 1 0.437822 0.336919 0.501023
75 1 0.49526 0.394191 0.498241
2 1 0.66411 0.384079 0.503109
13 1 0.809343 0.348873 0.50437
27 1 0.0876226 0.442225 0.501459
72 1 0.147007 0.52107 0.498766
6 1 0.233319 0.463462 0.49626
1 1 0.397357 0.462126 0.497852
19 1 0.555332 0.497463 0.491763
65 1 0.655336 0.502237 0.504888
54 1 0.728052 0.484578 0.504432
5 1 0.854466 0.480757 0.502412
48 1 0.9741 0.486515 0.500754
25 1 0.0619242 0.566796 0.495987
26 1 0.446087 0.581532 0.50576
24 1 0.559362 0.634532 0.495061
45 1 0.670426 0.575496 0.502994
9 1 0.79437 0.610363 0.505176
35 1 0.942617 0.589688 0.497068
4 1 0.684841 0.693475 0.496153
67 1 0.797187 0.733613 0.499005
70 1 0.847995 0.77187 0.49735
74 1 0.850499 0.709172 0.500074
30 1 0.442458 0.829353 0.497246
7 1 0.575355 0.796771 0.502766
71 1 0.64099 0.895903 0.501184
14 1 0.738904 0.83519 0.50023
37 1 0.88117 0.862367 0.502726
23 1 0.0348406 0.982548 0.498572
41 1 0.978199 0.89416 0.495532
52 1 0.0642174 0.880034 0.49747
44 1 0.14175 0.944367 0.505363
8 1 0.26927 0.933601 0.504341
53 1 0.408822 0.936448 0.50725
12 1 0.532432 0.946411 0.501765
39 1 0.696594 0.974915 0.502429
62 1 0.767886 0.927437 0.500516
66 1 0.83738 0.932929 0.503087
ITEM: TIMESTEP
2750
ITEM: NUMBER OF ATOMS
62
ITEM: BOX BOUNDS pp pp pp
-4.7929877411972086e+00 4.7929877411972086e+00
-4.8180723620407342e+00 4.8180723620407342e+00
-1.0000000000000001e-01 1.0000000000000001e-01
ITEM: ATOMS id type xs ys zs
3 1 0.0818196 0.10884 0.496085
77 1 0.131522 0.00496845 0.499318
11 1 0.234178 0.0828504 0.498396
38 1 0.362382 0.0433859 0.503001
69 1 0.643723 0.0546177 0.501941
58 1 0.798606 0.0159397 0.503462
60 1 0.849607 0.0826292 0.498348
31 1 0.910025 0.99534 0.499472
43 1 0.169743 0.197703 0.50191
33 1 0.276104 0.208491 0.495569
29 1 0.39148 0.167967 0.498107
73 1 0.440516 0.0914991 0.502716
20 1 0.556457 0.0978264 0.497148
15 1 0.717234 0.121486 0.506022
64 1 0.84123 0.164938 0.505516
18 1 0.947676 0.155353 0.498945
17 1 0.0527953 0.252481 0.49419
16 1 0.19877 0.318407 0.508354
36 1 0.337727 0.327395 0.496027
28 1 0.493017 0.224094 0.501541
55 1 0.543506 0.323089 0.500748
47 1 0.805161 0.219878 0.497213
46 1 0.884722 0.253981 0.500144
80 1 0.084889 0.35539 0.503202
56 1 0.438367 0.336879 0.500718
75 1 0.496308 0.394186 0.497335
2 1 0.663713 0.382998 0.503086
13 1 0.808687 0.347917 0.502757
27 1 0.0865318 0.443087 0.501748
72 1 0.146997 0.520744 0.496535
6 1 0.23248 0.462349 0.495401
1 1 0.39753 0.461503 0.496213
19 1 0.555406 0.497649 0.493153
65 1 0.655805 0.501799 0.50359
54 1 0.728153 0.483289 0.504348
5 1 0.854475 0.480811 0.500258
48 1 0.974356 0.486281 0.500961
25 1 0.0616909 0.566592 0.495481
26 1 0.444668 0.581355 0.505212
24 1 0.558117 0.635386 0.494641
45 1 0.670003 0.575076 0.502951
9 1 0.793717 0.610784 0.505652
35 1 0.942063 0.589437 0.498129
4 1 0.68342 0.693265 0.49703
67 1 0.797284 0.734541 0.497371
70 1 0.848322 0.772536 0.496895
74 1 0.850665 0.709861 0.498339
30 1 0.442686 0.829127 0.497739
7 1 0.5749 0.796696 0.501954
71 1 0.640713 0.895976 0.501255
14 1 0.738442 0.834784 0.499421
37 1 0.880471 0.863044 0.502542
23 1 0.0341278 0.982965 0.496893
41 1 0.97766 0.89501 0.496824
52 1 0.0629596 0.879704 0.498979
44 1 0.141085 0.944185 0.506241
8 1 0.26795 0.934249 0.501663
53 1 0.40891 0.937142 0.509299
12 1 0.532396 0.946768 0.499719
39 1 0.696166 0.974508 0.502267
62 1 0.767177 0.926987 0.501621
66 1 0.836212 0.93348 0.500912
ITEM: TIMESTEP
3000
ITEM: NUMBER OF ATOMS
62
ITEM: BOX BOUNDS pp pp pp
-4.7917864923410178e+00 4.7917864923410178e+00
-4.8095554489007810e+00 4.8095554489007810e+00
-1.0000000000000001e-01 1.0000000000000001e-01
ITEM: ATOMS id type xs ys zs
3 1 0.0813033 0.109575 0.496949
77 1 0.132022 0.00492009 0.499204
11 1 0.233055 0.0828702 0.495957
38 1 0.361784 0.0438777 0.503384
69 1 0.64232 0.0540916 0.502855
58 1 0.798936 0.0151595 0.503418
60 1 0.849793 0.0818887 0.498855
31 1 0.910492 0.995117 0.503296
43 1 0.16958 0.198098 0.500405
33 1 0.275153 0.208779 0.495671
29 1 0.390447 0.168509 0.497192
73 1 0.439312 0.0924283 0.501688
20 1 0.555383 0.0984251 0.497798
15 1 0.717095 0.120277 0.506057
64 1 0.840432 0.164407 0.506489
18 1 0.947205 0.155773 0.499505
17 1 0.0525009 0.252997 0.494411
16 1 0.198613 0.319525 0.507101
36 1 0.336955 0.328471 0.497328
28 1 0.491949 0.224153 0.501545
55 1 0.542635 0.323473 0.501306
47 1 0.804601 0.219734 0.498505
46 1 0.883726 0.253835 0.500608
80 1 0.0851013 0.355689 0.50237
56 1 0.437578 0.337373 0.498747
75 1 0.495724 0.394516 0.497039
2 1 0.663057 0.382875 0.500907
13 1 0.807849 0.347433 0.501579
27 1 0.088079 0.442726 0.503466
72 1 0.14737 0.521588 0.494314
6 1 0.233992 0.464264 0.495459
1 1 0.397669 0.462221 0.496695
19 1 0.555097 0.497848 0.495068
65 1 0.655277 0.501435 0.502962
54 1 0.727619 0.48375 0.504213
5 1 0.854224 0.480309 0.500424
48 1 0.974038 0.485894 0.50103
25 1 0.0616729 0.566246 0.494436
26 1 0.445211 0.581527 0.504989
24 1 0.557859 0.634804 0.494605
45 1 0.671164 0.574469 0.503443
9 1 0.794115 0.611595 0.504455
35 1 0.941673 0.589128 0.495825
4 1 0.683431 0.693627 0.498081
67 1 0.797103 0.733992 0.497348
70 1 0.847429 0.773498 0.496917
74 1 0.851228 0.710424 0.498436
30 1 0.441181 0.829496 0.498348
7 1 0.573682 0.797218 0.503947
71 1 0.640314 0.896571 0.502625
14 1 0.738037 0.835429 0.500065
37 1 0.87975 0.864385 0.501611
23 1 0.0344558 0.983784 0.497214
41 1 0.976691 0.896437 0.496896
52 1 0.0623131 0.879867 0.499046
44 1 0.140625 0.944017 0.507307
8 1 0.267357 0.934153 0.502626
53 1 0.4084 0.937154 0.509174
12 1 0.53175 0.946896 0.500574
39 1 0.696042 0.975014 0.502614
62 1 0.767079 0.927564 0.502854
66 1 0.835951 0.934309 0.502948
ITEM: TIMESTEP
3250
ITEM: NUMBER OF ATOMS
62
ITEM: BOX BOUNDS pp pp pp
-4.7905852434848271e+00 4.7905852434848271e+00
-4.8161687742653658e+00 4.8161687742653658e+00
-1.0000000000000001e-01 1.0000000000000001e-01
ITEM: ATOMS id type xs ys zs
3 1 0.081043 0.109467 0.496831
77 1 0.132078 0.00521543 0.499888
11 1 0.232691 0.0821376 0.495602
38 1 0.361706 0.0436251 0.503344
69 1 0.642767 0.0545545 0.502644
58 1 0.79866 0.0143428 0.501288
60 1 0.849387 0.0814703 0.498986
31 1 0.9106 0.995394 0.502873
43 1 0.169364 0.198219 0.499375
33 1 0.275812 0.207969 0.496778
29 1 0.390772 0.167843 0.497908
73 1 0.439675 0.092221 0.502745
20 1 0.555971 0.0979454 0.497605
15 1 0.71758 0.119511 0.505573
64 1 0.840576 0.164415 0.505414
18 1 0.947156 0.15643 0.500525
17 1 0.0521646 0.252977 0.496056
16 1 0.198995 0.319423 0.507147
36 1 0.338266 0.326951 0.495196
28 1 0.492127 0.224167 0.500856
55 1 0.541681 0.323595 0.50066
47 1 0.80442 0.219833 0.497949
46 1 0.8834 0.254318 0.500764
80 1 0.0851391 0.35487 0.501884
56 1 0.438707 0.33759 0.499254
75 1 0.495938 0.395085 0.495885
2 1 0.662389 0.382789 0.502341
13 1 0.807473 0.348311 0.501293
27 1 0.0883956 0.441778 0.503052
72 1 0.147569 0.51998 0.494238
6 1 0.234621 0.463429 0.4954
1 1 0.397737 0.46201 0.496124
19 1 0.555142 0.498648 0.495214
65 1 0.655525 0.501579 0.502596
54 1 0.727679 0.482768 0.50433
5 1 0.853911 0.480208 0.500912
48 1 0.974289 0.485013 0.500318
25 1 0.0623525 0.565154 0.495042
26 1 0.445519 0.581368 0.505328
24 1 0.557962 0.636474 0.494001
45 1 0.671632 0.574703 0.503222
9 1 0.794162 0.61079 0.50342
35 1 0.942132 0.58827 0.496996
4 1 0.684246 0.694087 0.497956
67 1 0.79692 0.734045 0.497859
70 1 0.847466 0.773036 0.496298
74 1 0.850661 0.71002 0.498636
30 1 0.440742 0.82939 0.497167
7 1 0.573877 0.797086 0.504086
71 1 0.640181 0.89592 0.502843
14 1 0.737851 0.834898 0.499432
37 1 0.880184 0.864037 0.50343
23 1 0.0343711 0.98385 0.497622
41 1 0.977112 0.896134 0.49637
52 1 0.0629357 0.88085 0.499916
44 1 0.141268 0.944409 0.507492
8 1 0.268393 0.933609 0.502685
53 1 0.406997 0.936782 0.509583
12 1 0.530759 0.946751 0.501176
39 1 0.695475 0.974905 0.501889
62 1 0.766842 0.927234 0.502726
66 1 0.835677 0.934237 0.501189
ITEM: TIMESTEP
3500
ITEM: NUMBER OF ATOMS
62
ITEM: BOX BOUNDS pp pp pp
-4.7893839946286363e+00 4.7893839946286363e+00
-4.8211571749745037e+00 4.8211571749745037e+00
-1.0000000000000001e-01 1.0000000000000001e-01
ITEM: ATOMS id type xs ys zs
3 1 0.0811553 0.109513 0.497655
77 1 0.131666 0.00515367 0.500405
11 1 0.233544 0.0832679 0.493733
38 1 0.361812 0.04283 0.502807
69 1 0.643501 0.0547343 0.501743
58 1 0.797973 0.0147231 0.501794
60 1 0.849046 0.0819251 0.500079
31 1 0.909777 0.995098 0.503074
43 1 0.169938 0.197662 0.499338
33 1 0.275945 0.209031 0.49657
29 1 0.391148 0.167098 0.497159
73 1 0.439795 0.0910476 0.502693
20 1 0.556004 0.0968649 0.497455
15 1 0.717648 0.120471 0.507053
64 1 0.8399 0.164533 0.504002
18 1 0.946892 0.155992 0.499896
17 1 0.0522398 0.252644 0.495722
16 1 0.199442 0.318687 0.507068
36 1 0.338386 0.328395 0.494371
28 1 0.493352 0.22374 0.503069
55 1 0.542237 0.323158 0.50189
47 1 0.804118 0.219875 0.495811
46 1 0.883506 0.254362 0.500618
80 1 0.0859779 0.354455 0.501657
56 1 0.438643 0.338093 0.498054
75 1 0.496222 0.395434 0.495181
2 1 0.662105 0.383274 0.503219
13 1 0.807616 0.348143 0.501739
27 1 0.0880226 0.441728 0.503912
72 1 0.147338 0.520059 0.491765
6 1 0.233975 0.462356 0.494778
1 1 0.397911 0.462442 0.496642
19 1 0.555576 0.49842 0.496997
65 1 0.655904 0.501921 0.502273
54 1 0.727983 0.482202 0.503165
5 1 0.853966 0.480454 0.502851
48 1 0.974187 0.486006 0.501682
25 1 0.0620927 0.565655 0.494813
26 1 0.445722 0.582071 0.50615
24 1 0.559457 0.634928 0.493496
45 1 0.671699 0.574818 0.504194
9 1 0.79505 0.611502 0.506912
35 1 0.942448 0.588839 0.496907
4 1 0.684918 0.693432 0.497322
67 1 0.79793 0.735867 0.498184
70 1 0.849411 0.773051 0.495666
74 1 0.850773 0.710214 0.496528
30 1 0.441721 0.82896 0.498134
7 1 0.574838 0.796233 0.50261
71 1 0.639074 0.896301 0.506049
14 1 0.737291 0.835508 0.49835
37 1 0.880223 0.863975 0.504821
23 1 0.0338706 0.9838 0.497759
41 1 0.977328 0.895821 0.494703
52 1 0.0627019 0.880316 0.501208
44 1 0.139816 0.944349 0.506511
8 1 0.266828 0.934567 0.504053
53 1 0.407185 0.935894 0.509394
12 1 0.530863 0.945792 0.501813
39 1 0.695022 0.974515 0.501997
62 1 0.766388 0.927673 0.504452
66 1 0.835751 0.933973 0.500804
ITEM: TIMESTEP
3750
ITEM: NUMBER OF ATOMS
62
ITEM: BOX BOUNDS pp pp pp
-4.7881827457724455e+00 4.7881827457724455e+00
-4.8213566944076947e+00 4.8213566944076947e+00
-1.0000000000000001e-01 1.0000000000000001e-01
ITEM: ATOMS id type xs ys zs
3 1 0.0814732 0.109711 0.499183
77 1 0.131163 0.00539207 0.500751
11 1 0.233517 0.0832336 0.492105
38 1 0.361978 0.0430569 0.501549
69 1 0.643628 0.0543358 0.501064
58 1 0.79846 0.0152094 0.502201
60 1 0.849003 0.0825008 0.499604
31 1 0.909989 0.99584 0.501396
43 1 0.170293 0.198257 0.497478
33 1 0.27655 0.209285 0.49635
29 1 0.391566 0.167125 0.497119
73 1 0.440427 0.0907326 0.501238
20 1 0.556652 0.0969268 0.496041
15 1 0.717078 0.121027 0.507183
64 1 0.840082 0.165438 0.503684
18 1 0.947191 0.155395 0.501235
17 1 0.0520698 0.252348 0.495135
16 1 0.198948 0.319431 0.50661
36 1 0.337933 0.328601 0.493882
28 1 0.494404 0.222502 0.501684
55 1 0.543129 0.322627 0.500789
47 1 0.804161 0.220144 0.495742
46 1 0.883188 0.253069 0.501071
80 1 0.0850757 0.354238 0.500765
56 1 0.438516 0.338119 0.49779
75 1 0.497101 0.394572 0.497782
2 1 0.663247 0.383196 0.503787
13 1 0.807852 0.347926 0.502008
27 1 0.0876724 0.441672 0.502463
72 1 0.147539 0.519676 0.491066
6 1 0.234547 0.462259 0.495306