LAMMPS (23 Jun 2022 - Update 4)
  using 1 OpenMP thread(s) per MPI task
# Compute elastic constant tensor for a crystal
#
# Written by Aidan Thompson (Sandia, athomps@sandia.gov)
#
#  This script uses the following three include files.
#
#   init.mod      (must be modified for different crystal structures)
# 	       	  Define units, deformation parameters and initial
#		  configuration of the atoms and simulation cell.
#
#
#   potential.mod    (must be modified for different pair styles)
# 		     Define pair style and other attributes
#		     not stored in restart file
#
#
#   displace.mod    (displace.mod should not need to be modified)
# 		    Perform positive and negative box displacements
# 		    in direction ${dir} and size ${up}.
# 		    It uses the resultant changes
#		    in stress to compute one
# 		    row of the elastic stiffness tensor
#
#		    Inputs variables:
#		    	   dir = the Voigt deformation component
#		    		    (1,2,3,4,5,6)
#		    Global constants:
#       	    	   up = the deformation magnitude (strain units)
#       		   cfac = conversion from LAMMPS pressure units to
#               	   output units for elastic constants
#
#
#  To run this on a different system, it should only be necessary to
#  modify the files init.mod and potential.mod. In order to calculate
#  the elastic constants correctly, care must be taken to specify
#  the correct units in init.mod (units, cfac and cunits). It is also
#  important to verify that the minimization of energy w.r.t atom
#  positions in the deformed cell is fully converged.
#  One indication of this is that the elastic constants are insensitive
#  to the choice of the variable ${up} in init.mod. Another is to check
#  the final max and two-norm forces reported in the log file. If you know
#  that minimization is not required, you can set maxiter = 0.0 in
#  init.mod.
#



variable dt equal 0.01
variable strain equal 0.05
variable srate equal 1e-4
variable M equal 1000 # averaging time for properties
variable strainsteps equal ${strain}/${dt}/${srate}
variable strainsteps equal 0.05/${dt}/${srate}
variable strainsteps equal 0.05/0.01/${srate}
variable strainsteps equal 0.05/0.01/0.0001


dimension 2
include init.mod
# NOTE: This script can be modified for different atomic structures,
# units, etc. See in.elastic for more info.
#

# Define the finite deformation size. Try several values of this
# variable to verify that results do not depend on it.
variable up equal 1.0e-1

# Define the amount of random jiggle for atoms
# This prevents atoms from staying on saddle points
variable atomjiggle equal 1.0e-6

# Uncomment one of these blocks, depending on what units
# you are using in LAMMPS and for output

# metal units, elastic constants in eV/A^3
#units		metal
#variable cfac equal 6.2414e-7
#variable cunits string eV/A^3

# Choose potential
# metal units, elastic constants in GPa
units		metal
atom_style	full
#pair_style      lj/cut 1.0
#pair_style      yukawa 1.0 2.0
#pair_modify     mix arithmetic
bond_style      harmonic
angle_style     harmonic
dihedral_style  zero
special_bonds   amber
variable cfac equal 1.0e-4
variable cunits string GPa
boundary	p p p

# Need to set mass to something, just to satisfy LAMMPS
#mass 1 1.0e-20
read_data network.lmp
Reading data file ...
  orthogonal box = (-4.804996 -4.804996 -0.1) to (4.804996 4.804996 0.1)
  1 by 1 by 1 MPI processor grid
WARNING: Atom style in data file differs from currently defined atom style (src/read_data.cpp:538)
  reading atoms ...
  62 atoms
WARNING: Bond style in data file differs from currently defined bond style (src/read_data.cpp:630)
  scanning bonds ...
  6 = max bonds/atom
  reading bonds ...
  140 bonds
Finding 1-2 1-3 1-4 neighbors ...
  special bond factors lj:    0        0        0.5     
  special bond factors coul:  0        0        0.8333333333333334
     9 = max # of 1-2 neighbors
    41 = max # of 1-3 neighbors
   232 = max # of 1-4 neighbors
    32 = max # of special neighbors
  special bonds CPU = 0.000 seconds
  read_data CPU = 0.003 seconds

# real units, elastic constants in GPa
#units		real
#variable cfac equal 1.01325e-4
#variable cunits string GPa

# Define minimization parameters
variable etol equal 0.0
variable ftol equal 5.0e-10
variable maxiter equal 100000
variable maxeval equal 20000
variable dmax equal 1.0e-2


include potential.mod
# NOTE: This script can be modified for different pair styles
# See in.elastic for more info.

# Setup neighbor style
neighbor 3.0 nsq
neigh_modify once no every 1 delay 0 check yes
comm_modify cutoff 2.0

# Setup minimization style
min_style	     cg
min_modify	     dmax ${dmax} line quadratic
min_modify	     dmax 0.01 line quadratic

timestep	0.001


# Setup output
thermo		500
thermo_style custom step temp pe ebond eangle edihed press pxx pyy pzz pxy pxz pyz lx ly lz vol
thermo_modify norm no


#change_box all triclinic
comm_modify mode single cutoff 10.0 vel yes
atom_modify sort 0 0



# Compute initial state

#dump rela all atom 1 traj_relax.lmpstrj
fix 3 all box/relax x 0 y 0 # xy 0  #MS comment: relax if the network is periodic
minimize ${etol} ${ftol} ${maxiter} ${maxeval}
minimize 0 ${ftol} ${maxiter} ${maxeval}
minimize 0 5e-10 ${maxiter} ${maxeval}
minimize 0 5e-10 100000 ${maxeval}
minimize 0 5e-10 100000 20000
Neighbor list info ...
  update every 1 steps, delay 0 steps, check yes
  max neighbors/atom: 2000, page size: 100000
  master list distance cutoff = 0
  ghost atom cutoff = 10
  0 neighbor lists, perpetual/occasional/extra = 0 0 0
WARNING: Inconsistent image flags (src/domain.cpp:819)
Per MPI rank memory allocation (min/avg/max) = 9.093 | 9.093 | 9.093 Mbytes
   Step          Temp          PotEng         E_bond        E_angle        E_dihed         Press           Pxx            Pyy            Pzz            Pxy            Pxz            Pyz             Lx             Ly             Lz           Volume    
         0   0              3.9543579e-11  3.9543579e-11  0              0             -0.10385784    -0.10285463    -0.10486105     0             -0.0099997388   0              0              9.609992       9.609992       0.2            92.351946    
       251   0              1.0689449e-13  1.0689449e-13  0              0             -2.7397202e-07  5.0699747e-07 -1.0549415e-06  0              4.2974178e-06  0              0              9.6099908      9.6099949      0.2            92.351963    
Loop time of 0.0146125 on 1 procs for 251 steps with 62 atoms

100.0% CPU use with 1 MPI tasks x 1 OpenMP threads

Minimization stats:
  Stopping criterion = force tolerance
  Energy initial, next-to-last, final = 
    3.95435786215644e-11 1.06894525423181e-13 1.06894494802276e-13
  Force two-norm initial, final = 2.9361557e-05 4.7122878e-10
  Force max component initial, final = 1.1140414e-05 1.3087951e-10
  Final line search alpha, max atom move = 1 1.3087951e-10
  Iterations, force evaluations = 251 502

MPI task timing breakdown:
Section |  min time  |  avg time  |  max time  |%varavg| %total
---------------------------------------------------------------
Pair    | 0          | 0          | 0          |   0.0 |  0.00
Bond    | 0.0020958  | 0.0020958  | 0.0020958  |   0.0 | 14.34
Neigh   | 0          | 0          | 0          |   0.0 |  0.00
Comm    | 0.0043629  | 0.0043629  | 0.0043629  |   0.0 | 29.86
Output  | 0          | 0          | 0          |   0.0 |  0.00
Modify  | 0          | 0          | 0          |   0.0 |  0.00
Other   |            | 0.008154   |            |       | 55.80

Nlocal:             62 ave          62 max          62 min
Histogram: 1 0 0 0 0 0 0 0 0 0
Nghost:            521 ave         521 max         521 min
Histogram: 1 0 0 0 0 0 0 0 0 0
Neighs:              0 ave           0 max           0 min
Histogram: 1 0 0 0 0 0 0 0 0 0

Total # of neighbors = 0
Ave neighs/atom = 0
Ave special neighs/atom = 24.032258
Neighbor list builds = 0
Dangerous builds = 0
#dump rela all atom 1 traj_relax.lmpstrj
thermo 100
unfix 3

fix 2d all enforce2d



#dump dump0 all xyz 1000000 cfg0.xyz
#dump_modify dump0 format line "%d %20.10g %20.10g %20.10g"
#minimize ${etol} ${ftol} ${maxiter} ${maxeval}

#undump rela

#write_restart restart.equil

# These formulas define the derivatives w.r.t. strain components
# Constants uses $, variables use v_


timestep        ${dt}
timestep        0.01
variable nsteps equal round(${strainsteps})
variable nsteps equal round(50000)

fix             4 all nve
fix             5 all langevin 0.1 0.1 1 904297
#fix		6 all press/berendsen y  0.0 0.0 1 x 0.0 0.0 10
fix             6 all nph y 0.0 0.0 10 ptemp 0.1 # x 0.0 0.0 10

# For PLUMED2
# fix 22 all plumed plumedfile plumed.dat outfile plumed.out

#fix             6 all nph x 0.0 0.0 10
fix     	9 all deform 1 x erate -${srate} units box remap x
fix     	9 all deform 1 x erate -0.0001 units box remap x

#fix     8 all deform 1 xy erate ${srate} units box remap x



#fix    10 all ave/time

dump 1 all atom 250 deform_dump.lammpstrj


#To avoid flying ice cube phenomenon:
#fix 21 all momentum 100 linear 1 1 1 angular


run  ${nsteps}
run  50000
WARNING: One or more atoms are time integrated more than once (src/modify.cpp:292)
WARNING: Inconsistent image flags (src/domain.cpp:819)
Per MPI rank memory allocation (min/avg/max) = 7.968 | 7.968 | 7.968 Mbytes
   Step          Temp          PotEng         E_bond        E_angle        E_dihed         Press           Pxx            Pyy            Pzz            Pxy            Pxz            Pyz             Lx             Ly             Lz           Volume    
       251   0              1.0689449e-13  1.0689449e-13  0              0             -2.7397202e-07  5.0699747e-07 -1.0549415e-06  0              4.2974178e-06  0              0              9.6099908      9.6099949      0.2            92.351963    
       300   0.1006291      0.00037312823  0.00037312823  0              0              106.28263      128.24791      84.130129      0              12.200288      0              0              9.60952        9.610839       0.2            92.35555     
       400   0.21612385     0.00094197997  0.00094197997  0              0             -120.49786     -358.98454      117.78104      0             -228.74325      0              0              9.608559       9.6188712      0.2            92.423491    
       500   0.19832312     0.0010319861   0.0010319861   0              0              68.064192      43.16907       92.811754      0              5.7592016      0              0              9.607598       9.6184646      0.2            92.410341    
       600   0.18921655     0.001171218    0.001171218    0              0              139.09163      141.11281      136.86666      0              106.96797      0              0              9.606637       9.6118463      0.2            92.337518    
       700   0.21543439     0.0011483996   0.0011483996   0              0              729.15666      1312.9672      145.17346      0             -422.29201      0              0              9.605676       9.6101102      0.2            92.311605    
       800   0.21834486     0.00093004298  0.00093004298  0              0              244.48226      318.55802      170.224        0             -294.64206      0              0              9.604715       9.6153759      0.2            92.352945    
       900   0.19635841     0.0011033      0.0011033      0              0             -189.30158     -421.7998       43.035858      0             -604.88313      0              0              9.603754       9.6185594      0.2            92.374278    
      1000   0.20598002     0.0011979585   0.0011979585   0              0              388.18512      692.15668      84.037409      0             -785.74738      0              0              9.602793       9.6208375      0.2            92.386911    
      1100   0.22514932     0.00083556444  0.00083556444  0              0              84.05993       178.70535     -10.783016      0             -23.13667       0              0              9.601832       9.6163833      0.2            92.334897    
      1200   0.19954865     0.0010484109   0.0010484109   0              0             -228.48609     -536.17742      79.012976      0             -162.6948       0              0              9.600871       9.6177328      0.2            92.338611    
      1300   0.15937124     0.0011047175   0.0011047175   0              0              266.44401      383.72898      148.96674      0             -672.07399      0              0              9.59991        9.6170541      0.2            92.322853    
      1400   0.2152056      0.00075891905  0.00075891905  0              0              616.17843      1103.18        128.98836      0             -625.59955      0              0              9.598949       9.6222576      0.2            92.36356     
      1500   0.22669299     0.0007786194   0.0007786194   0              0              677.83718      1222.7459      132.76145      0             -676.76055      0              0              9.597988       9.6145447      0.2            92.280284    
      1600   0.23077875     0.0010762642   0.0010762642   0              0              481.97123      825.29407      138.43754      0             -693.55566      0              0              9.597027       9.6209745      0.2            92.332752    
      1700   0.18374257     0.0012246253   0.0012246253   0              0              326.58771      351.47802      301.51758      0             -637.92791      0              0              9.596066       9.6221998      0.2            92.335264    
      1800   0.19883251     0.001304148    0.001304148    0              0              391.00739      500.47383      281.32984      0             -147.75163      0              0              9.595105       9.6277793      0.2            92.379553    
      1900   0.18173621     0.0012151001   0.0012151001   0              0              666.95189      1077.3397      256.38973      0             -10.772627      0              0              9.594144       9.6244846      0.2            92.338691    
      2000   0.2083828      0.0012548562   0.0012548562   0              0              824.41141      1455.9107      192.70091      0             -216.47903      0              0              9.593183       9.6188538      0.2            92.275424    
      2100   0.23896862     0.0011799003   0.0011799003   0              0             -38.619876     -220.66193      143.24029      0             -787.48067      0              0              9.592222       9.6259948      0.2            92.334679    
      2200   0.18877038     0.00088262982  0.00088262982  0              0              737.16471      1152.2419      321.88612      0             -167.70823      0              0              9.591261       9.6195574      0.2            92.263685    
      2300   0.24751635     0.00094627104  0.00094627104  0              0              747.59948      1085.6923      409.33883      0             -291.89269      0              0              9.5903         9.6238896      0.2            92.295988    
      2400   0.14965264     0.00098322194  0.00098322194  0              0              436.87803      504.24966      369.33358      0              214.44818      0              0              9.589339       9.6282211      0.2            92.328276    
      2500   0.21195108     0.0011115857   0.0011115857   0              0              263.68405      183.0308       344.147        0             -262.54232      0              0              9.588378       9.6243731      0.2            92.282127    
      2600   0.19954415     0.0010674677   0.0010674677   0              0              923.62322      1352.1493      494.90887      0              495.05333      0              0              9.587417       9.6246166      0.2            92.275213    
      2700   0.20512333     0.0010818631   0.0010818631   0              0              124.73475     -351.92178      601.20872      0              399.01857      0              0              9.586456       9.6350679      0.2            92.366154    
      2800   0.23054938     0.00093447033  0.00093447033  0              0              646.81436      668.50274      624.94802      0              266.60426      0              0              9.585495       9.6196333      0.2            92.208947    
      2900   0.20723477     0.001005082    0.001005082    0              0              1151.1722      1648.8735      653.2918       0              58.484977      0              0              9.584534       9.6253912      0.2            92.254889    
      3000   0.18725131     0.0010071986   0.0010071986   0              0              1593.1722      2468.204       717.95877      0             -611.29635      0              0              9.583573       9.6191109      0.2            92.185451    
      3100   0.18588009     0.00097331053  0.00097331053  0              0              1064.4766      1460.4817      668.30133      0             -395.72776      0              0              9.582612       9.619421       0.2            92.179179    
      3200   0.25248566     0.00089142932  0.00089142932  0              0              1445.2589      2198.5714      691.81079      0             -22.342272      0              0              9.581651       9.6196493      0.2            92.172122    
      3300   0.25802355     0.0010450785   0.0010450785   0              0              934.01017      1090.2465      777.56041      0             -112.69954      0              0              9.58069        9.6236436      0.2            92.201146    
      3400   0.2044077      0.0012114794   0.0012114794   0              0              1035.7603      1241.9937      829.33749      0             -7.7186451      0              0              9.579729       9.6287448      0.2            92.240765    
      3500   0.1904016      0.00090928108  0.00090928108  0              0              1141.9674      1536.3834      747.39643      0             -97.688431      0              0              9.578768       9.6423143      0.2            92.361492    
      3600   0.20988759     0.0013376459   0.0013376459   0              0              1061.4833      1412.582       710.23858      0              470.81859      0              0              9.577807       9.6391653      0.2            92.322065    
      3700   0.22687783     0.0014097152   0.0014097152   0              0              725.43156      778.90668      671.77156      0             -353.73292      0              0              9.576846       9.6384549      0.2            92.305998    
      3800   0.16906192     0.0011328912   0.0011328912   0              0              1483.3229      2392.223       574.21022      0              569.54584      0              0              9.575885       9.6349453      0.2            92.263128    
      3900   0.20806709     0.0012301931   0.0012301931   0              0              1091.2274      1804.1606      378.14069      0              473.55708      0              0              9.574924       9.6321116      0.2            92.226737    
      4000   0.21648839     0.0011690725   0.0011690725   0              0              828.02978      1313.6009      342.28132      0             -226.2021       0              0              9.573963       9.62879        0.2            92.185679    
      4100   0.20618011     0.0013888083   0.0013888083   0              0              743.30601      1114.9635      371.43629      0             -233.75716      0              0              9.573002       9.6266299      0.2            92.155748    
      4200   0.20540009     0.0011587086   0.0011587086   0              0              988.70958      1612.0298      365.20132      0             -284.17007      0              0              9.572041       9.6271657      0.2            92.151625    
      4300   0.20753439     0.0010158682   0.0010158682   0              0              340.71295      356.43667      324.84596      0             -90.59731       0              0              9.57108        9.6319851      0.2            92.1885      
      4400   0.15687985     0.0009889625   0.0009889625   0              0              688.54097      1134.5871      242.31172      0              30.013125      0              0              9.570119       9.6370944      0.2            92.228141    
      4500   0.22058921     0.0013136258   0.0013136258   0              0              491.17771      836.98672      145.19282      0              470.1428       0              0              9.569158       9.6403074      0.2            92.249625    
      4600   0.21746539     0.0010101959   0.0010101959   0              0              454.74985      796.77635      112.51854      0              122.05126      0              0              9.568197       9.6338479      0.2            92.178555    
      4700   0.21333914     0.0011592317   0.0011592317   0              0              1088.9639      2081.3702      96.357974      0              206.85863      0              0              9.567236       9.6288318      0.2            92.121307    
      4800   0.21669209     0.001291296    0.001291296    0              0              518.07001      1009.6556      26.329466      0              657.1224       0              0              9.566275       9.6268802      0.2            92.093384    
      4900   0.17827765     0.001155946    0.001155946    0              0              419.61301      988.77166     -149.72738      0             -9.1302132      0              0              9.565314       9.6266533      0.2            92.081962    
      5000   0.21072141     0.0011403345   0.0011403345   0              0              1032.5663      2295.9563     -231.01702      0              186.74024      0              0              9.564353       9.6256488      0.2            92.063103    
      5100   0.23326381     0.0011843733   0.0011843733   0              0              1069.2825      2419.6861     -281.29956      0             -80.608062      0              0              9.563392       9.6334884      0.2            92.128826    
      5200   0.23697302     0.0011120968   0.0011120968   0              0              206.87315      826.51877     -412.96769      0              488.11032      0              0              9.562431       9.6378962      0.2            92.161717    
      5300   0.20722021     0.0011455344   0.0011455344   0              0              289.79426      985.2624      -405.85904      0              88.325362      0              0              9.56147        9.6351043      0.2            92.125761    
      5400   0.18519931     0.0012973259   0.0012973259   0              0              309.69664      1205.1462     -585.93721      0              469.0533       0              0              9.560509       9.6446049      0.2            92.207332    
      5500   0.21238164     0.0012600245   0.0012600245   0              0              155.39577      1119.076      -808.50113      0              338.77835      0              0              9.559548       9.6536143      0.2            92.284189    
      5600   0.21411371     0.0014840229   0.0014840229   0              0              623.30022      2111.225      -864.77561      0              361.60288      0              0              9.558587       9.6433512      0.2            92.176812    
      5700   0.21730391     0.0012949425   0.0012949425   0              0              310.78769      1659.9977     -1038.6184      0              435.17662      0              0              9.557626       9.6521899      0.2            92.252021    
      5800   0.25840551     0.0012159015   0.0012159015   0              0              499.74675      2148.2945     -1148.9666      0              111.48423      0              0              9.556665       9.6518905      0.2            92.239884    
      5900   0.19214925     0.0012687533   0.0012687533   0              0              125.58891      1612.9805     -1361.9601      0              640.43369      0              0              9.555704       9.662336       0.2            92.330423    
      6000   0.27279228     0.0015606777   0.0015606777   0              0              498.81161      2437.69       -1440.2264      0              591.55414      0              0              9.554743       9.6665198      0.2            92.361112    
      6100   0.19899412     0.0015165263   0.0015165263   0              0              70.452405      1607.0557     -1466.3402      0              374.36895      0              0              9.553782       9.6574922      0.2            92.265575    
      6200   0.19861759     0.00152584     0.00152584     0              0              214.86547      1919.6027     -1490.0615      0             -360.5635       0              0              9.552821       9.6603458      0.2            92.283554    
      6300   0.21960487     0.0013852593   0.0013852593   0              0              55.606987      1501.5319     -1390.4669      0             -159.65318      0              0              9.55186        9.662397       0.2            92.293864    
      6400   0.23794243     0.0013768667   0.0013768667   0              0              621.89504      2423.1924     -1179.6282      0              274.76216      0              0              9.550899       9.6575269      0.2            92.238064    
      6500   0.17216299     0.0013164697   0.0013164697   0              0             -118.17156      767.09944     -1003.6513      0             -76.45292       0              0              9.549938       9.6597944      0.2            92.250438    
      6600   0.23547599     0.0011527676   0.0011527676   0              0              694.00661      2176.4395     -788.59607      0              482.83672      0              0              9.548977       9.6533119      0.2            92.179253    
      6700   0.17337444     0.0011483835   0.0011483835   0              0              814.05203      2112.4082     -484.47966      0             -124.19143      0              0              9.548016       9.6529497      0.2            92.166519    
      6800   0.21840803     0.0013364154   0.0013364154   0              0              1090.2458      2465.308      -284.9944       0              23.062035      0              0              9.547055       9.6606419      0.2            92.23068     
      6900   0.19727034     0.0012619504   0.0012619504   0              0              1073.5776      2204.9484     -57.967215      0              106.34366      0              0              9.546094       9.6609699      0.2            92.224527    
      7000   0.20005211     0.0015402222   0.0015402222   0              0              905.08997      1646.1497      163.83641      0              842.7088       0              0              9.545133       9.6583334      0.2            92.190077    
      7100   0.20552081     0.0013271588   0.0013271588   0              0              1235.346       2226.0136      244.4777       0              48.773533      0              0              9.544172       9.6554104      0.2            92.152897    
      7200   0.22618682     0.0013612539   0.0013612539   0              0              1178.7245      2046.6125      310.60285      0              486.81237      0              0              9.543211       9.6565162      0.2            92.154172    
      7300   0.17942238     0.0012441553   0.0012441553   0              0              681.33922      955.85988      406.64425      0             -231.37512      0              0              9.54225        9.6570843      0.2            92.150313    
      7400   0.17959321     0.0011923445   0.0011923445   0              0              1273.5373      1978.5926      568.32766      0              497.88684      0              0              9.541289       9.6492995      0.2            92.066755    
      7500   0.15012456     0.0012991148   0.0012991148   0              0              1628.6072      2537.3697      719.65509      0              511.59526      0              0              9.540328       9.6515454      0.2            92.078909    
      7600   0.1952825      0.0013355799   0.0013355799   0              0              2171.8954      3517.8739      825.71631      0              179.03942      0              0              9.539367       9.6505471      0.2            92.06011     
      7700   0.17813726     0.0016717344   0.0016717344   0              0              1770.9171      2734.5333      807.13012      0             -324.81911      0              0              9.538406       9.6530088      0.2            92.074317    
      7800   0.20570683     0.0017376804   0.0017376804   0              0              1238.805       1815.5509      661.82438      0             -29.638975      0              0              9.537445       9.6527694      0.2            92.062757    
      7900   0.21713246     0.0013629522   0.0013629522   0              0              1470.4976      2489.97        450.80252      0              312.90503      0              0              9.536484       9.6665421      0.2            92.184824    
      8000   0.22354098     0.0015990835   0.0015990835   0              0              1307.3222      2171.6135      442.80844      0              589.06163      0              0              9.535523       9.6610318      0.2            92.122991    
      8100   0.22229329     0.0014345845   0.0014345845   0              0              499.2199       744.24761      253.99707      0              72.937634      0              0              9.534562       9.6579676      0.2            92.084491    
      8200   0.19837113     0.0014037203   0.0014037203   0              0              1154.6406      2139.8724      169.1965       0              51.473587      0              0              9.533601       9.6526995      0.2            92.024986    
      8300   0.19562388     0.0015021338   0.0015021338   0              0              490.37209      1027.2074     -46.655946      0             -204.33381      0              0              9.53264        9.6554421      0.2            92.041854    
      8400   0.15667593     0.0015866416   0.0015866416   0              0              278.02356      758.36802     -202.50688      0              294.16257      0              0              9.531679       9.658634       0.2            92.063       
      8500   0.19114518     0.001266587    0.001266587    0              0              636.55609      1726.0773     -453.14313      0             -549.45374      0              0              9.530718       9.6648338      0.2            92.112806    
      8600   0.15459136     0.0013914703   0.0013914703   0              0              719.48161      2078.6563     -639.89712      0             -318.51796      0              0              9.529757       9.6604295      0.2            92.061546    
      8700   0.1949997      0.0014675867   0.0014675867   0              0              337.599        1334.1299     -659.10287      0              275.55495      0              0              9.528796       9.6674423      0.2            92.119086    
      8800   0.19864832     0.0013756286   0.0013756286   0              0              724.39742      2123.8554     -675.25242      0              427.37772      0              0              9.527835       9.66588        0.2            92.09491     
      8900   0.21232845     0.0014630135   0.0014630135   0              0              919.51577      2397.5298     -558.70371      0              1.2385316      0              0              9.526874       9.6673424      0.2            92.099554    
      9000   0.24370005     0.0015747382   0.0015747382   0              0              1166.0149      2685.1432     -353.33069      0             -211.43409      0              0              9.525913       9.6698797      0.2            92.114433    
      9100   0.17505344     0.0014052675   0.0014052675   0              0              452.96884      1184.8454     -279.09011      0             -943.64089      0              0              9.524952       9.6799887      0.2            92.201428    
      9200   0.21358291     0.0014282153   0.0014282153   0              0              1004.8625      2107.9496     -98.420505      0             -196.40794      0              0              9.523991       9.6861403      0.2            92.250714    
      9300   0.19002638     0.0013642709   0.0013642709   0              0              975.75379      1900.2573      51.063787      0              72.107948      0              0              9.52303        9.6857551      0.2            92.237737    
      9400   0.16671171     0.0016010403   0.0016010403   0              0              1060.8609      1930.3169      191.22121      0              549.31357      0              0              9.522069       9.6802271      0.2            92.17579     
      9500   0.1944084      0.0015699371   0.0015699371   0              0              1164.1384      2068.5019      259.60427      0             -231.27019      0              0              9.521108       9.6914987      0.2            92.273807    
      9600   0.18604347     0.0015836339   0.0015836339   0              0              1967.6622      3574.8369      360.31667      0              273.30765      0              0              9.520147       9.6868953      0.2            92.220668    
      9700   0.23057767     0.0014631119   0.0014631119   0              0              1101.3766      1703.7559      498.8097       0              44.474907      0              0              9.519186       9.6921016      0.2            92.260918    
      9800   0.24777971     0.0015052561   0.0015052561   0              0              1127.6104      1625.4504      629.59985      0              291.44082      0              0              9.518225       9.6828036      0.2            92.163104    
      9900   0.23839106     0.0015093381   0.0015093381   0              0              905.83721      1255.7996      555.6616       0              460.84291      0              0              9.517264       9.6931206      0.2            92.251988    
     10000   0.20263682     0.0015633756   0.0015633756   0              0              1010.9632      1698.5981      323.17633      0              373.71167      0              0              9.516303       9.681212       0.2            92.129347    
     10100   0.2086757      0.0016411418   0.0016411418   0              0              1074.803       2096.3175      53.104898      0              58.572239      0              0              9.515342       9.6807873      0.2            92.116002    
     10200   0.17574255     0.0013075254   0.0013075254   0              0              745.91745      1586.8373     -95.198724      0              95.698727      0              0              9.5143811      9.6792321      0.2            92.091903    
     10300   0.17551057     0.001340816    0.001340816    0              0              428.69443      1181.5228     -324.28521      0              360.60251      0              0              9.5134201      9.6792461      0.2            92.082734    
     10400   0.18937175     0.0012616885   0.0012616885   0              0              377.02076      1352.5596     -598.6792       0             -81.025593      0              0              9.5124591      9.6926823      0.2            92.201243    
     10500   0.22783613     0.0014487476   0.0014487476   0              0              482.84814      1709.3017     -743.7868       0              581.83288      0              0              9.5114981      9.7004645      0.2            92.265949    
     10600   0.19353206     0.0015575448   0.0015575448   0              0              481.71978      1807.1796     -843.9275       0             -146.55912      0              0              9.5105371      9.697437       0.2            92.227834    
     10700   0.16453802     0.0013691978   0.0013691978   0              0              853.78259      2262.5444     -555.15684      0             -630.01996      0              0              9.5095761      9.6969581      0.2            92.21396     
     10800   0.2067708      0.0016455553   0.0016455553   0              0              1063.6044      2330.7791     -203.75146      0             -747.73296      0              0              9.5086151      9.6875016      0.2            92.114723    
     10900   0.17591313     0.0012918253   0.0012918253   0              0              1400.0285      2506.5909      293.27548      0              156.98682      0              0              9.5076541      9.6871035      0.2            92.101629    
     11000   0.22502995     0.0013762203   0.0013762203   0              0              1777.3367      2694.0191      860.50234      0              69.271507      0              0              9.5066931      9.6861249      0.2            92.083016    
     11100   0.15616996     0.001637269    0.001637269    0              0              2326.7319      3375.7203      1277.5424      0              252.52881      0              0              9.5057321      9.6787088      0.2            92.003212    
     11200   0.15683793     0.0014120324   0.0014120324   0              0              2214.9586      2986.4679      1443.2732      0              72.367609      0              0              9.5047711      9.689078       0.2            92.092468    
     11300   0.20979739     0.001470783    0.001470783    0              0              1884.7067      2346.793       1422.4347      0              477.21115      0              0              9.5038101      9.6863947      0.2            92.057655    
     11400   0.19769958     0.0015389293   0.0015389293   0              0              1702.0845      2485.3938      918.58692      0             -556.13036      0              0              9.5028491      9.6869789      0.2            92.053899    
     11500   0.18247871     0.0015423706   0.0015423706   0              0              818.07938      1470.18        165.76523      0              243.56879      0              0              9.5018881      9.6966887      0.2            92.13685     
     11600   0.19135004     0.001535483    0.001535483    0              0              596.6565       1836.9925     -643.81863      0             -339.13751      0              0              9.5009271      9.7054937      0.2            92.211188    
     11700   0.16658044     0.0018027454   0.0018027454   0              0              261.69162      1839.3659     -1316.1757      0              106.74963      0              0              9.4999661      9.7168558      0.2            92.3098      
     11800   0.21245264     0.0014661264   0.0014661264   0              0             -415.20031      842.56633     -1673.1659      0              214.88791      0              0              9.4990051      9.7080165      0.2            92.216498    
     11900   0.20680221     0.0017300743   0.0017300743   0              0             -93.444453      1249.9283     -1436.973       0              289.99138      0              0              9.4980441      9.7061655      0.2            92.189588    
     12000   0.19402434     0.0015413972   0.0015413972   0              0              742.03684      2370.3097     -886.40978      0             -510.88269      0              0              9.4970831      9.7041454      0.2            92.161075    
     12100   0.18328204     0.0015273358   0.0015273358   0              0              909.20534      2030.2955     -212.09846      0              698.48081      0              0              9.4961221      9.7086465      0.2            92.194493    
     12200   0.23274865     0.0013797337   0.0013797337   0              0              1135.9447      1950.8904      320.80559      0              417.87852      0              0              9.4951611      9.7067061      0.2            92.166738    
     12300   0.21343463     0.0016480707   0.0016480707   0              0              1779.9031      2800.9051      758.71932      0              58.444667      0              0              9.4942001      9.7026702      0.2            92.119092    
     12400   0.25173262     0.0015685563   0.0015685563   0              0              1540.0941      2046.9232      1033.0796      0             -56.529371      0              0              9.4932391      9.7012072      0.2            92.095879    
     12500   0.20245185     0.0016377575   0.0016377575   0              0              1069.5076      1146.5948      992.24609      0              172.90828      0              0              9.4922781      9.6985249      0.2            92.061096    
     12600   0.18916202     0.0015498852   0.0015498852   0              0              1479.9561      2348.7864      610.97106      0             -254.43488      0              0              9.4913171      9.6992929      0.2            92.059064    
     12700   0.17929121     0.0015263015   0.0015263015   0              0              1656.6954      2974.2655      338.91286      0             -94.049996      0              0              9.4903561      9.6997389      0.2            92.053976    
     12800   0.21363065     0.0015553116   0.0015553116   0              0              490.72767      1175.0761     -193.81648      0             -113.11547      0              0              9.4893951      9.7050263      0.2            92.094829    
     12900   0.22613145     0.001654825    0.001654825    0              0              511.51063      1837.7044     -814.84944      0              107.4078       0              0              9.4884341      9.6990206      0.2            92.028518    
     13000   0.21191707     0.00177354     0.00177354     0              0              604.30969      2129.3215     -920.87581      0              153.24416      0              0              9.4874731      9.7059654      0.2            92.085086    
     13100   0.22244237     0.0016556615   0.0016556615   0              0              668.32101      2112.2762     -775.83201      0              332.2827       0              0              9.4865121      9.6997781      0.2            92.017062    
     13200   0.1921383      0.0017867257   0.0017867257   0              0              1048.9058      2517.8667     -420.23268      0             -264.51544      0              0              9.4855511      9.7025057      0.2            92.033614    
     13300   0.17875386     0.0016731471   0.0016731471   0              0              1420.4583      2807.4934      33.244529      0              585.75077      0              0              9.4845901      9.7037258      0.2            92.035861    
     13400   0.16136252     0.0016198511   0.0016198511   0              0              1360.9925      2360.3014      361.51825      0              70.434212      0              0              9.4836291      9.7048427      0.2            92.037128    
     13500   0.21080542     0.0015597504   0.0015597504   0              0              1377.3621      2149.7359      604.81347      0              259.88772      0              0              9.4826681      9.6991727      0.2            91.974036    
     13600   0.20344681     0.001546794    0.001546794    0              0              1234.3185      1868.7371      599.69396      0             -44.507507      0              0              9.4817071      9.6962362      0.2            91.936871    
     13700   0.18219762     0.0015927433   0.0015927433   0              0              1593.4781      2675.3513      511.41927      0             -390.43397      0              0              9.4807461      9.6964356      0.2            91.929444    
     13800   0.2096027      0.0014672256   0.0014672256   0              0              969.66463      1617.2989      321.86318      0             -296.29075      0              0              9.4797851      9.7089924      0.2            92.039161    
     13900   0.21400773     0.0016726162   0.0016726162   0              0              1051.9657      2057.0667      46.678007      0              170.91349      0              0              9.4788241      9.7112527      0.2            92.051256    
     14000   0.21519005     0.0016773265   0.0016773265   0              0              1217.9702      2576.6854     -140.92852      0              312.99418      0              0              9.4778631      9.7109804      0.2            92.039343    
     14100   0.2486053      0.001763964    0.001763964    0              0              1232.7524      2591.6462     -126.31777      0              334.65313      0              0              9.4769021      9.7131154      0.2            92.050243    
     14200   0.19757648     0.0016610057   0.0016610057   0              0              618.72378      1541.2812     -304.03345      0             -156.47046      0              0              9.4759411      9.7165188      0.2            92.07316     
     14300   0.1949179      0.001654269    0.001654269    0              0              1248.9024      2966.9749     -469.31728      0             -307.76719      0              0              9.4749801      9.7188813      0.2            92.086206    
     14400   0.1882023      0.0018574203   0.0018574203   0              0              906.90698      2213.9064     -400.27988      0              838.82799      0              0              9.4740191      9.7207213      0.2            92.094299    
     14500   0.23317406     0.0018664315   0.0018664315   0              0              1057.6762      2202.5017     -87.343041      0             -40.877936      0              0              9.4730581      9.719993       0.2            92.078058    
     14600   0.20865083     0.0018518076   0.0018518076   0              0              1277.0215      2224.1382      329.71443      0              54.786447      0              0              9.4720971      9.7112767      0.2            91.986156    
     14700   0.17039065     0.0017001512   0.0017001512   0              0              1616.9459      2598.6189      635.09191      0             -435.93709      0              0              9.4711361      9.7088217      0.2            91.953571    
     14800   0.19006976     0.0016691174   0.0016691174   0              0              1120.0251      1602.976       636.88382      0             -210.57717      0              0              9.4701751      9.7054207      0.2            91.912034    
     14900   0.19432906     0.0018905267   0.0018905267   0              0              997.21861      1632.8746      361.36878      0             -188.34491      0              0              9.4692141      9.7147647      0.2            91.991186    
     15000   0.16200593     0.0018262693   0.0018262693   0              0              1027.0319      2078.4572     -24.582565      0             -745.00103      0              0              9.4682531      9.7143169      0.2            91.977611    
     15100   0.18990445     0.0017062883   0.0017062883   0              0              399.31927      1352.8767     -554.41958      0             -1059.081       0              0              9.4672921      9.7214421      0.2            92.035732    
     15200   0.21401006     0.001812195    0.001812195    0              0              163.31301      1173.4683     -847.01974      0             -870.35228      0              0              9.4663311      9.721858       0.2            92.030327    
     15300   0.22523059     0.0017982998   0.0017982998   0              0              991.13103      2667.9011     -685.86325      0             -839.35482      0              0              9.4653701      9.7147496      0.2            91.953701    
     15400   0.18357291     0.0018928881   0.0018928881   0              0              1139.8994      2464.2809     -184.68203      0             -1200.2802      0              0              9.4644091      9.7087188      0.2            91.887286    
     15500   0.20766771     0.0017833626   0.0017833626   0              0              1174.0796      1939.4912      408.48382      0             -433.6771       0              0              9.4634481      9.7091722      0.2            91.882247    
     15600   0.21353261     0.0019051527   0.0019051527   0              0              1041.4055      1286.9381      795.68065      0             -76.348213      0              0              9.4624871      9.7157368      0.2            91.935034    
     15700   0.14914099     0.0018423651   0.0018423651   0              0              1605.3945      2497.4813      713.13451      0              4.4802041      0              0              9.4615261      9.7126057      0.2            91.896072    
     15800   0.23356727     0.0017030562   0.0017030562   0              0              1120.9828      2014.8659      226.9219       0             -55.609139      0              0              9.4605651      9.7143784      0.2            91.903509    
     15900   0.22164893     0.0019310615   0.0019310615   0              0              713.65358      1796.0248     -368.92567      0             -452.18391      0              0              9.4596041      9.7178857      0.2            91.927352    
     16000   0.23549802     0.002129452    0.002129452    0              0             -113.80158      778.9351      -1006.6895      0             -734.22527      0              0              9.4586431      9.7237133      0.2            91.973134    
     16100   0.22933555     0.0020505239   0.0020505239   0              0              69.337213      1098.6754     -960.17952      0             -493.94399      0              0              9.4576821      9.726782       0.2            91.992812    
     16200   0.19211695     0.002104561    0.002104561    0              0              489.93269      1378.2245     -398.53917      0             -668.17723      0              0              9.4567211      9.7236707      0.2            91.954042    
     16300   0.21515537     0.0020076351   0.0020076351   0              0              1505.937       2443.0358      568.70271      0             -235.89233      0              0              9.4557601      9.7214517      0.2            91.923715    
     16400   0.18019825     0.0018065867   0.0018065867   0              0              2254.7045      3283.6669      1225.5227      0              14.883682      0              0              9.4547991      9.7128472      0.2            91.833019    
     16500   0.21499239     0.0020034974   0.0020034974   0              0              1588.3295      2120.1798      1056.2837      0             -156.43232      0              0              9.4538381      9.7242667      0.2            91.931643    
     16600   0.20074746     0.0020144164   0.0020144164   0              0              1172.3098      1945.2984      399.13944      0             -77.188878      0              0              9.4528771      9.7332327      0.2            92.007052    
     16700   0.19219952     0.0016860808   0.0016860808   0              0              409.76072      1347.971      -528.59973      0             -80.430937      0              0              9.4519161      9.7366719      0.2            92.030206    
     16800   0.21803542     0.0017398379   0.0017398379   0              0              183.64828      1506.8666     -1139.7778      0              118.79067      0              0              9.4509551      9.7438         0.2            92.088217    
     16900   0.17722092     0.0020325823   0.0020325823   0              0              595.70486      2173.6096     -982.41836      0             -739.24771      0              0              9.4499941      9.7435116      0.2            92.076127    
     17000   0.21992013     0.0020369913   0.0020369913   0              0              650.05469      1534.2283     -234.2907       0             -705.27236      0              0              9.4490331      9.7379168      0.2            92.013898    
     17100   0.19686273     0.001958264    0.001958264    0              0              1643.0769      2495.3651      790.59795      0             -568.16886      0              0              9.4480721      9.7292579      0.2            91.92273     
     17200   0.19751125     0.0019028093   0.0019028093   0              0              1733.6247      2343.8047      1123.2871      0              198.57893      0              0              9.4471111      9.7297699      0.2            91.918217    
     17300   0.17798806     0.0018355018   0.0018355018   0              0              1129.1522      1251.9855      1006.1626      0              579.04172      0              0              9.4461501      9.7375206      0.2            91.982082    
     17400   0.15246464     0.001975108    0.001975108    0              0              1375.07        2581.7961      168.16422      0              409.7016       0              0              9.4451891      9.7378052      0.2            91.975412    
     17500   0.23464931     0.0019222423   0.0019222423   0              0              29.073282      787.40388     -729.42973      0             -12.901467      0              0              9.4442281      9.7415898      0.2            92.001797    
     17600   0.20364821     0.0021211317   0.0021211317   0              0             -195.65306      617.64421     -1009.1077      0              656.63741      0              0              9.4432671      9.7365935      0.2            91.945253    
     17700   0.21156646     0.0021358888   0.0021358888   0              0              266.9657       997.87862     -464.08777      0             -98.816874      0              0              9.4423061      9.7341937      0.2            91.913237    
     17800   0.24154412     0.0020336181   0.0020336181   0              0              949.14579      1746.3697      151.72971      0              545.72032      0              0              9.4413451      9.7315991      0.2            91.879386    
     17900   0.17966535     0.0021105593   0.0021105593   0              0              1450.1089      2369.4521      530.56825      0             -458.19513      0              0              9.4403841      9.724568       0.2            91.803657    
     18000   0.2228823      0.0020370312   0.0020370312   0              0              813.78765      958.05228      669.36791      0              98.521842      0              0              9.4394231      9.7316041      0.2            91.860729    
     18100   0.20845277     0.0018800076   0.0018800076   0              0              700.22572      1050.6819      349.60824      0              134.18847      0              0              9.4384621      9.7324746      0.2            91.859593    
     18200   0.22083587     0.0020281435   0.0020281435   0              0              1061.1608      2169.4658     -47.347696      0             -15.80193       0              0              9.4375011      9.7275131      0.2            91.803416    
     18300   0.20855543     0.0023154636   0.0023154636   0              0              1093.6905      2666.9552     -479.76194      0             -77.714256      0              0              9.4365401      9.7308591      0.2            91.825642    
     18400   0.2330675      0.0022107054   0.0022107054   0              0              372.10299      1254.6303     -510.62309      0              27.826031      0              0              9.4355791      9.7279796      0.2            91.789122    
     18500   0.21999791     0.0020770387   0.0020770387   0              0              1356.3829      2757.6597     -45.083338      0              684.5184       0              0              9.4346181      9.72947        0.2            91.793834    
     18600   0.22217883     0.00210366     0.00210366     0              0              1548.3061      2735.6292      360.80499      0              242.9123       0              0              9.4336571      9.7284059      0.2            91.774446    
     18700   0.17675095     0.0019960387   0.0019960387   0              0              1703.6022      2968.8732      438.17018      0              108.40184      0              0              9.4326961      9.7305136      0.2            91.784978    
     18800   0.1758682      0.0020360189   0.0020360189   0              0              1414.8452      2629.172       200.31249      0              382.62882      0              0              9.4317351      9.7340192      0.2            91.808691    
     18900   0.18732441     0.0020981797   0.0020981797   0              0              1338.2903      2747.6532     -71.257377      0             -41.069586      0              0              9.4307741      9.733175       0.2            91.791375    
     19000   0.23889649     0.0021694374   0.0021694374   0              0              938.2309       2079.7066     -203.42274      0             -223.28416      0              0              9.4298131      9.7385738      0.2            91.832931    
     19100   0.20065363     0.0021391815   0.0021391815   0              0              1608.4313      3393.9535     -177.27204      0             -205.62966      0              0              9.4288521      9.7298754      0.2            91.741557    
     19200   0.21891385     0.0020228256   0.0020228256   0              0              1330.1979      2733.836      -73.630882      0             -348.07829      0              0              9.4278911      9.7288235      0.2            91.722289    
     19300   0.25075468     0.0022003628   0.0022003628   0              0              1279.8891      2526.5758      33.052129      0             -388.86675      0              0              9.4269301      9.7302769      0.2            91.72664     
     19400   0.17375838     0.0022695586   0.0022695586   0              0              1639.2545      3092.4109      185.92377      0             -125.03972      0              0              9.4259691      9.7220012      0.2            91.639283    
     19500   0.2513524      0.0022364882   0.0022364882   0              0              673.71296      1365.1665     -17.890316      0             -92.828867      0              0              9.4250081      9.7312297      0.2            91.716919    
     19600   0.21174887     0.002286048    0.002286048    0              0              1369.3776      2972.0235     -233.48986      0              442.73729      0              0              9.4240471      9.7261867      0.2            91.660042    
     19700   0.16672321     0.0024795142   0.0024795142   0              0              1645.1769      3541.5084     -251.34713      0              515.2862       0              0              9.4230861      9.7298419      0.2            91.685138    
     19800   0.21772313     0.0024988357   0.0024988357   0              0              1474.0679      2927.954       20.012363      0              554.2995       0              0              9.4221251      9.7339323      0.2            91.714328    
     19900   0.22009041     0.0023152809   0.0023152809   0              0              1524.6716      2714.2326      334.94263      0              94.948837      0              0              9.4211641      9.7353521      0.2            91.71835     
     20000   0.2312707      0.0019783863   0.0019783863   0              0              2019.7528      3515.7391      523.54432      0              174.02971      0              0              9.4202031      9.7261107      0.2            91.621939    
     20100   0.18116449     0.0022960185   0.0022960185   0              0              1845.9307      3673.6541      17.986177      0              131.07402      0              0              9.4192421      9.730429       0.2            91.653267    
     20200   0.21632611     0.002265214    0.002265214    0              0              1235.3115      3001.5902     -531.18985      0              66.548797      0              0              9.4182811      9.7328565      0.2            91.666779    
     20300   0.20350977     0.0022155091   0.0022155091   0              0              1290.9088      3102.0197     -520.35013      0             -331.25464      0              0              9.4173201      9.7304019      0.2            91.634309    
     20400   0.27291544     0.0023358255   0.0023358255   0              0              1320.478       2668.1563     -27.408574      0             -495.69302      0              0              9.4163591      9.7174399      0.2            91.502904    
     20500   0.22918113     0.0023257765   0.0023257765   0              0              1768.9543      2997.7697      539.96028      0             -193.13661      0              0              9.4153981      9.7158459      0.2            91.478558    
     20600   0.18399351     0.0025780034   0.0025780034   0              0              2096.5693      3445.9551      746.99462      0             -435.43472      0              0              9.4144371      9.7243116      0.2            91.54892     
     20700   0.25074052     0.0025017838   0.0025017838   0              0              1780.5485      3337.9327      222.96455      0             -637.30606      0              0              9.4134761      9.7286188      0.2            91.580121    
     20800   0.211973       0.0023825356   0.0023825356   0              0              1204.3574      3128.8708     -720.33681      0             -1176.9299      0              0              9.4125151      9.7468203      0.2            91.742094    
     20900   0.19719823     0.0021565375   0.0021565375   0              0              839.64782      2583.2743     -904.19943      0             -596.43607      0              0              9.4115541      9.743616       0.2            91.702569    
     21000   0.19330797     0.0020549214   0.0020549214   0              0              1421.9096      3128.4682     -284.82453      0             -432.98678      0              0              9.4105931      9.7424754      0.2            91.682473    
     21100   0.23914285     0.0020514775   0.0020514775   0              0              1381.3262      2214.7409      547.70808      0             -26.606213      0              0              9.4096322      9.7399031      0.2            91.648905    
     21200   0.1727729      0.0022155282   0.0022155282   0              0              1462.6864      2120.8762      804.32032      0              266.70597      0              0              9.4086712      9.7339014      0.2            91.583077    
     21300   0.19214016     0.0021078831   0.0021078831   0              0              984.69892      1687.3892      281.80379      0             -378.33881      0              0              9.4077102      9.7402996      0.2            91.633915    
     21400   0.21759128     0.0021444643   0.0021444643   0              0              852.26924      2263.7056     -559.34069      0              2.4635867      0              0              9.4067492      9.7396974      0.2            91.61889     
     21500   0.19041037     0.0021962482   0.0021962482   0              0              631.5439       2522.1393     -1259.2523      0              208.17394      0              0              9.4057882      9.7500661      0.2            91.707056    
     21600   0.18608673     0.0022814128   0.0022814128   0              0              779.93011      2140.926      -581.27949      0              407.53734      0              0              9.4048272      9.7390222      0.2            91.59382     
     21700   0.2098928      0.0022620618   0.0022620618   0              0              2906.8081      4803.8111      1009.5953      0              4.0311086      0              0              9.4038662      9.7359272      0.2            91.555357    
     21800   0.22125026     0.0023877976   0.0023877976   0              0              3081.1287      4358.4903      1803.582       0             -33.423971      0              0              9.4029052      9.7269479      0.2            91.461569    
     21900   0.19496848     0.0022821297   0.0022821297   0              0              2061.3288      3293.5413      828.90608      0             -267.35896      0              0              9.4019442      9.7336717      0.2            91.515437    
     22000   0.20932169     0.0024821583   0.0024821583   0              0              478.6952       2004.6912     -1047.4867      0              336.76467      0              0              9.4009832      9.7453928      0.2            91.616273    
     22100   0.23960825     0.0023747734   0.0023747734   0              0             -64.85084       1925.9962     -2055.8758      0              397.40163      0              0              9.4000222      9.7513387      0.2            91.6628      
     22200   0.21261957     0.0023886208   0.0023886208   0              0              484.15077      1850.0084     -881.90294      0             -73.003334      0              0              9.3990612      9.7455484      0.2            91.599005    
     22300   0.20604419     0.0023280905   0.0023280905   0              0              2366.9877      3664.2268      1069.5604      0              373.88497      0              0              9.3981002      9.7425182      0.2            91.561162    
     22400   0.22055111     0.0024322603   0.0024322603   0              0              2809.5985      3955.668       1663.3262      0              241.31065      0              0              9.3971392      9.735399       0.2            91.484899    
     22500   0.17898354     0.0022820548   0.0022820548   0              0              2025.0727      3592.1746      457.81825      0              491.2455       0              0              9.3961782      9.7395789      0.2            91.514819    
     22600   0.20606714     0.0022817673   0.0022817673   0              0              279.88703      1302.2853     -742.72849      0             -85.282844      0              0              9.3952172      9.7511679      0.2            91.61434     
     22700   0.17225385     0.0021664401   0.0021664401   0              0              288.06203      1634.8384     -1058.9376      0             -218.95369      0              0              9.3942562      9.7536454      0.2            91.628244    
     22800   0.17049465     0.002534382    0.002534382    0              0              922.09049      2059.5441     -215.51741      0              532.16286      0              0              9.3932952      9.7489754      0.2            91.575004    
     22900   0.21952869     0.0024467262   0.0024467262   0              0              1850.5729      3061.0023      639.90452      0              196.3859       0              0              9.3923342      9.7381731      0.2            91.464176    
     23000   0.22024878     0.0024710522   0.0024710522   0              0              1039.2678      1425.0751      653.28361      0              81.02708       0              0              9.3913732      9.7376925      0.2            91.450304    
     23100   0.20586096     0.0023616221   0.0023616221   0              0              1246.6839      2503.8849     -10.701341      0             -98.429109      0              0              9.3904122      9.7439941      0.2            91.50012     
     23200   0.23339738     0.0025851881   0.0025851881   0              0              1040.5672      2773.7646     -692.84502      0             -913.37943      0              0              9.3894512      9.7507957      0.2            91.55462     
     23300   0.22200891     0.0024012917   0.0024012917   0              0              1378.4502      3343.6489     -586.92538      0             -241.60291      0              0              9.3884902      9.7539123      0.2            91.57451     
     23400   0.20237675     0.002276487    0.002276487    0              0              1180.1713      2424.0734     -63.931648      0             -115.22152      0              0              9.3875292      9.7444897      0.2            91.476681    
     23500   0.13741149     0.0024258402   0.0024258402   0              0              1404.5226      2244.5917      564.24678      0             -150.79788      0              0              9.3865682      9.7427639      0.2            91.451117    
     23600   0.2077841      0.0024750315   0.0024750315   0              0              2007.4024      3451.7453      562.87393      0             -262.73372      0              0              9.3856072      9.7394133      0.2            91.410308    
     23700   0.1902655      0.0025371804   0.0025371804   0              0              1626.9774      3118.9139      134.88573      0             -360.72052      0              0              9.3846462      9.7522683      0.2            91.521587    
     23800   0.2161062      0.0025135341   0.0025135341   0              0              710.45256      1946.4738     -525.75386      0              369.51554      0              0              9.3836852      9.7606942      0.2            91.591281    
     23900   0.23579697     0.0024870753   0.0024870753   0              0              864.7754       2237.9618     -508.59221      0              432.60772      0              0              9.3827242      9.7588623      0.2            91.564713    
     24000   0.23645219     0.0024156406   0.0024156406   0              0              1365.7518      2622.1415      109.186        0              309.51821      0              0              9.3817632      9.7525148      0.2            91.495784    
     24100   0.25966863     0.0024155346   0.0024155346   0              0              1689.3004      2859.0216      519.39544      0             -33.072351      0              0              9.3808022      9.753189       0.2            91.492737    
     24200   0.21776865     0.0025086938   0.0025086938   0              0              1190.3183      2175.2075      205.22649      0              714.03579      0              0              9.3798412      9.7531602      0.2            91.483094    
     24300   0.1729607      0.002800583    0.002800583    0              0              858.87232      2132.1339     -414.57333      0              354.73404      0              0              9.3788802      9.7572701      0.2            91.512268    
     24400   0.2417268      0.0024670967   0.0024670967   0              0              900.04845      2341.2304     -541.29961      0              40.404808      0              0              9.3779192      9.7547721      0.2            91.479464    
     24500   0.16298084     0.0024705057   0.0024705057   0              0              660.77133      1473.1661     -151.80655      0              170.08296      0              0              9.3769582      9.7490832      0.2            91.416746    
     24600   0.18237741     0.0025610494   0.0025610494   0              0              1525.62        2617.381       433.63914      0             -134.07574      0              0              9.3759972      9.7386154      0.2            91.309231    
     24700   0.19134518     0.0023643919   0.0023643919   0              0              1952.2188      3426.1164      478.12208      0             -220.20468      0              0              9.3750362      9.7407659      0.2            91.320032    
     24800   0.20188329     0.0025179921   0.0025179921   0              0              948.96577      2023.4766     -125.73657      0             -666.9516       0              0              9.3740752      9.7516805      0.2            91.412986    
     24900   0.21192738     0.0023012895   0.0023012895   0              0              999.20405      2660.7675     -662.5352       0              123.32257      0              0              9.3731142      9.751595       0.2            91.402814    
     25000   0.19186467     0.0025044703   0.0025044703   0              0              1020.4951      2529.5782     -488.76003      0              64.823079      0              0              9.3721532      9.7436826      0.2            91.319286    
     25100   0.18825818     0.0024049696   0.0024049696   0              0              1009.2237      1717.5985      300.67178      0             -291.17793      0              0              9.3711922      9.7595234      0.2            91.45837     
     25200   0.21619584     0.0024848613   0.0024848613   0              0              1801.0595      2758.7043      843.23434      0              65.73502       0              0              9.3702312      9.7588592      0.2            91.442767    
     25300   0.26513114     0.0027083431   0.0027083431   0              0              1081.9798      2089.9737      73.807715      0             -333.12486      0              0              9.3692702      9.7465454      0.2            91.318017    
     25400   0.20918465     0.0023969157   0.0023969157   0              0              551.7156       1993.5349     -890.32993      0             -555.4154       0              0              9.3683092      9.7552205      0.2            91.389922    
     25500   0.16936512     0.0026419644   0.0026419644   0              0              1085.2326      2875.9239     -705.67875      0              280.08939      0              0              9.3673482      9.7535488      0.2            91.364888    
     25600   0.24901625     0.0023593639   0.0023593639   0              0              1651.3512      2761.7833      540.70351      0             -311.13201      0              0              9.3663872      9.7502217      0.2            91.324352    
     25700   0.20828386     0.0023869986   0.0023869986   0              0              1637.6452      2303.0466      972.04898      0             -380.42738      0              0              9.3654262      9.7567424      0.2            91.376051    
     25800   0.24498978     0.0025331909   0.0025331909   0              0              1338.5342      2517.6191      159.30145      0              94.906354      0              0              9.3644652      9.7568064      0.2            91.367274    
     25900   0.17320855     0.002644235    0.002644235    0              0              681.2664       2178.8138     -816.46164      0              82.297375      0              0              9.3635042      9.7539841      0.2            91.331471    
     26000   0.16919849     0.0022306349   0.0022306349   0              0              448.11219      1530.3377     -634.28647      0             -307.36719      0              0              9.3625432      9.7535699      0.2            91.31822     
     26100   0.25613595     0.0025352649   0.0025352649   0              0              1295.262       1958.4182      631.93612      0             -258.55476      0              0              9.3615822      9.7440038      0.2            91.219292    
     26200   0.23937561     0.0025320996   0.0025320996   0              0              1408.0795      1780.6282      1035.303       0             -52.136346      0              0              9.3606212      9.7440238      0.2            91.210116    
     26300   0.19167746     0.0024207709   0.0024207709   0              0              847.82862      1825.3577     -129.8758       0             -267.66147      0              0              9.3596602      9.7555053      0.2            91.308215    
     26400   0.19784393     0.0023829073   0.0023829073   0              0              539.25001      2255.8142     -1177.5461      0             -391.50874      0              0              9.3586992      9.7613761      0.2            91.353783    
     26500   0.17218633     0.0021714747   0.0021714747   0              0              542.61895      1450.5967     -365.57516      0              275.16495      0              0              9.3577382      9.7465152      0.2            91.205338    
     26600   0.21213632     0.0023308852   0.0023308852   0              0              1502.8428      2196.0874      809.41269      0             -765.59184      0              0              9.3567772      9.7313989      0.2            91.054531    
     26700   0.17392876     0.0025286703   0.0025286703   0              0              887.29808      977.12592      797.27271      0             -891.69771      0              0              9.3558162      9.7435489      0.2            91.158853    
     26800   0.20374269     0.0024099732   0.0024099732   0              0              1281.2492      2832.3529     -270.02779      0              35.56273       0              0              9.3548552      9.7424811      0.2            91.1395      
     26900   0.22165829     0.0024021832   0.0024021832   0              0              186.57672      1369.7686     -996.81268      0             -52.513084      0              0              9.3538942      9.7456958      0.2            91.160208    
     27000   0.15575354     0.0023744831   0.0023744831   0              0              1137.2175      2510.8776     -236.62442      0             -263.67315      0              0              9.3529332      9.7411227      0.2            91.10807     
     27100   0.23452058     0.0025200081   0.0025200081   0              0              2293.0336      3679.9292      905.95973      0             -192.36757      0              0              9.3519722      9.731859       0.2            91.012075    
     27200   0.26340495     0.0024710846   0.0024710846   0              0              1531.1505      2334.413       727.74762      0              701.36061      0              0              9.3510112      9.7405106      0.2            91.083623    
     27300   0.23002198     0.0024357138   0.0024357138   0              0              845.33877      2184.6511     -494.15938      0              143.62808      0              0              9.3500502      9.751519       0.2            91.177192    
     27400   0.20719982     0.0025289853   0.0025289853   0              0              713.66185      2167.813      -740.68878      0             -305.29957      0              0              9.3490892      9.7334331      0.2            90.998734    
     27500   0.20077163     0.0025163999   0.0025163999   0              0              1060.1638      1981.6689      138.46425      0             -167.5722       0              0              9.3481282      9.7333645      0.2            90.988739    
     27600   0.16781737     0.002382859    0.002382859    0              0              1669.721       2554.2417      785.03494      0              128.03019      0              0              9.3471672      9.7218063      0.2            90.871349    
     27700   0.20756817     0.0023186364   0.0023186364   0              0              1730.5654      3074.605       386.32765      0              512.54815      0              0              9.3462062      9.7254662      0.2            90.896213    
     27800   0.23969041     0.002293185    0.002293185    0              0              1134.1526      2821.982      -553.86193      0              608.20229      0              0              9.3452452      9.7313939      0.2            90.942262    
     27900   0.20130615     0.002555254    0.002555254    0              0              1542.6607      3734.9094     -649.78654      0              350.93803      0              0              9.3442842      9.7298403      0.2            90.918393    
     28000   0.2214373      0.0024230604   0.0024230604   0              0              1774.2616      3502.8562      45.479869      0              21.749256      0              0              9.3433232      9.7394867      0.2            90.999172    
[...]
     43000   0.22160549     0.0016111194   0.0016111194   0              0              197.79134      525.29852     -129.89369      0             -86.349405      0              0              9.1991734      9.5774793      0.2            88.104892    
     43100   0.24937519     0.0016167901   0.0016167901   0              0              818.89638      1667.4277     -29.865836      0             -396.76154      0              0              9.1982124      9.5679152      0.2            88.007716    
     43200   0.2509642      0.0018073421   0.0018073421   0              0              92.881098      75.519494      110.02327      0             -320.64473      0              0              9.1972514      9.5691762      0.2            88.010119    
     43300   0.19919609     0.0015924672   0.0015924672   0              0              198.48187      488.87261     -92.082387      0             -530.03842      0              0              9.1962904      9.5704565      0.2            88.012697    
     43400   0.17147669     0.0015191579   0.0015191579   0              0              412.38028      929.69273     -105.14942      0             -671.81558      0              0              9.1953294      9.5730517      0.2            88.027364    
     43500   0.18651951     0.0014494449   0.0014494449   0              0              299.13025      402.46675      195.57382      0             -187.90511      0              0              9.1943684      9.5687818      0.2            87.978904    
     43600   0.20059819     0.0014993084   0.0014993084   0              0              516.75573      887.92053      145.37895      0              208.7869       0              0              9.1934074      9.5656908      0.2            87.941292    
     43700   0.18060584     0.0017240106   0.0017240106   0              0             -124.39406     -94.913331     -154.04223      0              15.226447      0              0              9.1924464      9.5606455      0.2            87.885721    
     43800   0.18378201     0.0014678083   0.0014678083   0              0              262.45884      621.51716     -96.774736      0             -154.91607      0              0              9.1914854      9.5572411      0.2            87.845241    
     43900   0.19716926     0.0016249909   0.0016249909   0              0              484.83556      614.25165      355.23612      0             -639.5443       0              0              9.1905244      9.554194       0.2            87.808052    
     44000   0.17999589     0.0016197072   0.0016197072   0              0              594.93139      1337.9862     -148.32772      0             -662.77332      0              0              9.1895634      9.5669845      0.2            87.91641     
     44100   0.20514684     0.0016674002   0.0016674002   0              0              1209.651       2712.2086     -293.09904      0             -365.41186      0              0              9.1886024      9.5665369      0.2            87.903103    
     44200   0.23708673     0.0018231609   0.0018231609   0              0              1072.4274      1970.3157      174.35551      0             -563.02614      0              0              9.1876414      9.5657846      0.2            87.886998    
     44300   0.18930445     0.0017493045   0.0017493045   0              0              1358.683       2399.6283      317.55771      0             -404.25146      0              0              9.1866804      9.5515531      0.2            87.747065    
     44400   0.24531052     0.0016890442   0.0016890442   0              0              1122.5331      2619.3263     -374.44474      0             -373.04983      0              0              9.1857194      9.5551577      0.2            87.770997    
     44500   0.24032096     0.001609941    0.001609941    0              0              1054.4613      2214.6759     -105.94387      0             -1204.1567      0              0              9.1847584      9.5619529      0.2            87.824227    
     44600   0.25384258     0.0016047304   0.0016047304   0              0              721.82036      1192.4249      251.05273      0             -1434.5207      0              0              9.1837974      9.5617865      0.2            87.81351     
     44700   0.21535551     0.0016086653   0.0016086653   0              0              1053.5371      1938.9016      168.01491      0             -281.07449      0              0              9.1828364      9.5517419      0.2            87.712083    
     44800   0.19637118     0.0015966075   0.0015966075   0              0              652.56143      1665.7391     -360.79837      0             -455.01048      0              0              9.1818754      9.5553519      0.2            87.73605     
     44900   0.2275146      0.00184233     0.00184233     0              0              254.10159      623.17736     -115.1708       0             -894.40688      0              0              9.1809144      9.5436661      0.2            87.619581    
     45000   0.19447238     0.0014555286   0.0014555286   0              0              397.38276      485.49597      309.08027      0             -1106.6717      0              0              9.1799534      9.5401856      0.2            87.578459    
     45100   0.18844309     0.0016425731   0.0016425731   0              0              844.06483      1640.5953      47.36712       0             -964.30962      0              0              9.1789924      9.5447065      0.2            87.610788    
     45200   0.20417775     0.001518033    0.001518033    0              0              171.77014      927.05808     -583.73724      0             -934.83572      0              0              9.1780314      9.5438904      0.2            87.594125    
     45300   0.24217642     0.0015402623   0.0015402623   0              0              679.24198      1432.3844     -74.083879      0             -1004.1558      0              0              9.1770704      9.5391175      0.2            87.541153    
     45400   0.18959707     0.0014578416   0.0014578416   0              0              736.73146      806.10913      667.17657      0             -1106.4029      0              0              9.1761094      9.532872       0.2            87.474676    
     45500   0.21445222     0.0015525889   0.0015525889   0              0              516.91554      1162.9143     -129.27127      0             -1093.0821      0              0              9.1751484      9.5316008      0.2            87.453852    
     45600   0.22861634     0.0013627183   0.0013627183   0              0             -200.0382       291.46358     -691.75745      0             -1067.6975      0              0              9.1741874      9.5273167      0.2            87.405388    
     45700   0.18903224     0.0014470857   0.0014470857   0              0              1003.5129      1707.3146      299.52566      0             -537.93124      0              0              9.1732264      9.5153239      0.2            87.286221    
     45800   0.22743083     0.0012188124   0.0012188124   0              0              1319.7029      1865.7557      773.44693      0             -599.43614      0              0              9.1722654      9.51787        0.2            87.30043     
     45900   0.21391197     0.0013569954   0.0013569954   0              0             -176.53584      70.830785     -424.10663      0             -440.96196      0              0              9.1713044      9.5243053      0.2            87.350303    
     46000   0.24514388     0.0012312467   0.0012312467   0              0             -862.15525     -1028.8861     -695.6469       0             -564.10489      0              0              9.1703434      9.5230868      0.2            87.329976    
     46100   0.14862611     0.0013311642   0.0013311642   0              0              915.84105      1210.8814      620.65161      0             -395.5245       0              0              9.1693824      9.5122367      0.2            87.221335    
     46200   0.21377901     0.0014651321   0.0014651321   0              0              468.66555      490.71908      446.39135      0             -396.60726      0              0              9.1684214      9.5086644      0.2            87.179442    
     46300   0.22563637     0.0014099941   0.0014099941   0              0             -480.10413     -75.204619     -885.19636      0             -1233.0179      0              0              9.1674604      9.510898       0.2            87.19078     
     46400   0.21908675     0.001613941    0.001613941    0              0              109.58323      321.12642     -102.15641      0             -1037.3408      0              0              9.1664994      9.5061083      0.2            87.137736    
     46500   0.23276875     0.0014026627   0.0014026627   0              0              785.36614      397.53205      1173.0239      0             -501.76129      0              0              9.1655384      9.5029894      0.2            87.100014    
     46600   0.19804343     0.0013759277   0.0013759277   0              0              339.67619      874.55186     -195.37292      0             -576.70414      0              0              9.1645774      9.5006364      0.2            87.069318    
     46700   0.19663971     0.0013008064   0.0013008064   0              0             -488.48147      27.945062     -1005.1479      0             -458.15571      0              0              9.1636164      9.5100529      0.2            87.146476    
     46800   0.22315287     0.0017383956   0.0017383956   0              0              878.98305      1394.905       362.92458      0             -885.90388      0              0              9.1626554      9.5003608      0.2            87.048532    
     46900   0.22401733     0.0016239869   0.0016239869   0              0              1122.0165      1292.0216      951.80432      0             -650.67686      0              0              9.1616944      9.4941012      0.2            86.982054    
     47000   0.22683726     0.0016196495   0.0016196495   0              0             -459.96412     -361.23733     -558.88101      0             -283.01484      0              0              9.1607334      9.4949667      0.2            86.980858    
     47100   0.19677435     0.0014557425   0.0014557425   0              0             -5.1531707      831.38297     -841.86389      0             -132.77924      0              0              9.1597724      9.4791948      0.2            86.827267    
     47200   0.22904911     0.0015682524   0.0015682524   0              0              593.09096      718.87006      467.11083      0             -870.09718      0              0              9.1588114      9.4870856      0.2            86.890428    
     47300   0.20269867     0.0013566663   0.0013566663   0              0              1120.929       1437.8837      803.7964       0             -611.31546      0              0              9.1578504      9.4776704      0.2            86.795087    
     47400   0.18993586     0.0015769697   0.0015769697   0              0              952.94849      2431.6777     -525.9762       0              133.91001      0              0              9.1568894      9.479993       0.2            86.807248    
     47500   0.18776659     0.0013930396   0.0013930396   0              0              262.8846       1280.0149     -754.44733      0             -621.61894      0              0              9.1559284      9.4912686      0.2            86.901375    
     47600   0.18558521     0.0014621563   0.0014621563   0              0              1266.6628      1825.8313      707.27987      0              295.31572      0              0              9.1549674      9.4771236      0.2            86.762758    
     47700   0.20151356     0.0015268964   0.0015268964   0              0              382.96376      197.1225       568.64416      0              483.8498       0              0              9.1540064      9.4760148      0.2            86.7435      
     47800   0.20185415     0.001335115    0.001335115    0              0              528.78229      1751.8076     -694.41604      0              52.292945      0              0              9.1530454      9.4922529      0.2            86.883022    
     47900   0.19084177     0.0013392177   0.0013392177   0              0              162.32289      808.0708      -483.59943      0             -468.15482      0              0              9.1520844      9.4839917      0.2            86.798293    
     48000   0.21433657     0.0015167704   0.0015167704   0              0              796.24537      995.34088      596.94249      0             -400.6454       0              0              9.1511234      9.4747626      0.2            86.704722    
     48100   0.25613373     0.0015714986   0.0015714986   0              0              847.97029      1375.3413      320.38535      0             -173.47319      0              0              9.1501624      9.4730993      0.2            86.680397    
     48200   0.1940043      0.0015602842   0.0015602842   0              0              910.9018       2516.2985     -694.67599      0             -909.10348      0              0              9.1492014      9.4774458      0.2            86.71106     
     48300   0.24551362     0.0016507402   0.0016507402   0              0              548.50942      1328.5233     -231.70898      0             -128.9731       0              0              9.1482404      9.4782567      0.2            86.709371    
     48400   0.1852659      0.0015042739   0.0015042739   0              0              973.31931      1380.6013      565.89965      0             -354.23766      0              0              9.1472794      9.4704832      0.2            86.629156    
     48500   0.15383112     0.0014034906   0.0014034906   0              0              889.61161      1822.3038     -43.281104      0              313.87493      0              0              9.1463184      9.4719369      0.2            86.63335     
     48600   0.19233783     0.00141359     0.00141359     0              0             -108.12493      326.9296      -543.39443      0             -389.9172       0              0              9.1453574      9.474345       0.2            86.646271    
     48700   0.23602969     0.0015240508   0.0015240508   0              0              799.49801      1431.9991      166.80883      0             -48.709073      0              0              9.1443964      9.4556169      0.2            86.465909    
     48800   0.20143023     0.0014045311   0.0014045311   0              0              482.32222      706.73855      257.70547      0             -84.147823      0              0              9.1434354      9.4514582      0.2            86.418798    
     48900   0.23686502     0.00098280641  0.00098280641  0              0             -17.193251      188.91107     -223.4676       0             -169.39415      0              0              9.1424744      9.4593102      0.2            86.481501    
     49000   0.16329135     0.0013003194   0.0013003194   0              0             -41.303731     -0.7912172     -82.010448      0             -224.94627      0              0              9.1415134      9.4568459      0.2            86.449883    
     49100   0.19428331     0.0015883177   0.0015883177   0              0              269.59786      146.78095      392.22796      0             -57.785439      0              0              9.1405524      9.4542513      0.2            86.417079    
     49200   0.18948079     0.0013529831   0.0013529831   0              0              382.44146      689.90645      74.778071      0              406.39287      0              0              9.1395914      9.4550293      0.2            86.415104    
     49300   0.22287351     0.0013471096   0.0013471096   0              0              135.3654       773.22336     -502.65445      0              450.09806      0              0              9.1386304      9.4604607      0.2            86.455654    
     49400   0.24548214     0.0014076509   0.0014076509   0              0              1023.9494      2165.6345     -117.9354       0             -430.88354      0              0              9.1376694      9.4546021      0.2            86.393028    
     49500   0.17119037     0.0015682783   0.0015682783   0              0              1154.4721      1912.4627      396.29033      0             -566.72451      0              0              9.1367084      9.4519102      0.2            86.359347    
     49600   0.24497057     0.0013294252   0.0013294252   0              0              808.90855      1401.5289      216.0746       0             -776.15999      0              0              9.1357474      9.4649962      0.2            86.469815    
     49700   0.21316658     0.001490343    0.001490343    0              0              488.52606      1315.2698     -338.39862      0             -144.62071      0              0              9.1347864      9.4607862      0.2            86.422262    
     49800   0.21349905     0.0015407002   0.0015407002   0              0             -287.5902      -214.42983     -360.95296      0             -888.17644      0              0              9.1338254      9.4554453      0.2            86.364386    
     49900   0.19315515     0.0013725741   0.0013725741   0              0              582.53505      875.55925      289.2746       0             -494.9199       0              0              9.1328644      9.4637646      0.2            86.431279    
     50000   0.19712192     0.0013145123   0.0013145123   0              0              334.90365      210.48361      459.13252      0             -123.80315      0              0              9.1319034      9.4641149      0.2            86.425383    
     50100   0.19241359     0.0015259272   0.0015259272   0              0              316.64605      1090.1367     -457.07941      0             -229.27018      0              0              9.1309424      9.4658695      0.2            86.432309    
     50200   0.23007356     0.0014213794   0.0014213794   0              0              286.19632      931.55998     -359.37486      0              185.54336      0              0              9.1299814      9.4632713      0.2            86.399491    
     50251   0.21723669     0.001811223    0.001811223    0              0              76.828484      438.6608      -285.2072       0             -422.56754      0              0              9.1294913      9.4668167      0.2            86.427221    
Loop time of 1.12231 on 1 procs for 50000 steps with 62 atoms

Performance: 38491.963 ns/day, 0.001 hours/ns, 44550.883 timesteps/s
99.3% CPU use with 1 MPI tasks x 1 OpenMP threads

MPI task timing breakdown:
Section |  min time  |  avg time  |  max time  |%varavg| %total
---------------------------------------------------------------
Pair    | 0          | 0          | 0          |   0.0 |  0.00
Bond    | 0.16939    | 0.16939    | 0.16939    |   0.0 | 15.09
Neigh   | 0          | 0          | 0          |   0.0 |  0.00
Comm    | 0.37385    | 0.37385    | 0.37385    |   0.0 | 33.31
Output  | 0.0068446  | 0.0068446  | 0.0068446  |   0.0 |  0.61
Modify  | 0.54508    | 0.54508    | 0.54508    |   0.0 | 48.57
Other   |            | 0.02715    |            |       |  2.42

Nlocal:             62 ave          62 max          62 min
Histogram: 1 0 0 0 0 0 0 0 0 0
Nghost:            521 ave         521 max         521 min
Histogram: 1 0 0 0 0 0 0 0 0 0
Neighs:              0 ave           0 max           0 min
Histogram: 1 0 0 0 0 0 0 0 0 0

Total # of neighbors = 0
Ave neighs/atom = 0
Ave special neighs/atom = 24.032258
Neighbor list builds = 0
Dangerous builds = 0


Total wall time: 0:00:01
