LAMMPS data file.

     62 atoms
    140 bonds
      0 angles
      0 dihedrals
      0 impropers
      1 atom types
    140 bond types
      0 angle types
      0 dihedral types
      0 improper types
  -4.804996   4.804996 xlo xhi
  -4.804996   4.804996 ylo yhi
  -0.100000   0.100000 zlo zhi

Masses # ['atom_id', 'mass']

1 10000.0

Atoms # ['atomID', 'moleculeID', 'atomType', 'charge', 'x', 'y', 'z']

      3      1      1   0.000000  -4.012316  -3.754337   0.000000
     77      1      1   0.000000  -3.527837  -4.757438   0.000000
     11      1      1   0.000000  -2.554729  -4.009013   0.000000
     38      1      1   0.000000  -1.318718  -4.380620   0.000000
     69      1      1   0.000000   1.367025  -4.292362   0.000000
     58      1      1   0.000000   2.890786  -4.671909   0.000000
     60      1      1   0.000000   3.375811  -4.024946   0.000000
     31      1      1   0.000000   3.961563   4.750575   0.000000
     43      1      1   0.000000  -3.167147  -2.900681   0.000000
     33      1      1   0.000000  -2.148587  -2.796458   0.000000
     29      1      1   0.000000  -1.041512  -3.181734   0.000000
     73      1      1   0.000000  -0.571804  -3.912171   0.000000
     20      1      1   0.000000   0.541977  -3.855178   0.000000
     15      1      1   0.000000   2.093362  -3.670296   0.000000
     64      1      1   0.000000   3.289052  -3.228562   0.000000
     18      1      1   0.000000   4.311888  -3.312481   0.000000
     17      1      1   0.000000  -4.294549  -2.377259   0.000000
     16      1      1   0.000000  -2.890758  -1.733726   0.000000
     36      1      1   0.000000  -1.560132  -1.648564   0.000000
     28      1      1   0.000000  -0.066373  -2.642075   0.000000
     55      1      1   0.000000   0.411171  -1.683709   0.000000
     47      1      1   0.000000   2.924905  -2.709944   0.000000
     46      1      1   0.000000   3.683942  -2.377070   0.000000
     80      1      1   0.000000  -3.978879  -1.391966   0.000000
     56      1      1   0.000000  -0.600389  -1.554329   0.000000
     75      1      1   0.000000  -0.048031  -1.004980   0.000000
      2      1      1   0.000000   1.565842  -1.115837   0.000000
     13      1      1   0.000000   2.952380  -1.475064   0.000000
     27      1      1   0.000000  -3.966474  -0.552086   0.000000
     72      1      1   0.000000  -3.400268   0.205461   0.000000
      6      1      1   0.000000  -2.563030  -0.343179   0.000000
      1      1      1   0.000000  -0.989064  -0.352739   0.000000
     19      1      1   0.000000   0.526974  -0.015076   0.000000
     65      1      1   0.000000   1.489705   0.025410   0.000000
     54      1      1   0.000000   2.184933  -0.148369   0.000000
      5      1      1   0.000000   3.395147  -0.198621   0.000000
     48      1      1   0.000000   4.547245  -0.139225   0.000000
     25      1      1   0.000000  -4.225132   0.634777   0.000000
     26      1      1   0.000000  -0.522811   0.794532   0.000000
     24      1      1   0.000000   0.566914   1.305615   0.000000
     45      1      1   0.000000   1.622025   0.732969   0.000000
      9      1      1   0.000000   2.811773   1.055054   0.000000
     35      1      1   0.000000   4.234568   0.850527   0.000000
      4      1      1   0.000000   1.771250   1.870533   0.000000
     67      1      1   0.000000   2.880816   2.262007   0.000000
     70      1      1   0.000000   3.392351   2.597515   0.000000
     74      1      1   0.000000   3.377821   1.992215   0.000000
     30      1      1   0.000000  -0.556780   3.162794   0.000000
      7      1      1   0.000000   0.720718   2.863137   0.000000
     71      1      1   0.000000   1.366340   3.808233   0.000000
     14      1      1   0.000000   2.311248   3.229523   0.000000
     37      1      1   0.000000   3.678457   3.479285   0.000000
     23      1      1   0.000000  -4.461918   4.641759   0.000000
     41      1      1   0.000000   4.607387   3.792954   0.000000
     52      1      1   0.000000  -4.181428   3.648096   0.000000
     44      1      1   0.000000  -3.435985   4.268039   0.000000
      8      1      1   0.000000  -2.215095   4.169998   0.000000
     53      1      1   0.000000  -0.890107   4.196699   0.000000
     12      1      1   0.000000   0.292386   4.300265   0.000000
     39      1      1   0.000000   1.899250   4.567584   0.000000
     62      1      1   0.000000   2.587785   4.118187   0.000000
     66      1      1   0.000000   3.253159   4.156125   0.000000

Bond Coeffs # ['bondID', 'bondCoeff', 'd']

      1   0.962050   1.019533
      2   0.962050   1.019533
      3   0.562488   1.333348
      4   0.727774   1.172200
      5   0.506073   1.405702
      6   0.540983   1.359590
      7   0.677714   1.214722
      8   0.540983   1.359590
      9   0.892527   1.058496
     10   0.722622   1.176371
     11   0.892527   1.058496
     12   0.610086   1.280279
     13   0.519274   1.387719
     14   0.519274   1.387719
     15   1.077016   0.963583
     16   0.768830   1.140473
     17   0.768830   1.140473
     18   3.126931   0.565511
     19   1.169307   0.924774
     20   0.600307   1.290664
     21   2.251438   0.666454
     22   0.846222   1.087071
     23   0.846222   1.087071
     24   0.542974   1.357096
     25   1.117984   0.945763
     26   0.409672   1.562362
     27   0.681597   1.211257
     28   0.580789   1.312172
     29   1.075284   0.964358
     30   0.611530   1.278766
     31   0.847410   1.086309
     32   1.090583   0.957570
     33   1.182270   0.919690
     34   1.090583   0.957570
     35   1.564967   0.799369
     36   1.182270   0.919690
     37   1.154473   0.930696
     38   0.414527   1.553186
     39   0.531417   1.371773
     40   0.531417   1.371773
     41   1.647761   0.779028
     42   0.596771   1.294482
     43   0.666585   1.224820
     44   1.489115   0.819475
     45   0.603959   1.286757
     46   0.793340   1.122717
     47   0.938050   1.032493
     48   2.490240   0.633694
     49   0.487441   1.432317
     50   0.730077   1.170350
     51   0.730077   1.170350
     52   2.856378   0.591687
     53   2.856378   0.591687
     54   0.872208   1.070755
     55   0.928180   1.037968
     56   0.600984   1.289938
     57   0.804016   1.115239
     58   0.805846   1.113971
     59   0.763045   1.144788
     60   0.652051   1.238395
     61   1.325971   0.868426
     62   2.727774   0.605474
     63   0.690271   1.203622
     64   1.040258   0.980459
     65   0.759694   1.147310
     66   0.419329   1.544268
     67   2.672127   0.611746
     68   0.467628   1.462345
     69   0.805071   1.114507
     70   0.655444   1.235186
     71   0.658224   1.232574
     72   0.496297   1.419480
     73   0.949455   1.026273
     74   0.787830   1.126636
     75   0.510165   1.400054
     76   0.660427   1.230517
     77   0.565113   1.330248
     78   1.063812   0.969544
     79   0.692982   1.201265
     80   0.953900   1.023879
     81   1.529498   0.808585
     82   1.147007   0.933721
     83   0.998031   1.000986
     84   0.934186   1.034626
     85   0.462309   1.470733
     86   0.462309   1.470733
     87   1.929952   0.719825
     88   0.814493   1.108042
     89   0.709716   1.187019
     90   0.768753   1.140530
     91   1.947263   0.716618
     92   1.479203   0.822216
     93   0.459135   1.475807
     94   0.459135   1.475807
     95   0.572797   1.321295
     96   0.498683   1.416080
     97   0.403639   1.573995
     98   0.572183   1.322004
     99   0.751396   1.153628
    100   0.595162   1.296231
    101   0.436505   1.513579
    102   0.695326   1.199239
    103   0.763339   1.144567
    104   0.764384   1.143785
    105   0.623653   1.266277
    106   1.558227   0.801096
    107   0.799923   1.118088
    108   0.799923   1.118088
    109   1.455724   0.828820
    110   0.483986   1.437420
    111   1.093456   0.956311
    112   0.496698   1.418907
    113   1.286465   0.881660
    114   0.547840   1.351055
    115   0.834250   1.094843
    116   0.517695   1.389835
    117   0.762800   1.144972
    118   1.161971   0.927689
    119   0.647247   1.242983
    120   1.438199   0.833855
    121   0.704399   1.191490
    122   0.704399   1.191490
    123   0.627004   1.262888
    124   1.438199   0.833855
    125   0.741401   1.161378
    126   0.987350   1.006386
    127   0.456742   1.479669
    128   1.417331   0.839971
    129   0.987350   1.006386
    130   0.838782   1.091881
    131   0.523005   1.382761
    132   0.757996   1.148594
    133   0.553912   1.343629
    134   0.619679   1.270330
    135   1.156453   0.929900
    136   0.489950   1.428645
    137   1.163637   0.927025
    138   0.444681   1.499602
    139   0.478725   1.445296
    140   0.568985   1.325713

Bonds # ['ID', 'type', 'atom1', 'atom2']

         1         1        60        31
         2         2        31        60
         3         3        16        36
         4         4        33        29
         5         5         3        17
         6         6         3        18
         7         7        27        25
         8         8        18         3
         9         9        39        58
        10        10        60        18
        11        11        58        39
        12        12        58        15
        13        13        38         8
        14        14         8        38
        15        15        19        65
        16        16        48        25
        17        17        25        48
        18        18        67        74
        19        19        31        66
        20        20        11        38
        21        21        62        66
        22        22        58        31
        23        23        31        58
        24        24        20        28
        25        25        27        72
        26        26        20        15
        27        27        54         5
        28        28        30         7
        29        29        36        56
        30        30        11        33
        31        31        30        53
        32        32        77        23
        33        33        69        39
        34        34        23        77
        35        35        37        66
        36        36        39        69
        37        37        14        62
        38        38         1        19
        39        39        18        17
        40        40        17        18
        41        41        56        75
        42        42         3        23
        43        43        44         8
        44        44        55        75
        45        45        55         2
        46        46        67        14
        47        47        23        52
        48        48        64        47
        49        49         2        13
        50        50        25        35
        51        51        35        25
        52        52        77        44
        53        53        44        77
        54        54        28        55
        55        55        48        35
        56        56        33        36
        57        57        73        20
        58        58         3        77
        59        59        75        19
        60        60         1        26
        61        61        29        73
        62        62        70        74
        63        63        26        24
        64        64        37        41
        65        65        45         4
        66        66        17        16
        67        67        67        70
        68        68         4        14
        69        69        29        28
        70        70        47        13
        71        71        45         9
        72        72        30        12
        73        73        64        18
        74        74        18        46
        75        75        14        39
        76        76        38        29
        77        77        24         4
        78        78        52        44
        79        79         3        43
        80        80        43        33
        81        81        58        60
        82        82        69        20
        83        83        72         6
        84        84        17        80
        85        85        11         8
        86        86         8        11
        87        87        65        45
        88        88        71        14
        89        89        53        12
        90        90        16        80
        91        91        65        54
        92        92        39        62
        93        93        20        12
        94        94        12        20
        95        95        19        24
        96        96        36         1
        97        97         6         1
        98        98         9         4
        99        99         5        48
       100       100        33        16
       101       101         2        19
       102       102        43        16
       103       103         7        71
       104       104         2        65
       105       105        11        43
       106       106        60        64
       107       107        38        53
       108       108        53        38
       109       109        47        46
       110       110         9        35
       111       111        69        15
       112       112        27         6
       113       113        38        73
       114       114        13         5
       115       115         9        74
       116       116        14        37
       117       117        75         1
       118       118        71        39
       119       119        43        17
       120       120        41        52
       121       121        31        23
       122       122        23        31
       123       123        56         1
       124       124        52        41
       125       125        46        13
       126       126        23        41
       127       127         3        11
       128       128        80        27
       129       129        41        23
       130       130        23        44
       131       131         5         9
       132       132         2        54
       133       133         5        35
       134       134        15        47
       135       135        72        25
       136       136        16         6
       137       137        70        37
       138       138         7        12
       139       139         4         7
       140       140        19        26
