ITEM: TIMESTEP
250
ITEM: NUMBER OF ATOMS
56
ITEM: BOX BOUNDS pp pp pp
-4.8272244459864693e+00 4.8272244459864693e+00
-4.8269630620499528e+00 4.8269630620499528e+00
-1.0000000000000001e-01 1.0000000000000001e-01
ITEM: ATOMS id type xs ys zs
21 1 0.0764479 0.0692477 0.499953
37 1 0.177326 0.998706 0.499783
40 1 0.523571 0.104829 0.500663
80 1 0.632486 0.0542709 0.501058
51 1 0.708662 0.0772613 0.500688
9 1 0.846195 0.0708171 0.500105
44 1 0.964375 0.101191 0.499281
58 1 0.0494957 0.162151 0.501075
28 1 0.161705 0.134054 0.500998
18 1 0.393356 0.158073 0.498722
27 1 0.514457 0.236998 0.499817
1 1 0.647519 0.173672 0.500353
76 1 0.105936 0.221083 0.500271
13 1 0.0372903 0.299306 0.499644
11 1 0.188398 0.302075 0.499641
72 1 0.454774 0.311278 0.499255
4 1 0.34291 0.303088 0.499407
34 1 0.625052 0.311974 0.500123
29 1 0.745937 0.27618 0.498864
75 1 0.849512 0.30128 0.499414
20 1 0.917552 0.213231 0.500478
38 1 0.110224 0.423905 0.500663
42 1 0.513281 0.352652 0.499728
61 1 0.590959 0.398376 0.500022
69 1 0.645948 0.402838 0.498371
62 1 0.699707 0.371874 0.500328
33 1 0.802004 0.3898 0.501293
36 1 0.922066 0.362091 0.500219
35 1 0.00554139 0.476737 0.500401
50 1 0.59457 0.472827 0.501342
30 1 0.690662 0.472123 0.50095
79 1 0.801165 0.484513 0.499994
71 1 0.87175 0.463118 0.498972
73 1 0.918475 0.505102 0.499317
8 1 0.128742 0.549528 0.500626
60 1 0.773447 0.555916 0.500332
74 1 0.855116 0.526891 0.499638
2 1 0.949417 0.602385 0.500991
24 1 0.0689803 0.670175 0.49929
10 1 0.199707 0.700827 0.498489
12 1 0.691168 0.793643 0.499829
19 1 0.804063 0.666096 0.499032
41 1 0.820186 0.785986 0.500176
17 1 0.941454 0.754708 0.499679
16 1 0.0797045 0.807382 0.500972
14 1 0.226938 0.848561 0.501457
56 1 0.775302 0.880679 0.500424
22 1 0.884076 0.914198 0.499872
57 1 0.0737237 0.961477 0.500717
68 1 0.138198 0.912269 0.500392
53 1 0.694443 0.921 0.499214
39 1 0.594673 0.96351 0.499802
70 1 0.674152 0.000464809 0.501314
54 1 0.78474 0.96517 0.499216
45 1 0.951156 0.0170245 0.49972
49 1 0.993105 0.93801 0.499291
ITEM: TIMESTEP
500
ITEM: NUMBER OF ATOMS
56
ITEM: BOX BOUNDS pp pp pp
-4.8260175300456227e+00 4.8260175300456227e+00
-4.8263837652036683e+00 4.8263837652036683e+00
-1.0000000000000001e-01 1.0000000000000001e-01
ITEM: ATOMS id type xs ys zs
21 1 0.0776371 0.069446 0.498264
37 1 0.177892 0.998117 0.499825
40 1 0.524362 0.105352 0.501241
80 1 0.632347 0.054701 0.502163
51 1 0.708116 0.0776835 0.502537
9 1 0.846665 0.0709063 0.49895
44 1 0.964701 0.100664 0.497106
58 1 0.0498117 0.162295 0.502024
28 1 0.162126 0.134621 0.499346
18 1 0.393684 0.158253 0.499433
27 1 0.514656 0.238014 0.501409
1 1 0.647527 0.173961 0.499427
76 1 0.106024 0.221689 0.499912
13 1 0.0368004 0.29931 0.500989
11 1 0.188035 0.302217 0.501192
72 1 0.454844 0.311976 0.500406
4 1 0.342928 0.302943 0.499685
34 1 0.624978 0.312415 0.498872
29 1 0.745958 0.276156 0.498249
75 1 0.84988 0.301365 0.498668
20 1 0.917422 0.213192 0.503086
38 1 0.109379 0.423442 0.500361
42 1 0.513531 0.353504 0.500333
61 1 0.591233 0.39934 0.498914
69 1 0.646095 0.403005 0.498127
62 1 0.69971 0.372873 0.497887
33 1 0.80174 0.390038 0.50219
36 1 0.921752 0.361717 0.499293
35 1 0.00495084 0.475897 0.501417
50 1 0.595 0.473617 0.501407
30 1 0.690621 0.472358 0.499812
79 1 0.802044 0.485514 0.499303
71 1 0.871279 0.463644 0.498857
73 1 0.918238 0.504739 0.50141
8 1 0.127593 0.549659 0.500328
60 1 0.773638 0.556576 0.501324
74 1 0.855748 0.527807 0.500244
2 1 0.949765 0.601922 0.50281
24 1 0.0689663 0.671246 0.49888
10 1 0.200061 0.701908 0.498047
12 1 0.691513 0.794537 0.499002
19 1 0.804711 0.666509 0.498968
41 1 0.821597 0.786694 0.500462
17 1 0.942349 0.754334 0.501536
16 1 0.0799072 0.80887 0.501486
14 1 0.22715 0.848746 0.500603
56 1 0.7755 0.880873 0.501673
22 1 0.884333 0.913909 0.500361
57 1 0.0737437 0.961432 0.500201
68 1 0.138063 0.911785 0.500207
53 1 0.694366 0.920934 0.49925
39 1 0.594895 0.963792 0.498517
70 1 0.674505 0.000555875 0.501974
54 1 0.784344 0.965218 0.500704
45 1 0.95044 0.0165497 0.498713
49 1 0.993194 0.937584 0.499857
ITEM: TIMESTEP
750
ITEM: NUMBER OF ATOMS
56
ITEM: BOX BOUNDS pp pp pp
-4.8248106141047753e+00 4.8248106141047753e+00
-4.8233956979690067e+00 4.8233956979690067e+00
-1.0000000000000001e-01 1.0000000000000001e-01
ITEM: ATOMS id type xs ys zs
21 1 0.0778225 0.0689419 0.499365
37 1 0.17854 0.998547 0.49904
40 1 0.523983 0.104995 0.502056
80 1 0.632909 0.0540781 0.502717
51 1 0.708439 0.0773456 0.502159
9 1 0.846971 0.071797 0.497713
44 1 0.965266 0.101087 0.496619
58 1 0.050609 0.162483 0.504159
28 1 0.162728 0.134834 0.498022
18 1 0.393703 0.158682 0.500808
27 1 0.514735 0.237696 0.500018
1 1 0.647414 0.173746 0.498406
76 1 0.106818 0.221716 0.499727
13 1 0.037055 0.299522 0.501383
11 1 0.188564 0.302643 0.499966
72 1 0.455426 0.31263 0.498809
4 1 0.343696 0.303579 0.498458
34 1 0.625623 0.312091 0.497907
29 1 0.746659 0.27586 0.497564
75 1 0.849241 0.30184 0.500236
20 1 0.91743 0.21407 0.503363
38 1 0.108512 0.424038 0.500469
42 1 0.51454 0.353357 0.49995
61 1 0.590779 0.399199 0.500691
69 1 0.645664 0.403187 0.49787
62 1 0.699611 0.373259 0.498448
33 1 0.801372 0.39029 0.501446
36 1 0.92157 0.362417 0.500349
35 1 0.00483944 0.476248 0.504585
50 1 0.595159 0.474171 0.501231
30 1 0.690608 0.472443 0.501408
79 1 0.801272 0.485697 0.500946
71 1 0.870771 0.463615 0.499657
73 1 0.917964 0.50526 0.50156
8 1 0.126571 0.550165 0.499225
60 1 0.773136 0.557166 0.503448
74 1 0.855345 0.527678 0.500036
2 1 0.949567 0.602409 0.503019
24 1 0.0693598 0.670732 0.496816
10 1 0.200429 0.700598 0.498906
12 1 0.692857 0.794294 0.498293
19 1 0.804755 0.666629 0.500915
41 1 0.821946 0.786631 0.501749
17 1 0.943144 0.754614 0.503877
16 1 0.0812787 0.808233 0.500558
14 1 0.228409 0.847436 0.501024
56 1 0.776591 0.881324 0.500038
22 1 0.885468 0.91456 0.498681
57 1 0.0749719 0.961241 0.501307
68 1 0.139176 0.911893 0.501063
53 1 0.695376 0.920708 0.499686
39 1 0.595764 0.962483 0.49934
70 1 0.674866 6.18704e-05 0.502305
54 1 0.785506 0.965918 0.499709
45 1 0.951882 0.0170761 0.498287
49 1 0.99405 0.937838 0.498788
ITEM: TIMESTEP
1000
ITEM: NUMBER OF ATOMS
56
ITEM: BOX BOUNDS pp pp pp
-4.8236036981639279e+00 4.8236036981639279e+00
-4.8189385754203338e+00 4.8189385754203338e+00
-1.0000000000000001e-01 1.0000000000000001e-01
ITEM: ATOMS id type xs ys zs
21 1 0.0782392 0.068952 0.49997
37 1 0.179452 0.999139 0.497211
40 1 0.524247 0.104871 0.500486
80 1 0.633794 0.054613 0.501969
51 1 0.709693 0.0774002 0.502008
9 1 0.847426 0.0698862 0.498501
44 1 0.965131 0.100565 0.495564
58 1 0.0502399 0.161743 0.503775
28 1 0.163124 0.13422 0.498733
18 1 0.394788 0.158893 0.499888
27 1 0.514387 0.237814 0.500605
1 1 0.648273 0.174678 0.496713
76 1 0.106959 0.221177 0.498954
13 1 0.0372286 0.298966 0.50067
11 1 0.188638 0.302221 0.498585
72 1 0.455207 0.312692 0.501134
4 1 0.343613 0.303271 0.498105
34 1 0.625199 0.312157 0.49883
29 1 0.7466 0.276305 0.497364
75 1 0.849406 0.30149 0.501369
20 1 0.917329 0.213163 0.503726
38 1 0.109563 0.423917 0.499475
42 1 0.514276 0.353575 0.500738
61 1 0.590635 0.39893 0.499643
69 1 0.645583 0.403306 0.497377
62 1 0.700131 0.373569 0.499194
33 1 0.80167 0.390288 0.502281
36 1 0.92181 0.362214 0.500805
35 1 0.0043221 0.475373 0.503566
50 1 0.594251 0.473628 0.501119
30 1 0.689766 0.472808 0.49976
79 1 0.801813 0.485102 0.501907
71 1 0.870378 0.463983 0.500827
73 1 0.91788 0.505299 0.501798
8 1 0.126309 0.550124 0.500124
60 1 0.773603 0.556956 0.502889
74 1 0.855066 0.528009 0.499117
2 1 0.949501 0.602104 0.50371
24 1 0.0689091 0.67189 0.495754
10 1 0.200147 0.700895 0.499764
12 1 0.693596 0.792877 0.498421
19 1 0.804918 0.667645 0.501394
41 1 0.823002 0.78694 0.502928
17 1 0.944478 0.754049 0.504292
16 1 0.0814578 0.809673 0.500596
14 1 0.229439 0.847651 0.502534
56 1 0.776143 0.880451 0.501208
22 1 0.885171 0.915682 0.497306
57 1 0.0758226 0.960797 0.502061
68 1 0.140711 0.912275 0.502745
53 1 0.694357 0.919967 0.498762
39 1 0.596039 0.963424 0.498456
70 1 0.675512 0.000211042 0.502947
54 1 0.783978 0.965099 0.499092
45 1 0.952449 0.0164248 0.497057
49 1 0.994808 0.937324 0.501395
ITEM: TIMESTEP
1250
ITEM: NUMBER OF ATOMS
56
ITEM: BOX BOUNDS pp pp pp
-4.8223967822230804e+00 4.8223967822230804e+00
-4.8234931950526345e+00 4.8234931950526345e+00
-1.0000000000000001e-01 1.0000000000000001e-01
ITEM: ATOMS id type xs ys zs
21 1 0.0775471 0.0688095 0.50005
37 1 0.178379 0.998482 0.499143
40 1 0.524327 0.104989 0.500437
80 1 0.633366 0.0537731 0.500425
51 1 0.709448 0.0767082 0.502733
9 1 0.846878 0.0700267 0.497821
44 1 0.965048 0.100777 0.496723
58 1 0.0504079 0.162172 0.503275
28 1 0.162179 0.133809 0.499708
18 1 0.394654 0.159158 0.500203
27 1 0.515252 0.238186 0.498988
1 1 0.648151 0.173358 0.495554
76 1 0.106946 0.220959 0.498427
13 1 0.0372785 0.299323 0.501553
11 1 0.188705 0.302268 0.497432
72 1 0.455748 0.313032 0.502068
4 1 0.343366 0.302844 0.498703
34 1 0.626132 0.312476 0.499526
29 1 0.746332 0.275909 0.497039
75 1 0.8491 0.301638 0.501271
20 1 0.917125 0.213319 0.504663
38 1 0.109262 0.423621 0.498224
42 1 0.515062 0.353338 0.501696
61 1 0.591145 0.398958 0.499996
69 1 0.64603 0.403921 0.497864
62 1 0.700196 0.37424 0.498779
33 1 0.801895 0.390508 0.50402
36 1 0.921679 0.361779 0.499328
35 1 0.0041328 0.475276 0.50359
50 1 0.593612 0.473723 0.500162
30 1 0.689617 0.473727 0.499319
79 1 0.800202 0.48613 0.501756
71 1 0.871033 0.463797 0.500972
73 1 0.917843 0.505376 0.500748
8 1 0.126793 0.549883 0.499765
60 1 0.773325 0.558029 0.504073
74 1 0.854892 0.52736 0.501565
2 1 0.950062 0.601963 0.504749
24 1 0.0687927 0.671926 0.493848
10 1 0.200159 0.701672 0.500197
12 1 0.693557 0.792581 0.497873
19 1 0.805483 0.667686 0.499198
41 1 0.823345 0.78755 0.502071
17 1 0.944639 0.753652 0.504883
16 1 0.0817575 0.810062 0.500145
14 1 0.228905 0.848052 0.50377
56 1 0.776423 0.880811 0.502645
22 1 0.885075 0.91626 0.497151
57 1 0.0751324 0.960652 0.501744
68 1 0.139855 0.911583 0.50206
53 1 0.694462 0.919763 0.499373
39 1 0.595381 0.963192 0.499277
70 1 0.675015 -0.000409238 0.500508
54 1 0.783632 0.965378 0.499385
45 1 0.951724 0.0166197 0.494657
49 1 0.994325 0.938012 0.503498
ITEM: TIMESTEP
1500
ITEM: NUMBER OF ATOMS
56
ITEM: BOX BOUNDS pp pp pp
-4.8211898662822339e+00 4.8211898662822339e+00
-4.8165200425423089e+00 4.8165200425423089e+00
-1.0000000000000001e-01 1.0000000000000001e-01
ITEM: ATOMS id type xs ys zs
21 1 0.0780565 0.0689009 0.498073
37 1 0.178869 0.997827 0.498309
40 1 0.523586 0.105201 0.500749
80 1 0.633063 0.0532285 0.496319
51 1 0.708645 0.0765691 0.501059
9 1 0.8469 0.0697869 0.497426
44 1 0.965163 0.100596 0.497368
58 1 0.0495174 0.162223 0.502092
28 1 0.161995 0.13444 0.500083
18 1 0.393907 0.15909 0.500019
27 1 0.515222 0.23811 0.499155
1 1 0.64846 0.173577 0.497449
76 1 0.105846 0.221366 0.499594
13 1 0.0365432 0.299626 0.501698
11 1 0.187987 0.302027 0.499323
72 1 0.456224 0.313288 0.503046
4 1 0.344198 0.304333 0.499867
34 1 0.626039 0.312403 0.500287
29 1 0.746391 0.275708 0.496689
75 1 0.848642 0.300757 0.500758
20 1 0.917345 0.213256 0.503983
38 1 0.109553 0.423896 0.497877
42 1 0.515184 0.354245 0.501153
61 1 0.590978 0.399022 0.500519
69 1 0.646029 0.403767 0.49897
62 1 0.699986 0.373116 0.497963
33 1 0.801324 0.390263 0.50312
36 1 0.921097 0.362221 0.500475
35 1 0.00444221 0.474296 0.504464
50 1 0.593629 0.473598 0.500066
30 1 0.689802 0.473418 0.499528
79 1 0.800951 0.485616 0.501222
71 1 0.870815 0.463325 0.501823
73 1 0.918112 0.50463 0.502191
8 1 0.126191 0.550653 0.498282
60 1 0.773463 0.557227 0.504199
74 1 0.855495 0.527428 0.501267
2 1 0.949776 0.601349 0.505544
24 1 0.0684227 0.671519 0.493533
10 1 0.200702 0.700264 0.498353
12 1 0.692954 0.792041 0.498004
19 1 0.804582 0.667284 0.499018
41 1 0.822842 0.787284 0.503222
17 1 0.943583 0.753438 0.506579
16 1 0.0810274 0.808977 0.502212
14 1 0.228734 0.847588 0.505334
56 1 0.776287 0.88017 0.50559
22 1 0.884292 0.916375 0.497927
57 1 0.0749953 0.960686 0.502999
68 1 0.138672 0.911388 0.504434
53 1 0.694626 0.919375 0.500677
39 1 0.595108 0.962474 0.499537
70 1 0.675084 -0.000803685 0.499173
54 1 0.783588 0.965083 0.500276
45 1 0.952324 0.0160182 0.494424
49 1 0.994218 0.936396 0.502141
ITEM: TIMESTEP
1750
ITEM: NUMBER OF ATOMS
56
ITEM: BOX BOUNDS pp pp pp
-4.8199829503413865e+00 4.8199829503413865e+00
-4.8194948885329545e+00 4.8194948885329545e+00
-1.0000000000000001e-01 1.0000000000000001e-01
ITEM: ATOMS id type xs ys zs
21 1 0.0778197 0.0690287 0.499017
37 1 0.179117 0.998796 0.498536
40 1 0.523347 0.106092 0.504682
80 1 0.632405 0.0525809 0.496568
51 1 0.70818 0.075992 0.501277
9 1 0.847897 0.068443 0.495648
44 1 0.964998 0.10111 0.498905
58 1 0.04901 0.162064 0.504823
28 1 0.161994 0.133904 0.499374
18 1 0.392722 0.160837 0.50128
27 1 0.515118 0.238106 0.497712
1 1 0.648373 0.173604 0.49872
76 1 0.105719 0.221022 0.499672
13 1 0.0365873 0.30007 0.502585
11 1 0.188397 0.30089 0.499432
72 1 0.455324 0.312887 0.503313
4 1 0.343196 0.306435 0.498188
34 1 0.625891 0.312731 0.498385
29 1 0.746593 0.276245 0.497891
75 1 0.848144 0.301872 0.500854
20 1 0.916452 0.213864 0.50486
38 1 0.111 0.423848 0.499387
42 1 0.514385 0.353575 0.501891
61 1 0.590783 0.399243 0.501234
69 1 0.645789 0.404209 0.499383
62 1 0.699959 0.374583 0.49975
33 1 0.800675 0.391321 0.503688
36 1 0.920643 0.362539 0.501069
35 1 0.00501332 0.475497 0.504851
50 1 0.593181 0.473731 0.500602
30 1 0.689026 0.473979 0.499974
79 1 0.802901 0.486086 0.500735
71 1 0.870725 0.464431 0.500699
73 1 0.918976 0.505038 0.502524
8 1 0.126674 0.550774 0.497828
60 1 0.77364 0.557459 0.504246
74 1 0.856354 0.529038 0.500331
2 1 0.949292 0.601778 0.504398
24 1 0.0680295 0.671402 0.49391
10 1 0.199589 0.700819 0.498809
12 1 0.692422 0.791428 0.498435
19 1 0.80388 0.667914 0.498664
41 1 0.821903 0.786874 0.502492
17 1 0.943327 0.753873 0.505167
16 1 0.0811723 0.809252 0.501889
14 1 0.228514 0.847983 0.505557
56 1 0.775627 0.879215 0.506245
22 1 0.884882 0.914059 0.498464
57 1 0.075121 0.961084 0.503263
68 1 0.139442 0.912166 0.505394
53 1 0.694167 0.918704 0.499992
39 1 0.595355 0.961247 0.499378
70 1 0.674942 -0.00137375 0.497142
54 1 0.784317 0.963797 0.500211
45 1 0.953169 0.0168376 0.493826
49 1 0.994138 0.937192 0.502178
ITEM: TIMESTEP
2000
ITEM: NUMBER OF ATOMS
56
ITEM: BOX BOUNDS pp pp pp
-4.8187760344005390e+00 4.8187760344005390e+00
-4.8202925241263381e+00 4.8202925241263381e+00
-1.0000000000000001e-01 1.0000000000000001e-01
ITEM: ATOMS id type xs ys zs
21 1 0.0772216 0.0686698 0.499364
37 1 0.178633 0.998671 0.498882
40 1 0.522923 0.106051 0.503372
80 1 0.632011 0.0524868 0.495771
51 1 0.707675 0.0755351 0.502469
9 1 0.848027 0.0690946 0.495235
44 1 0.965308 0.102694 0.499554
58 1 0.0495692 0.162131 0.50569
28 1 0.162029 0.133943 0.500119
18 1 0.39259 0.160656 0.501247
27 1 0.515387 0.238439 0.496355
1 1 0.648623 0.173237 0.496026
76 1 0.106023 0.221152 0.500064
13 1 0.0361037 0.298911 0.502547
11 1 0.18798 0.302115 0.499548
72 1 0.455758 0.312818 0.501387
4 1 0.343163 0.305316 0.497844
34 1 0.626146 0.312853 0.49903
29 1 0.747237 0.275493 0.498586
75 1 0.848659 0.302274 0.501264
20 1 0.916014 0.213392 0.504081
38 1 0.110429 0.423903 0.498959
42 1 0.514222 0.354226 0.501792
61 1 0.591103 0.399196 0.499825
69 1 0.645942 0.404076 0.500041
62 1 0.700285 0.374544 0.498158
33 1 0.800458 0.390777 0.502614
36 1 0.920847 0.3629 0.5023
35 1 0.00568006 0.475714 0.506266
50 1 0.593247 0.473833 0.499018
30 1 0.689326 0.474168 0.500978
79 1 0.802623 0.485556 0.500344
71 1 0.871103 0.463935 0.500025
73 1 0.918839 0.504738 0.502333
8 1 0.127547 0.550822 0.496322
60 1 0.774358 0.557056 0.506246
74 1 0.856233 0.528438 0.500151
2 1 0.949781 0.602096 0.504328
24 1 0.0687254 0.672294 0.495305
10 1 0.199799 0.701053 0.498557
12 1 0.693192 0.791254 0.499583
19 1 0.804451 0.667647 0.497832
41 1 0.822779 0.787267 0.502809
17 1 0.943982 0.75414 0.506703
16 1 0.0814032 0.809991 0.501251
14 1 0.228319 0.847919 0.506438
56 1 0.775735 0.879161 0.507496
22 1 0.885243 0.912359 0.496939
57 1 0.0749899 0.960775 0.50207
68 1 0.139591 0.911788 0.504329
53 1 0.694455 0.918715 0.499814
39 1 0.59462 0.961368 0.500067
70 1 0.674194 -0.00143099 0.49594
54 1 0.785136 0.963774 0.501108
45 1 0.95334 0.018304 0.49232
49 1 0.993878 0.938505 0.500239
ITEM: TIMESTEP
2250
ITEM: NUMBER OF ATOMS
56
ITEM: BOX BOUNDS pp pp pp
-4.8175691184596916e+00 4.8175691184596916e+00
-4.8241735784618056e+00 4.8241735784618056e+00
-1.0000000000000001e-01 1.0000000000000001e-01
ITEM: ATOMS id type xs ys zs
21 1 0.0765606 0.068519 0.500929
37 1 0.178176 0.998462 0.499282
40 1 0.522867 0.105961 0.501991
80 1 0.63179 0.0521884 0.496414
51 1 0.707354 0.0765857 0.501916
9 1 0.847073 0.0699782 0.49474
44 1 0.964814 0.103407 0.499353
58 1 0.0485062 0.162596 0.506758
28 1 0.160506 0.133886 0.499865
18 1 0.392952 0.160997 0.500857
27 1 0.51484 0.238395 0.495692
1 1 0.647395 0.173935 0.496637
76 1 0.105079 0.221351 0.499263
13 1 0.0358883 0.299717 0.502032
11 1 0.18767 0.301628 0.500063
72 1 0.455168 0.31284 0.500274
4 1 0.343 0.305895 0.49876
34 1 0.625166 0.312777 0.500207
29 1 0.746309 0.275704 0.496617
75 1 0.847557 0.30287 0.501541
20 1 0.915412 0.21446 0.502547
38 1 0.110192 0.423997 0.498411
42 1 0.513914 0.353803 0.501953
61 1 0.590312 0.39873 0.499527
69 1 0.645424 0.404244 0.501856
62 1 0.69961 0.374486 0.500238
33 1 0.799523 0.391373 0.504006
36 1 0.920403 0.363387 0.502229
35 1 0.00574114 0.474924 0.507828
50 1 0.592634 0.473477 0.499951
30 1 0.689532 0.474174 0.499954
79 1 0.802624 0.486391 0.499499
71 1 0.869914 0.4641 0.499097
73 1 0.918796 0.504 0.500495
8 1 0.126934 0.550713 0.495071
60 1 0.774037 0.557341 0.504426
74 1 0.856231 0.528833 0.500266
2 1 0.950449 0.601278 0.504922
24 1 0.0683707 0.672482 0.495199
10 1 0.200368 0.701553 0.498877
12 1 0.693131 0.792283 0.499441
19 1 0.805053 0.66751 0.498886
41 1 0.823913 0.786324 0.503241
17 1 0.945155 0.752829 0.505893
16 1 0.0816386 0.810257 0.500053
14 1 0.229418 0.849583 0.507096
56 1 0.776606 0.879713 0.505749
22 1 0.885728 0.912137 0.498624
57 1 0.074678 0.960574 0.500431
68 1 0.139004 0.911632 0.501989
53 1 0.69539 0.919659 0.497652
39 1 0.595911 0.960458 0.499318
70 1 0.674779 -0.00100862 0.494965
54 1 0.78549 0.963737 0.500924
45 1 0.953195 0.0188028 0.493643
49 1 0.993554 0.938954 0.499189
ITEM: TIMESTEP
2500
ITEM: NUMBER OF ATOMS
56
ITEM: BOX BOUNDS pp pp pp
-4.8163622025188442e+00 4.8163622025188442e+00
-4.8186709121720712e+00 4.8186709121720712e+00
-1.0000000000000001e-01 1.0000000000000001e-01
ITEM: ATOMS id type xs ys zs
21 1 0.0769462 0.0683417 0.501617
37 1 0.178358 0.998079 0.497252
40 1 0.522997 0.103983 0.500547
80 1 0.631534 0.0511559 0.49585
51 1 0.706887 0.0761985 0.501948
9 1 0.84712 0.070485 0.49175
44 1 0.965085 0.102802 0.499528
58 1 0.0482975 0.162062 0.505791
28 1 0.161105 0.134532 0.50149
18 1 0.393471 0.159721 0.502323
27 1 0.514494 0.237939 0.494598
1 1 0.646825 0.173711 0.497107
76 1 0.103612 0.221711 0.499036
13 1 0.0360531 0.301083 0.502583
11 1 0.188077 0.300543 0.498222
72 1 0.455462 0.312729 0.501348
4 1 0.343177 0.304401 0.500068
34 1 0.625612 0.312702 0.50093
29 1 0.746326 0.275609 0.495542
75 1 0.847346 0.30209 0.502867
20 1 0.915823 0.214388 0.501136
38 1 0.11126 0.423743 0.500113
42 1 0.513971 0.353963 0.501507
61 1 0.589676 0.398997 0.499384
69 1 0.644905 0.404315 0.502016
62 1 0.699403 0.374777 0.501608
33 1 0.799242 0.391141 0.503229
36 1 0.919762 0.362725 0.502735
35 1 0.00463224 0.473553 0.506757
50 1 0.592598 0.473688 0.4998
30 1 0.688947 0.47429 0.499495
79 1 0.802448 0.485575 0.501498
71 1 0.868955 0.463985 0.499754
73 1 0.917831 0.503945 0.501019
8 1 0.126866 0.550443 0.497313
60 1 0.773461 0.556867 0.506264
74 1 0.855781 0.528914 0.500486
2 1 0.950303 0.600332 0.506012
24 1 0.0689357 0.671533 0.495813
10 1 0.200312 0.699666 0.499188
12 1 0.694258 0.791108 0.498964
19 1 0.804758 0.666918 0.499004
41 1 0.824334 0.786318 0.504258
17 1 0.945304 0.752197 0.507646
16 1 0.0819269 0.809953 0.498305
14 1 0.229072 0.846573 0.507025
56 1 0.776767 0.879239 0.505544
22 1 0.885449 0.912152 0.498966
57 1 0.0749925 0.960098 0.499128
68 1 0.139924 0.91133 0.500968
53 1 0.695664 0.918646 0.496554
39 1 0.595709 0.95926 0.498656
70 1 0.67483 -0.0017849 0.494438
54 1 0.785441 0.964241 0.49996
45 1 0.952984 0.018505 0.493202
49 1 0.993782 0.938477 0.49814
ITEM: TIMESTEP
2750
ITEM: NUMBER OF ATOMS
56
ITEM: BOX BOUNDS pp pp pp
-4.8151552865779976e+00 4.8151552865779976e+00
-4.8296018947033019e+00 4.8296018947033019e+00
-1.0000000000000001e-01 1.0000000000000001e-01
ITEM: ATOMS id type xs ys zs
21 1 0.0773958 0.0687234 0.501823
37 1 0.178422 0.998326 0.497397
40 1 0.522846 0.105104 0.499256
80 1 0.629666 0.0504927 0.49498
51 1 0.704781 0.0762845 0.502444
9 1 0.848181 0.0698577 0.490086
44 1 0.965551 0.103472 0.498521
58 1 0.048314 0.16171 0.506251
28 1 0.161175 0.13508 0.501149
18 1 0.393173 0.157676 0.503182
27 1 0.514422 0.23828 0.4948
1 1 0.646636 0.174132 0.497249
76 1 0.103869 0.221262 0.497926
13 1 0.0354511 0.300591 0.499036
11 1 0.18719 0.300496 0.499638
72 1 0.455161 0.312777 0.502735
4 1 0.342841 0.302327 0.49748
34 1 0.625844 0.312388 0.503123
29 1 0.746691 0.275509 0.495948
75 1 0.846717 0.301808 0.50242
20 1 0.9155 0.214089 0.502815
38 1 0.110388 0.423704 0.497732
42 1 0.514155 0.353705 0.5017
61 1 0.589328 0.3983 0.500261
69 1 0.644441 0.403791 0.504107
62 1 0.699251 0.374394 0.501508
33 1 0.799352 0.390726 0.503985
36 1 0.918745 0.362276 0.500325
35 1 0.00507978 0.474872 0.507478
50 1 0.591632 0.473095 0.50189
30 1 0.688151 0.473759 0.50035
79 1 0.801728 0.485463 0.504202
71 1 0.869297 0.463752 0.499053
73 1 0.918133 0.504013 0.500997
8 1 0.126212 0.550638 0.497988
60 1 0.773335 0.556702 0.506909
74 1 0.855342 0.528233 0.501327
2 1 0.950073 0.600655 0.506804
24 1 0.0679914 0.671971 0.495832
10 1 0.199531 0.70069 0.499328
12 1 0.6941 0.791688 0.499553
19 1 0.805647 0.666769 0.498448
41 1 0.823765 0.786149 0.504545
17 1 0.944569 0.752492 0.507139
16 1 0.0810338 0.809431 0.499095
14 1 0.228907 0.847489 0.506536
56 1 0.776337 0.879495 0.505305
22 1 0.885211 0.91277 0.498977
57 1 0.0753416 0.960775 0.496767
68 1 0.139448 0.911028 0.499882
53 1 0.694914 0.918877 0.495768
39 1 0.5945 0.95884 0.497888
70 1 0.673354 -0.00190273 0.494715
54 1 0.785148 0.964252 0.499457
45 1 0.954431 0.0189602 0.492205
49 1 0.993865 0.938374 0.49928
ITEM: TIMESTEP
3000
ITEM: NUMBER OF ATOMS
56
ITEM: BOX BOUNDS pp pp pp
-4.8139483706371502e+00 4.8139483706371502e+00
-4.8295547404838794e+00 4.8295547404838794e+00
-1.0000000000000001e-01 1.0000000000000001e-01
ITEM: ATOMS id type xs ys zs
21 1 0.077475 0.0693263 0.502176
37 1 0.178208 0.997961 0.498918
40 1 0.524169 0.105477 0.499635
80 1 0.629687 0.0505568 0.493718
51 1 0.704879 0.0753783 0.501727
9 1 0.847003 0.069998 0.48932
44 1 0.964872 0.1026 0.495994
58 1 0.0489814 0.16216 0.507517
28 1 0.161839 0.135554 0.50225
18 1 0.394071 0.158102 0.50376
27 1 0.514615 0.238325 0.495264
1 1 0.647621 0.17411 0.498112
76 1 0.10442 0.222141 0.498418
13 1 0.0356392 0.300645 0.49921
11 1 0.187163 0.301763 0.499374
72 1 0.454975 0.312979 0.502522
4 1 0.342277 0.302318 0.498908
34 1 0.625114 0.311716 0.503897
29 1 0.74649 0.275845 0.496754
75 1 0.84737 0.301625 0.501428
20 1 0.91613 0.213925 0.499682
38 1 0.109966 0.42444 0.496417
42 1 0.513757 0.354123 0.500676
61 1 0.589029 0.398003 0.500507
69 1 0.644255 0.402865 0.504216
62 1 0.698778 0.3735 0.50074
33 1 0.799782 0.390271 0.504369
36 1 0.919826 0.362686 0.499662
35 1 0.00417988 0.474369 0.507273
50 1 0.59128 0.47234 0.500937
30 1 0.687243 0.473044 0.500217
79 1 0.802013 0.48537 0.50505
71 1 0.868854 0.463223 0.499289
73 1 0.91723 0.503143 0.500134
8 1 0.124742 0.551116 0.496067
60 1 0.772324 0.55579 0.506267
74 1 0.855255 0.528102 0.501564
2 1 0.949997 0.600364 0.505393
24 1 0.0679708 0.67262 0.495634
10 1 0.198739 0.701159 0.499347
12 1 0.69287 0.791474 0.500956
19 1 0.804019 0.66538 0.496825
41 1 0.823185 0.785307 0.502707
17 1 0.944181 0.75227 0.507227
16 1 0.0801922 0.810251 0.500361
14 1 0.228499 0.847358 0.505249
56 1 0.77539 0.879819 0.505414
22 1 0.884685 0.913635 0.499646
57 1 0.0745689 0.961231 0.497087
68 1 0.138528 0.911489 0.500611
53 1 0.69422 0.918525 0.495286
39 1 0.59405 0.958265 0.499403
70 1 0.672938 -0.00252525 0.493829
54 1 0.784178 0.964339 0.497836
45 1 0.952633 0.0179233 0.491628
49 1 0.993319 0.93845 0.500013
ITEM: TIMESTEP
3250
ITEM: NUMBER OF ATOMS
56
ITEM: BOX BOUNDS pp pp pp
-4.8127414546963028e+00 4.8127414546963028e+00
-4.8320309651824411e+00 4.8320309651824411e+00
-1.0000000000000001e-01 1.0000000000000001e-01
ITEM: ATOMS id type xs ys zs
21 1 0.0773517 0.0695916 0.504597
37 1 0.178572 0.999012 0.498626
40 1 0.52367 0.104627 0.499827
80 1 0.630195 0.0518986 0.493939
51 1 0.705858 0.0757065 0.500766
9 1 0.846198 0.0705004 0.489888
44 1 0.964586 0.102653 0.49499
58 1 0.0487458 0.162762 0.506995
28 1 0.161497 0.13533 0.502856
18 1 0.393483 0.158845 0.504456
27 1 0.514746 0.237239 0.496156
1 1 0.647445 0.173947 0.498756
76 1 0.104813 0.22193 0.498673
13 1 0.0353998 0.30048 0.497881
11 1 0.187729 0.302382 0.500518
72 1 0.455118 0.311571 0.502732
4 1 0.342787 0.303062 0.498017
34 1 0.625321 0.311936 0.505283
29 1 0.746318 0.275064 0.497988
75 1 0.847133 0.301977 0.50282
20 1 0.915422 0.213708 0.500529
38 1 0.109214 0.424119 0.496846
42 1 0.513806 0.352448 0.501827
61 1 0.589163 0.397745 0.50001
69 1 0.643889 0.403168 0.502367
62 1 0.698871 0.37451 0.501321
33 1 0.798883 0.390457 0.505241
36 1 0.919414 0.362359 0.499957
35 1 0.0027445 0.473823 0.506561
50 1 0.591469 0.472533 0.501184
30 1 0.687278 0.473939 0.500889
79 1 0.800176 0.485439 0.507059
71 1 0.868462 0.463928 0.49975
73 1 0.916534 0.504512 0.49897
8 1 0.12328 0.550949 0.494532
60 1 0.771463 0.556477 0.506582
74 1 0.854019 0.528136 0.502834
2 1 0.949609 0.600292 0.506649
24 1 0.0670741 0.673031 0.495899
10 1 0.198812 0.701678 0.499545
12 1 0.69308 0.791558 0.502012
19 1 0.804269 0.66608 0.497959
41 1 0.822504 0.785273 0.502658
17 1 0.943875 0.751529 0.507415
16 1 0.0800178 0.810262 0.501358
14 1 0.228305 0.848838 0.506572
56 1 0.775088 0.880631 0.506136
22 1 0.884247 0.915096 0.500853
57 1 0.0744971 0.961921 0.496472
68 1 0.139077 0.912493 0.500105
53 1 0.693442 0.919019 0.4953
39 1 0.593203 0.96054 0.498533
70 1 0.67276 -0.00183622 0.495242
54 1 0.782919 0.965221 0.497495
45 1 0.951986 0.0185847 0.49081
49 1 0.993231 0.939488 0.497905
ITEM: TIMESTEP
3500
ITEM: NUMBER OF ATOMS
56
ITEM: BOX BOUNDS pp pp pp
-4.8115345387554553e+00 4.8115345387554553e+00
-4.8268515262118932e+00 4.8268515262118932e+00
-1.0000000000000001e-01 1.0000000000000001e-01
ITEM: ATOMS id type xs ys zs
21 1 0.0773331 0.0696541 0.505853
37 1 0.178811 0.998895 0.497917
40 1 0.523123 0.104373 0.501303
80 1 0.629733 0.0507964 0.494084
51 1 0.705898 0.0740962 0.502351
9 1 0.847524 0.0687505 0.491028
44 1 0.964832 0.10221 0.496471
58 1 0.0496236 0.16276 0.506234
28 1 0.162423 0.134717 0.503339
18 1 0.393328 0.160334 0.50462
27 1 0.515757 0.237183 0.495887
1 1 0.647153 0.172357 0.496364
76 1 0.105709 0.22174 0.497716
13 1 0.0352447 0.300098 0.497674
11 1 0.187258 0.302925 0.500723
72 1 0.455053 0.31188 0.503205
4 1 0.342319 0.303951 0.499195
34 1 0.626577 0.311516 0.506317
29 1 0.746901 0.274212 0.49733
75 1 0.847752 0.301539 0.503911
20 1 0.915284 0.213363 0.49924
38 1 0.108736 0.424315 0.49594
42 1 0.514257 0.352519 0.501699
61 1 0.588958 0.39675 0.49865
69 1 0.644038 0.403205 0.50408
62 1 0.699117 0.374629 0.50205
33 1 0.799541 0.390227 0.505313
36 1 0.919644 0.362207 0.499269
35 1 0.00301792 0.473833 0.505147
50 1 0.590063 0.471351 0.502024
30 1 0.686408 0.474081 0.498493
79 1 0.799878 0.485087 0.50722
71 1 0.869551 0.463438 0.499891
73 1 0.916898 0.504989 0.496942
8 1 0.123881 0.550371 0.494666
60 1 0.771531 0.556551 0.506339
74 1 0.853716 0.527437 0.503024
2 1 0.949373 0.601189 0.504549
24 1 0.0674615 0.672874 0.494339
10 1 0.199085 0.701711 0.499022
12 1 0.692512 0.79152 0.501664
19 1 0.804335 0.666165 0.497901
41 1 0.822985 0.785995 0.5015
17 1 0.943834 0.75228 0.507806
16 1 0.0805951 0.810133 0.503128
14 1 0.228248 0.848576 0.506037
56 1 0.775175 0.87973 0.507362
22 1 0.884206 0.914907 0.500842
57 1 0.0745189 0.962109 0.496116
68 1 0.138629 0.91231 0.50065
53 1 0.693046 0.918246 0.495276
39 1 0.593038 0.959351 0.497847
70 1 0.672075 -0.00275822 0.493191
54 1 0.782488 0.964496 0.496795
45 1 0.953007 0.0182277 0.492222
49 1 0.993786 0.938162 0.496366
ITEM: TIMESTEP
3750
ITEM: NUMBER OF ATOMS
56
ITEM: BOX BOUNDS pp pp pp
-4.8103276228146088e+00 4.8103276228146088e+00
-4.8244291758535018e+00 4.8244291758535018e+00
-1.0000000000000001e-01 1.0000000000000001e-01
ITEM: ATOMS id type xs ys zs
21 1 0.0776134 0.0694368 0.503652
37 1 0.178738 0.998335 0.498205
40 1 0.522017 0.105143 0.501472
80 1 0.629551 0.050797 0.496896
51 1 0.705715 0.0748045 0.501221
9 1 0.84712 0.0696324 0.490716
44 1 0.965026 0.101879 0.498035
58 1 0.0501515 0.162306 0.506039
28 1 0.162651 0.134152 0.503724
18 1 0.39201 0.158961 0.505066
27 1 0.514671 0.237187 0.498223
1 1 0.647276 0.172403 0.497593
76 1 0.106078 0.221706 0.497232
13 1 0.035794 0.298749 0.497055
11 1 0.187925 0.302409 0.502794
72 1 0.455678 0.312772 0.503045
4 1 0.343345 0.303822 0.499083
34 1 0.626308 0.311497 0.50516
29 1 0.746412 0.27467 0.495749
75 1 0.846685 0.301143 0.504371
20 1 0.915514 0.213464 0.498598
38 1 0.108838 0.424587 0.496075
42 1 0.515215 0.352588 0.503094
61 1 0.589239 0.39688 0.498518
69 1 0.644351 0.402999 0.504814
62 1 0.699483 0.374578 0.502961
33 1 0.799253 0.389943 0.505396
36 1 0.919738 0.361456 0.497996
35 1 0.00243644 0.473578 0.505139
50 1 0.59028 0.471299 0.503597
30 1 0.686275 0.473871 0.497863
79 1 0.799546 0.484848 0.509139
71 1 0.868881 0.463429 0.501737
73 1 0.916086 0.505104 0.494267
8 1 0.122741 0.551492 0.494404
60 1 0.771305 0.556561 0.50712
74 1 0.853596 0.527577 0.504544
2 1 0.949633 0.601193 0.506791
24 1 0.0672105 0.674052 0.495018
10 1 0.199763 0.702274 0.500283
12 1 0.693592 0.791294 0.499314
19 1 0.804243 0.666252 0.497645
41 1 0.823293 0.786213 0.502528
17 1 0.944827 0.752432 0.50975