LAMMPS (23 Jun 2022 - Update 4)
  using 1 OpenMP thread(s) per MPI task
# Compute elastic constant tensor for a crystal
#
# Written by Aidan Thompson (Sandia, athomps@sandia.gov)
#
#  This script uses the following three include files.
#
#   init.mod      (must be modified for different crystal structures)
# 	       	  Define units, deformation parameters and initial
#		  configuration of the atoms and simulation cell.
#
#
#   potential.mod    (must be modified for different pair styles)
# 		     Define pair style and other attributes
#		     not stored in restart file
#
#
#   displace.mod    (displace.mod should not need to be modified)
# 		    Perform positive and negative box displacements
# 		    in direction ${dir} and size ${up}.
# 		    It uses the resultant changes
#		    in stress to compute one
# 		    row of the elastic stiffness tensor
#
#		    Inputs variables:
#		    	   dir = the Voigt deformation component
#		    		    (1,2,3,4,5,6)
#		    Global constants:
#       	    	   up = the deformation magnitude (strain units)
#       		   cfac = conversion from LAMMPS pressure units to
#               	   output units for elastic constants
#
#
#  To run this on a different system, it should only be necessary to
#  modify the files init.mod and potential.mod. In order to calculate
#  the elastic constants correctly, care must be taken to specify
#  the correct units in init.mod (units, cfac and cunits). It is also
#  important to verify that the minimization of energy w.r.t atom
#  positions in the deformed cell is fully converged.
#  One indication of this is that the elastic constants are insensitive
#  to the choice of the variable ${up} in init.mod. Another is to check
#  the final max and two-norm forces reported in the log file. If you know
#  that minimization is not required, you can set maxiter = 0.0 in
#  init.mod.
#



variable dt equal 0.01
variable strain equal 0.05
variable srate equal 1e-4
variable M equal 1000 # averaging time for properties
variable strainsteps equal ${strain}/${dt}/${srate}
variable strainsteps equal 0.05/${dt}/${srate}
variable strainsteps equal 0.05/0.01/${srate}
variable strainsteps equal 0.05/0.01/0.0001


dimension 2
include init.mod
# NOTE: This script can be modified for different atomic structures,
# units, etc. See in.elastic for more info.
#

# Define the finite deformation size. Try several values of this
# variable to verify that results do not depend on it.
variable up equal 1.0e-1

# Define the amount of random jiggle for atoms
# This prevents atoms from staying on saddle points
variable atomjiggle equal 1.0e-6

# Uncomment one of these blocks, depending on what units
# you are using in LAMMPS and for output

# metal units, elastic constants in eV/A^3
#units		metal
#variable cfac equal 6.2414e-7
#variable cunits string eV/A^3

# Choose potential
# metal units, elastic constants in GPa
units		metal
atom_style	full
#pair_style      lj/cut 1.0
#pair_style      yukawa 1.0 2.0
#pair_modify     mix arithmetic
bond_style      harmonic
angle_style     harmonic
dihedral_style  zero
special_bonds   amber
variable cfac equal 1.0e-4
variable cunits string GPa
boundary	p p p

# Need to set mass to something, just to satisfy LAMMPS
#mass 1 1.0e-20
read_data network.lmp
Reading data file ...
  orthogonal box = (-4.827663 -4.827663 -0.1) to (4.827663 4.827663 0.1)
  1 by 1 by 1 MPI processor grid
WARNING: Atom style in data file differs from currently defined atom style (src/read_data.cpp:538)
  reading atoms ...
  56 atoms
WARNING: Bond style in data file differs from currently defined bond style (src/read_data.cpp:630)
  scanning bonds ...
  5 = max bonds/atom
  reading bonds ...
  120 bonds
Finding 1-2 1-3 1-4 neighbors ...
  special bond factors lj:    0        0        0.5     
  special bond factors coul:  0        0        0.8333333333333334
     8 = max # of 1-2 neighbors
    29 = max # of 1-3 neighbors
   144 = max # of 1-4 neighbors
    28 = max # of special neighbors
  special bonds CPU = 0.000 seconds
  read_data CPU = 0.003 seconds

# real units, elastic constants in GPa
#units		real
#variable cfac equal 1.01325e-4
#variable cunits string GPa

# Define minimization parameters
variable etol equal 0.0
variable ftol equal 5.0e-10
variable maxiter equal 100000
variable maxeval equal 20000
variable dmax equal 1.0e-2


include potential.mod
# NOTE: This script can be modified for different pair styles
# See in.elastic for more info.

# Setup neighbor style
neighbor 3.0 nsq
neigh_modify once no every 1 delay 0 check yes
comm_modify cutoff 2.0

# Setup minimization style
min_style	     cg
min_modify	     dmax ${dmax} line quadratic
min_modify	     dmax 0.01 line quadratic

timestep	0.001


# Setup output
thermo		500
thermo_style custom step temp pe ebond eangle edihed press pxx pyy pzz pxy pxz pyz lx ly lz vol
thermo_modify norm no


#change_box all triclinic
comm_modify mode single cutoff 10.0 vel yes
atom_modify sort 0 0



# Compute initial state

#dump rela all atom 1 traj_relax.lmpstrj
fix 3 all box/relax x 0 y 0 # xy 0  #MS comment: relax if the network is periodic
minimize ${etol} ${ftol} ${maxiter} ${maxeval}
minimize 0 ${ftol} ${maxiter} ${maxeval}
minimize 0 5e-10 ${maxiter} ${maxeval}
minimize 0 5e-10 100000 ${maxeval}
minimize 0 5e-10 100000 20000
Neighbor list info ...
  update every 1 steps, delay 0 steps, check yes
  max neighbors/atom: 2000, page size: 100000
  master list distance cutoff = 0
  ghost atom cutoff = 10
  0 neighbor lists, perpetual/occasional/extra = 0 0 0
WARNING: Inconsistent image flags (src/domain.cpp:819)
Per MPI rank memory allocation (min/avg/max) = 8.713 | 8.713 | 8.713 Mbytes
   Step          Temp          PotEng         E_bond        E_angle        E_dihed         Press           Pxx            Pyy            Pzz            Pxy            Pxz            Pyz             Lx             Ly             Lz           Volume    
         0   0              4.1431046e-11  4.1431046e-11  0              0              0.30103725     0.37030744     0.23176707     0              0.10406947     0              0              9.655326       9.655326       0.2            93.22532     
       159   0              6.8991888e-14  6.8991888e-14  0              0              1.4832507e-06  1.5306188e-06  1.4358826e-06  0              5.503064e-06   0              0              9.6553275      9.6553255      0.2            93.22533     
Loop time of 0.00933886 on 1 procs for 159 steps with 56 atoms

100.0% CPU use with 1 MPI tasks x 1 OpenMP threads

Minimization stats:
  Stopping criterion = force tolerance
  Energy initial, next-to-last, final = 
    4.14310461359714e-11 6.89918898505057e-14 6.89918877054819e-14
  Force two-norm initial, final = 3.6573981e-05 3.0534702e-10
  Force max component initial, final = 2.1546958e-05 8.9061613e-11
  Final line search alpha, max atom move = 1 8.9061613e-11
  Iterations, force evaluations = 159 318

MPI task timing breakdown:
Section |  min time  |  avg time  |  max time  |%varavg| %total
---------------------------------------------------------------
Pair    | 0          | 0          | 0          |   0.0 |  0.00
Bond    | 0.0012746  | 0.0012746  | 0.0012746  |   0.0 | 13.65
Neigh   | 0          | 0          | 0          |   0.0 |  0.00
Comm    | 0.0028295  | 0.0028295  | 0.0028295  |   0.0 | 30.30
Output  | 0          | 0          | 0          |   0.0 |  0.00
Modify  | 0          | 0          | 0          |   0.0 |  0.00
Other   |            | 0.005235   |            |       | 56.05

Nlocal:             56 ave          56 max          56 min
Histogram: 1 0 0 0 0 0 0 0 0 0
Nghost:            469 ave         469 max         469 min
Histogram: 1 0 0 0 0 0 0 0 0 0
Neighs:              0 ave           0 max           0 min
Histogram: 1 0 0 0 0 0 0 0 0 0

Total # of neighbors = 0
Ave neighs/atom = 0
Ave special neighs/atom = 18.642857
Neighbor list builds = 0
Dangerous builds = 0
#dump rela all atom 1 traj_relax.lmpstrj
thermo 100
unfix 3

fix 2d all enforce2d



#dump dump0 all xyz 1000000 cfg0.xyz
#dump_modify dump0 format line "%d %20.10g %20.10g %20.10g"
#minimize ${etol} ${ftol} ${maxiter} ${maxeval}

#undump rela

#write_restart restart.equil

# These formulas define the derivatives w.r.t. strain components
# Constants uses $, variables use v_


timestep        ${dt}
timestep        0.01
variable nsteps equal round(${strainsteps})
variable nsteps equal round(50000)

fix             4 all nve
fix             5 all langevin 0.1 0.1 1 904297
#fix		6 all press/berendsen y  0.0 0.0 1 x 0.0 0.0 10
fix             6 all nph y 0.0 0.0 10 ptemp 0.1 # x 0.0 0.0 10

# For PLUMED2
# fix 22 all plumed plumedfile plumed.dat outfile plumed.out

#fix             6 all nph x 0.0 0.0 10
fix     	9 all deform 1 x erate -${srate} units box remap x
fix     	9 all deform 1 x erate -0.0001 units box remap x

#fix     8 all deform 1 xy erate ${srate} units box remap x



#fix    10 all ave/time

dump 1 all atom 250 deform_dump.lammpstrj


#To avoid flying ice cube phenomenon:
#fix 21 all momentum 100 linear 1 1 1 angular


run  ${nsteps}
run  50000
WARNING: One or more atoms are time integrated more than once (src/modify.cpp:292)
WARNING: Inconsistent image flags (src/domain.cpp:819)
Per MPI rank memory allocation (min/avg/max) = 7.588 | 7.588 | 7.588 Mbytes
   Step          Temp          PotEng         E_bond        E_angle        E_dihed         Press           Pxx            Pyy            Pzz            Pxy            Pxz            Pyz             Lx             Ly             Lz           Volume    
       159   0              6.8991888e-14  6.8991888e-14  0              0              1.4832507e-06  1.5306188e-06  1.4358826e-06  0              5.503064e-06   0              0              9.6553275      9.6553255      0.2            93.22533     
       200   0.14727509     0.00032531295  0.00032531295  0              0              119.79696      237.1668       2.2496997      0             -89.502195      0              0              9.6549317      9.6559985      0.2            93.228006    
       300   0.22400924     0.00075419575  0.00075419575  0              0              84.877258      161.79978      7.8332379      0             -138.6722       0              0              9.6539661      9.6615478      0.2            93.272255    
       400   0.20152273     0.00091596577  0.00091596577  0              0              395.35019      952.09785     -161.5448       0              417.02456      0              0              9.6530006      9.6577276      0.2            93.22605     
       500   0.17498913     0.00080061053  0.00080061053  0              0              441.83327      948.07536     -64.579824      0              391.09918      0              0              9.6520351      9.6527675      0.2            93.168851    
       600   0.20231134     0.00067180136  0.00067180136  0              0              106.48638     -89.90191       302.70915      0              417.17889      0              0              9.6510695      9.6559221      0.2            93.189975    
       700   0.23749397     0.00086064638  0.00086064638  0              0              574.76392      994.54813      154.81161      0              476.84076      0              0              9.650104       9.6535933      0.2            93.158179    
       800   0.20440717     0.00094935766  0.00094935766  0              0              119.69539      566.0065      -326.77517      0              644.75434      0              0              9.6491385      9.6479988      0.2            93.094876    
       900   0.20704078     0.0010112187   0.0010112187   0              0              394.30198      1339.0182     -550.56044      0              928.28466      0              0              9.6481729      9.6491872      0.2            93.097027    
      1000   0.20503053     0.001040356    0.001040356    0              0             -195.58841     -344.4129      -46.922198      0              449.7432       0              0              9.6472074      9.6378772      0.2            92.9786      
      1100   0.20245973     0.00093080564  0.00093080564  0              0              599.66942      500.40098      698.78768      0              627.82648      0              0              9.6462419      9.6368366      0.2            92.959256    
      1200   0.14879582     0.00092381463  0.00092381463  0              0              278.76212     -4.8626635      562.18204      0              338.97386      0              0              9.6452763      9.6398667      0.2            92.979178    
      1300   0.17347045     0.00090148014  0.00090148014  0              0             -38.08675       279.57809     -355.93302      0              1045.3332      0              0              9.6443108      9.6435915      0.2            93.005794    
      1400   0.21224645     0.00078063664  0.00078063664  0              0             -624.0615      -338.67105     -909.59328      0              385.70934      0              0              9.6433453      9.6422037      0.2            92.983099    
      1500   0.21104088     0.00095781406  0.00095781406  0              0             -261.23848     -183.89255     -338.75038      0              615.8313       0              0              9.6423797      9.6330401      0.2            92.88543     
      1600   0.22566443     0.0010099191   0.0010099191   0              0              480.73382      171.87643      789.39711      0              378.74289      0              0              9.6414142      9.6243753      0.2            92.792588    
      1700   0.206727       0.0010119577   0.0010119577   0              0              768.64138      675.47378      861.64755      0              586.74143      0              0              9.6404487      9.6235339      0.2            92.775184    
      1800   0.1696158      0.00085234988  0.00085234988  0              0              117.80734      287.41246     -51.940253      0              331.09054      0              0              9.6394831      9.6332224      0.2            92.859285    
      1900   0.20484378     0.00070503425  0.00070503425  0              0             -564.82868     -87.295995     -1042.5549      0              180.57385      0              0              9.6385176      9.6399274      0.2            92.91461     
      2000   0.24827337     0.000857389    0.000857389    0              0             -553.94896     -300.03551     -808.05407      0             -104.33834      0              0              9.6375521      9.640585       0.2            92.91164     
      2100   0.17408222     0.00090938027  0.00090938027  0              0              424.8597       166.7654       682.82962      0              167.72817      0              0              9.6365865      9.6335257      0.2            92.834304    
      2200   0.25369985     0.0011634133   0.0011634133   0              0              1079.2349      809.37129      1348.9519      0              113.74466      0              0              9.635621       9.6282368      0.2            92.774041    
      2300   0.24172043     0.0010479565   0.0010479565   0              0              720.67875      954.79281      486.38529      0             -82.816426      0              0              9.6346555      9.6361694      0.2            92.841172    
      2400   0.24972121     0.000944903    0.000944903    0              0              126.84545      954.36001     -700.82352      0              478.57393      0              0              9.6336899      9.6466933      0.2            92.933252    
      2500   0.18906983     0.001089627    0.001089627    0              0             -982.21284     -741.97901     -1222.6101      0              437.67913      0              0              9.6327244      9.6373418      0.2            92.833858    
      2600   0.20337388     0.00077250519  0.00077250519  0              0             -512.09357     -673.30482     -351.02328      0              183.08769      0              0              9.6317589      9.6400656      0.2            92.850787    
      2700   0.24109577     0.0007909542   0.0007909542   0              0              1206.2986      1341.9174      1070.5365      0              113.38331      0              0              9.6307933      9.638953       0.2            92.830764    
      2800   0.2200239      0.0010220875   0.0010220875   0              0              1559.0668      1864.0024      1253.9784      0             -260.98466      0              0              9.6298278      9.6463568      0.2            92.892755    
      2900   0.19596808     0.0010229728   0.0010229728   0              0              150.20747      205.36509      94.866001      0              155.66075      0              0              9.6288623      9.655928       0.2            92.9756      
      3000   0.21498568     0.0011795258   0.0011795258   0              0             -419.96584      374.07231     -1214.1556      0             -99.422311      0              0              9.6278967      9.6591095      0.2            92.996909    
      3100   0.20362104     0.00076597948  0.00076597948  0              0             -258.59805      404.79442     -922.16657      0              214.71108      0              0              9.6269312      9.6670387      0.2            93.063917    
      3200   0.19004963     0.0008234141   0.0008234141   0              0              34.141584     -137.85379      206.00311      0              605.61506      0              0              9.6259657      9.6606404      0.2            92.992993    
      3300   0.18316429     0.00087312388  0.00087312388  0              0              779.64923      604.48905      954.61998      0             -227.66406      0              0              9.6250001      9.6509886      0.2            92.890767    
      3400   0.22829421     0.00091711207  0.00091711207  0              0              670.18577      692.59766      647.61936      0             -254.63099      0              0              9.6240346      9.6526257      0.2            92.897204    
      3500   0.21339885     0.0010084218   0.0010084218   0              0              9.719275       237.01308     -217.76698      0              214.03259      0              0              9.6230691      9.6537031      0.2            92.898251    
      3600   0.20589123     0.0009478466   0.0009478466   0              0             -537.8611      -469.25901     -606.64881      0              329.58322      0              0              9.6221035      9.6482931      0.2            92.836875    
      3700   0.20100724     0.00087527255  0.00087527255  0              0             -135.85307      179.85416     -451.71993      0             -593.94714      0              0              9.621138       9.6532529      0.2            92.875278    
      3800   0.1807996      0.0011222216   0.0011222216   0              0             -85.514472     -418.36487      247.16405      0             -278.84643      0              0              9.6201725      9.64157        0.2            92.753566    
      3900   0.2367247      0.00099194657  0.00099194657  0              0              259.68657      12.556992      506.64697      0             -116.17068      0              0              9.6192069      9.6403773      0.2            92.732785    
      4000   0.24208216     0.00094022785  0.00094022785  0              0              347.93964      407.44492      288.27538      0             -237.59655      0              0              9.6182414      9.6348744      0.2            92.670548    
      4100   0.16089989     0.00086977093  0.00086977093  0              0              39.796575      257.9813      -178.54042      0             -60.291431      0              0              9.6172759      9.641269       0.2            92.722744    
      4200   0.23708943     0.00075223108  0.00075223108  0              0             -40.099966      373.30141     -453.67036      0             -2.2504387      0              0              9.6163103      9.6377284      0.2            92.679387    
      4300   0.19558686     0.0011076826   0.0011076826   0              0             -80.366751     -20.356337     -140.5038       0             -455.03821      0              0              9.6153448      9.6493241      0.2            92.781579    
      4400   0.20803294     0.0011470516   0.0011470516   0              0             -286.08499     -799.45809      227.13047      0             -413.29705      0              0              9.6143793      9.6428335      0.2            92.709859    
      4500   0.2366378      0.00099937286  0.00099937286  0              0              309.03873      361.54887      256.38671      0             -718.09705      0              0              9.6134137      9.6439426      0.2            92.711211    
      4600   0.19665311     0.00099506612  0.00099506612  0              0             -675.89517     -1104.1083     -247.8495       0             -128.5954       0              0              9.6124482      9.6411884      0.2            92.675424    
      4700   0.22457933     0.00088737708  0.00088737708  0              0             -363.99883     -333.50986     -394.69955      0             -124.43177      0              0              9.6114827      9.638941       0.2            92.644514    
      4800   0.23499982     0.0012062465   0.0012062465   0              0             -204.80121     -369.65651     -40.104498      0             -325.68858      0              0              9.6105172      9.6420669      0.2            92.665249    
      4900   0.22900648     0.00091185072  0.00091185072  0              0              636.37352      932.39504      340.17771      0             -124.98884      0              0              9.6095516      9.6302953      0.2            92.54282     
      5000   0.21860126     0.00082934946  0.00082934946  0              0              188.96289     -0.64540116     378.41174      0             -8.4963016      0              0              9.6085861      9.6353333      0.2            92.58193     
      5100   0.16573533     0.00091852013  0.00091852013  0              0             -41.454682     -236.54305      153.44793      0             -211.51573      0              0              9.6076206      9.6321654      0.2            92.542191    
      5200   0.23341556     0.0010053172   0.0010053172   0              0             -374.26639     -492.75866     -255.96743      0             -198.05493      0              0              9.606655       9.641912       0.2            92.626522    
      5300   0.1804402      0.00089159282  0.00089159282  0              0             -222.90493     -26.904552     -419.06353      0             -146.12344      0              0              9.6056895      9.6446089      0.2            92.643119    
      5400   0.20662347     0.00091736311  0.00091736311  0              0              272.87754      900.03317     -354.44639      0              708.80625      0              0              9.604724       9.6533117      0.2            92.717394    
      5500   0.22948165     0.0012078652   0.0012078652   0              0              720.45931      1187.7404      252.98704      0              237.36439      0              0              9.6037584      9.640758       0.2            92.587511    
      5600   0.20948245     0.0011911841   0.0011911841   0              0              561.39325      576.52792      546.07579      0              1025.8225      0              0              9.6027929      9.6480101      0.2            92.647842    
      5700   0.20533828     0.0010703166   0.0010703166   0              0              792.87855      1382.5318      203.05797      0              148.7427       0              0              9.6018274      9.6519718      0.2            92.676567    
      5800   0.16938073     0.0013579053   0.0013579053   0              0             -269.32548     -86.7304       -452.10281      0             -562.25018      0              0              9.6008618      9.6591787      0.2            92.73644     
      5900   0.1893059      0.00099483739  0.00099483739  0              0              411.93347      1279.0006     -455.30749      0              361.7707       0              0              9.5998963      9.6409169      0.2            92.551802    
      6000   0.19081735     0.00086025705  0.00086025705  0              0              271.21325      442.47711      99.80181       0              70.915008      0              0              9.5989308      9.6353596      0.2            92.48915     
      6100   0.20030562     0.00096556024  0.00096556024  0              0              103.01464     -412.90404      618.77949      0             -189.80427      0              0              9.5979652      9.6367615      0.2            92.493302    
      6200   0.18872048     0.0010520972   0.0010520972   0              0              619.18424      723.76747      514.43008      0              384.29042      0              0              9.5969997      9.6403418      0.2            92.518357    
      6300   0.23093952     0.00079067873  0.00079067873  0              0              131.38102      325.32453     -62.722396      0             -431.30446      0              0              9.5960342      9.6562419      0.2            92.661627    
      6400   0.20948067     0.00085439812  0.00085439812  0              0             -77.910336      491.22225     -647.21084      0              405.3065       0              0              9.5950686      9.6686656      0.2            92.77151     
      6500   0.22894421     0.00085479043  0.00085479043  0              0             -617.91615     -611.37071     -624.65747      0             -262.65046      0              0              9.5941031      9.6789074      0.2            92.860435    
      6600   0.24450752     0.0010206998   0.0010206998   0              0              8.7075502      48.864747     -31.622054      0             -335.34798      0              0              9.5931376      9.6854698      0.2            92.914044    
      6700   0.21235696     0.00093301755  0.00093301755  0              0              349.3043       131.34081      567.10652      0              319.2361       0              0              9.592172       9.6725498      0.2            92.780762    
      6800   0.1862545      0.0010786842   0.0010786842   0              0              780.43663      903.18319      657.47847      0              1062.3104      0              0              9.5912065      9.6646875      0.2            92.696014    
      6900   0.24197739     0.00083996339  0.00083996339  0              0             -72.957714     -259.19417      113.10517      0              114.445        0              0              9.590241       9.6660596      0.2            92.699841    
      7000   0.23251089     0.0011351112   0.0011351112   0              0             -510.42796     -276.52941     -744.47959      0              569.72618      0              0              9.5892754      9.6805694      0.2            92.829646    
      7100   0.21062535     0.00089566907  0.00089566907  0              0             -586.28001     -464.66592     -708.05347      0              557.21409      0              0              9.5883099      9.6648195      0.2            92.669284    
      7200   0.21243928     0.0008574301   0.0008574301   0              0              32.67801       163.71097     -98.534585      0             -54.211437      0              0              9.5873444      9.6557494      0.2            92.572994    
      7300   0.18406588     0.0008704727   0.0008704727   0              0              402.58978     -95.692075      900.71768      0              366.33618      0              0              9.5863788      9.6455747      0.2            92.466133    
      7400   0.19987484     0.00073584562  0.00073584562  0              0              211.15009     -740.43971      1162.5903      0              155.69126      0              0              9.5854133      9.6546508      0.2            92.543818    
      7500   0.13813252     0.00079369288  0.00079369288  0              0              124.76262      217.9123       31.415891      0              10.666199      0              0              9.5844478      9.6650788      0.2            92.634443    
      7600   0.20869921     0.001041886    0.001041886    0              0             -413.74216      629.73845     -1457.3605      0              197.21121      0              0              9.5834822      9.6727797      0.2            92.698913    
      7700   0.25377218     0.00093504202  0.00093504202  0              0             -926.71422     -379.528       -1474.0592      0              213.85843      0              0              9.5825167      9.6663956      0.2            92.628398    
      7800   0.25141993     0.00093966583  0.00093966583  0              0             -17.905581     -27.055873     -8.8745093      0              284.2247       0              0              9.5815512      9.6625752      0.2            92.582459    
      7900   0.19828971     0.00083729651  0.00083729651  0              0              1185.8753      743.1097       1628.4809      0             -125.28881      0              0              9.5805856      9.6417318      0.2            92.373437    
      8000   0.21859698     0.00073519728  0.00073519728  0              0              276.05692     -833.22377      1385.1504      0              46.141823      0              0              9.5796201      9.6367303      0.2            92.316215    
      8100   0.20556602     0.0007692547   0.0007692547   0              0              56.084396      501.99341     -390.00952      0             -108.55162      0              0              9.5786546      9.6514921      0.2            92.448309    
      8200   0.15782713     0.00078766417  0.00078766417  0              0             -596.78026      261.47861     -1455.2024      0             -21.16411       0              0              9.577689       9.6689824      0.2            92.606506    
      8300   0.22826739     0.0009639361   0.0009639361   0              0             -137.09294      378.22001     -652.6226       0              268.18762      0              0              9.5767235      9.6710577      0.2            92.617046    
      8400   0.21166328     0.00090364247  0.00090364247  0              0              782.56753      1071.782       493.17554      0              666.84153      0              0              9.575758       9.6697707      0.2            92.595384    
      8500   0.2196919      0.00075633895  0.00075633895  0              0              574.39469      102.7526       1045.8742      0             -420.35724      0              0              9.5747924      9.6702618      0.2            92.59075     
      8600   0.2245053      0.00078883545  0.00078883545  0              0              906.05743      1245.3592      566.5604       0             -344.27153      0              0              9.5738269      9.676654       0.2            92.642611    
      8700   0.22585161     0.0010409467   0.0010409467   0              0              212.88129      859.76879     -434.19008      0             -133.35981      0              0              9.5728614      9.6945206      0.2            92.804301    
      8800   0.24924866     0.0010124674   0.0010124674   0              0             -303.68715      313.6107      -921.11735      0             -196.37384      0              0              9.5718958      9.6936629      0.2            92.786732    
      8900   0.24027583     0.0010171426   0.0010171426   0              0             -90.943694      214.60121     -396.62687      0             -7.4870307      0              0              9.5709303      9.6874104      0.2            92.71753     
      9000   0.13928024     0.00080386405  0.00080386405  0              0              219.50747     -171.61892      610.46732      0              182.19893      0              0              9.5699648      9.6783164      0.2            92.621147    
      9100   0.196661       0.00094807164  0.00094807164  0              0              367.92483     -132.87734      868.54545      0             -204.26174      0              0              9.5689992      9.6893412      0.2            92.717299    
      9200   0.23141699     0.0010850528   0.0010850528   0              0              135.47106     -63.584906      334.37661      0              662.78724      0              0              9.5680337      9.6881127      0.2            92.696189    
      9300   0.16624054     0.00087555285  0.00087555285  0              0             -363.36557     -155.7147      -571.17984      0             -67.549526      0              0              9.5670682      9.7035702      0.2            92.834718    
      9400   0.18071161     0.00081065097  0.00081065097  0              0             -769.96073     -748.16318     -791.89243      0              366.71413      0              0              9.5661026      9.7079563      0.2            92.867306    
      9500   0.20817907     0.0010401091   0.0010401091   0              0              410.15886      920.69496     -100.56199      0              157.22891      0              0              9.5651371      9.7101679      0.2            92.879087    
      9600   0.18999519     0.00088791652  0.00088791652  0              0              8.5458314     -640.67889      657.60934      0             -251.10192      0              0              9.5641716      9.7148913      0.2            92.914887    
      9700   0.16299146     0.00089257647  0.00089257647  0              0              354.73809     -56.318448      765.62137      0             -73.756438      0              0              9.563206       9.7072043      0.2            92.831995    
      9800   0.21370627     0.00088615755  0.00088615755  0              0              17.197865     -54.452327      88.660809      0              139.92079      0              0              9.5622405      9.6956729      0.2            92.712356    
      9900   0.2418116      0.00082595277  0.00082595277  0              0             -594.94196     -497.62688     -692.44764      0             -276.9032       0              0              9.561275       9.708076       0.2            92.821584    
     10000   0.16147162     0.001169685    0.001169685    0              0             -278.94225      220.68597     -778.70716      0              436.52673      0              0              9.5603094      9.7043605      0.2            92.776689    
     10100   0.25226683     0.00095158323  0.00095158323  0              0             -258.95143     -543.96777      25.864191      0              385.44852      0              0              9.5593439      9.7028501      0.2            92.752881    
     10200   0.18833416     0.0012483731   0.0012483731   0              0              320.19938     -12.448796      652.67648      0              495.03378      0              0              9.5583784      9.6993898      0.2            92.710438    
     10300   0.2152926      0.0010484272   0.0010484272   0              0             -17.819627     -727.33751      691.54586      0              485.40983      0              0              9.5574129      9.7080811      0.2            92.784139    
     10400   0.20939629     0.00089798042  0.00089798042  0              0             -300.33773     -525.91936     -74.942658      0              689.24611      0              0              9.5564473      9.7081465      0.2            92.775391    
     10500   0.20288831     0.0010453746   0.0010453746   0              0             -529.09126     -139.40078     -918.94348      0             -163.9849       0              0              9.5554818      9.7077054      0.2            92.761803    
     10600   0.22288877     0.00086551823  0.00086551823  0              0             -553.80977     -393.71138     -714.05483      0              460.21889      0              0              9.5545163      9.6968048      0.2            92.648279    
     10700   0.23962025     0.00089658335  0.00089658335  0              0              304.03564      470.99399      136.91819      0              294.31619      0              0              9.5535507      9.6874986      0.2            92.550009    
     10800   0.21935423     0.00099742303  0.00099742303  0              0              340.03783     -36.7263        716.61714      0              466.85276      0              0              9.5525852      9.6858249      0.2            92.524668    
     10900   0.2404765      0.00087451674  0.00087451674  0              0              952.42148      1480.0105      424.6582       0              330.3672       0              0              9.5516197      9.6912388      0.2            92.567027    
     11000   0.19377268     0.00089301315  0.00089301315  0              0              705.97777      1441.8472     -30.030562      0              324.55598      0              0              9.5506541      9.6920191      0.2            92.565122    
     11100   0.21281439     0.00093338198  0.00093338198  0              0             -392.7424      -248.70664     -536.91633      0              140.43964      0              0              9.5496886      9.6956997      0.2            92.590913    
     11200   0.20712462     0.00096938181  0.00096938181  0              0             -669.18564     -899.252       -439.29125      0              579.07273      0              0              9.5487231      9.6886019      0.2            92.513777    
     11300   0.17548296     0.00087242405  0.00087242405  0              0              234.59006      601.59771     -132.57672      0              354.46306      0              0              9.5477575      9.6804833      0.2            92.426907    
     11400   0.21324369     0.001090249    0.001090249    0              0              1112.5247      1917.1617      307.73894      0              18.96833       0              0              9.546792       9.6779041      0.2            92.392937    
     11500   0.2104286      0.00083532977  0.00083532977  0              0              366.07415      293.16081      438.80666      0              429.72722      0              0              9.5458265      9.6752709      0.2            92.358457    
     11600   0.21593108     0.0009554757   0.0009554757   0              0              209.18684      213.10605      205.12347      0             -193.59185      0              0              9.5448609      9.673628       0.2            92.333434    
     11700   0.19121915     0.0010392619   0.0010392619   0              0              127.21668      371.64249     -117.42044      0              383.91012      0              0              9.5438954      9.6683758      0.2            92.273968    
     11800   0.18868874     0.00082504416  0.00082504416  0              0             -225.60753     -272.03402     -179.35284      0              11.459446      0              0              9.5429299      9.6714199      0.2            92.293682    
     11900   0.19868084     0.00084229256  0.00084229256  0              0             -574.32627     -984.99636     -163.86487      0              307.93973      0              0              9.5419643      9.6699766      0.2            92.270572    
     12000   0.18191963     0.00084457195  0.00084457195  0              0              46.365541     -140.06347      232.65319      0              15.526049      0              0              9.5409988      9.6626953      0.2            92.191764    
     12100   0.16058077     0.00072215528  0.00072215528  0              0              76.380925     -261.62036      414.21383      0              218.28973      0              0              9.5400333      9.6533865      0.2            92.093629    
     12200   0.21424836     0.00091160874  0.00091160874  0              0             -416.11534     -990.79621      158.42369      0             -472.24531      0              0              9.5390677      9.6614758      0.2            92.161472    
     12300   0.20550662     0.00089273329  0.00089273329  0              0             -611.72072     -1143.9415     -79.672022      0             -227.84568      0              0              9.5381022      9.6518053      0.2            92.059905    
     12400   0.18186879     0.00083147378  0.00083147378  0              0             -246.4198      -112.32081     -380.70972      0              123.83965      0              0              9.5371367      9.6578501      0.2            92.108236    
     12500   0.20437472     0.00074553246  0.00074553246  0              0              174.99633      806.88449     -457.06877      0             -540.77883      0              0              9.5361711      9.668188       0.2            92.197496    
     12600   0.1977337      0.00080004652  0.00080004652  0              0             -270.62312     -438.61605     -102.80099      0             -900.44519      0              0              9.5352056      9.6611164      0.2            92.120731    
     12700   0.14959669     0.00083272546  0.00083272546  0              0              33.591035     -134.07005      201.09479      0             -235.80452      0              0              9.5342401      9.6620672      0.2            92.120468    
     12800   0.17064627     0.00087193975  0.00087193975  0              0             -293.51843     -994.14184      406.93964      0              180.08137      0              0              9.5332745      9.6560444      0.2            92.053722    
     12900   0.18570524     0.00079700411  0.00079700411  0              0              324.4259       378.5375       270.14048      0              198.43837      0              0              9.532309       9.6550992      0.2            92.035389    
     13000   0.24305631     0.00095023868  0.00095023868  0              0             -218.76595     -226.09186     -211.64248      0             -468.89013      0              0              9.5313435      9.6709721      0.2            92.177357    
     13100   0.17524574     0.0010038543   0.0010038543   0              0             -426.64144     -454.14577     -399.33508      0             -150.97309      0              0              9.5303779      9.6674627      0.2            92.134573    
     13200   0.27772867     0.00086954528  0.00086954528  0              0             -161.79437     -41.770561     -281.95776      0              195.99732      0              0              9.5294124      9.6522567      0.2            91.980334    
     13300   0.20678218     0.00090329771  0.00090329771  0              0              276.04985      228.46143      323.47802      0              222.0752       0              0              9.5284469      9.6534679      0.2            91.982556    
     13400   0.14959087     0.0010856104   0.0010856104   0              0              1050.634       1454.9254      646.14813      0             -192.43152      0              0              9.5274813      9.6582097      0.2            92.018413    
     13500   0.19378137     0.0010755915   0.0010755915   0              0              837.11223      1149.933       524.11168      0              6.3948139      0              0              9.5265158      9.6482064      0.2            91.913791    
     13600   0.23985522     0.00079129088  0.00079129088  0              0             -84.065047      205.30058     -373.59836      0              120.2001       0              0              9.5255503      9.6484414      0.2            91.906714    
     13700   0.2184225      0.0011351968   0.0011351968   0              0             -277.15225      207.10654     -761.60775      0             -566.37852      0              0              9.5245847      9.6470572      0.2            91.884213    
     13800   0.2104922      0.0010096411   0.0010096411   0              0             -307.99314     -48.358475     -567.77508      0             -202.59339      0              0              9.5236192      9.643721       0.2            91.843127    
     13900   0.21015236     0.00084940509  0.00084940509  0              0              918.79102      1592.7489      244.64877      0              70.921639      0              0              9.5226537      9.6457427      0.2            91.853067    
     14000   0.18720188     0.00073380283  0.00073380283  0              0              485.79013      232.08054      739.33593      0             -33.925182      0              0              9.5216881      9.6367225      0.2            91.757866    
     14100   0.2007014      0.00087577999  0.00087577999  0              0              562.72095      435.94629      689.34556      0             -491.63187      0              0              9.5207226      9.6489257      0.2            91.864745    
     14200   0.20936948     0.0010010596   0.0010010596   0              0             -370.95885     -766.53798      24.435898      0             -97.305203      0              0              9.5197571      9.6571394      0.2            91.933621    
     14300   0.18165185     0.00098439935  0.00098439935  0              0             -548.70565     -325.5079      -772.09252      0             -325.84245      0              0              9.5187915      9.6619213      0.2            91.969815    
     14400   0.20536405     0.0010541878   0.0010541878   0              0             -88.69036       699.96615     -877.50793      0             -203.73669      0              0              9.517826       9.6725455      0.2            92.061605    
     14500   0.18393198     0.00088402241  0.00088402241  0              0              100.64254      528.70498     -327.59628      0              157.44092      0              0              9.5168605      9.6722136      0.2            92.049107    
     14600   0.25979255     0.00091652778  0.00091652778  0              0              512.8438       547.58027      477.92766      0              89.362798      0              0              9.5158949      9.6754136      0.2            92.070219    
     14700   0.19229645     0.0010103564   0.0010103564   0              0              1010.1135      1183.5011      836.57648      0             -596.7992       0              0              9.5149294      9.6794081      0.2            92.098885    
     14800   0.2025679      0.00098642722  0.00098642722  0              0              972.05538      1328.2327      615.70481      0              30.242151      0              0              9.5139639      9.6693806      0.2            91.994138    
     14900   0.18040598     0.00086082399  0.00086082399  0              0              817.44881      1628.2592      6.4922321      0             -56.761776      0              0              9.5129983      9.6705662      0.2            91.99608     
     15000   0.2399683      0.00105803     0.00105803     0              0             -662.51455     -769.20856     -555.95563      0             -239.48084      0              0              9.5120328      9.6720926      0.2            92.001263    
     15100   0.24849085     0.0008517706   0.0008517706   0              0             -343.03257     -112.38267     -573.82995      0             -344.58106      0              0              9.5110673      9.6755011      0.2            92.024342    
     15200   0.234376       0.00090767044  0.00090767044  0              0              223.15173      642.7677      -196.58746      0              166.38898      0              0              9.5101017      9.6749387      0.2            92.009652    
     15300   0.19831384     0.00095841692  0.00095841692  0              0              345.05142      173.57762      516.32592      0             -322.55251      0              0              9.5091362      9.66485        0.2            91.904375    
     15400   0.2133632      0.00094299317  0.00094299317  0              0              920.14151      1077.6911      762.38949      0             -1370.6259      0              0              9.5081707      9.6637054      0.2            91.88416     
     15500   0.19404697     0.00096716111  0.00096716111  0              0             -97.636129     -503.06351      307.66125      0             -874.75275      0              0              9.5072051      9.6680536      0.2            91.916169    
     15600   0.15221154     0.00085358145  0.00085358145  0              0             -356.80427     -430.27642     -283.49329      0             -537.38356      0              0              9.5062396      9.6739431      0.2            91.962821    
     15700   0.19861115     0.0010577793   0.0010577793   0              0             -729.2137      -892.49279     -566.105        0             -449.55415      0              0              9.5052741      9.6793452      0.2            92.004829    
     15800   0.19968312     0.00089429733  0.00089429733  0              0             -421.60563     -622.00671     -221.37493      0             -311.70056      0              0              9.5043085      9.676511       0.2            91.968546    
     15900   0.23714814     0.00089333195  0.00089333195  0              0             -684.42396     -1534.4075      165.40673      0             -367.8414       0              0              9.503343       9.6648935      0.2            91.848798    
     16000   0.1823086      0.00063217889  0.00063217889  0              0              40.323931     -244.99512      325.47625      0             -788.9506       0              0              9.5023775      9.6708057      0.2            91.895646    
     16100   0.18601004     0.00087399768  0.00087399768  0              0              195.13357     -20.364338      410.46073      0              104.69304      0              0              9.501412       9.6623457      0.2            91.805927    
     16200   0.18757815     0.0011413476   0.0011413476   0              0              181.05044      288.52737      73.411281      0             -157.94125      0              0              9.5004464      9.6623153      0.2            91.796309    
     16300   0.23163761     0.00090012125  0.00090012125  0              0             -10.079871      396.85822     -417.20688      0              265.80092      0              0              9.4994809      9.6715349      0.2            91.874561    
     16400   0.20755775     0.0010495854   0.0010495854   0              0             -748.29806     -855.15596     -641.58923      0             -474.25097      0              0              9.4985154      9.68208        0.2            91.965386    
     16500   0.19070844     0.00086086953  0.00086086953  0              0             -72.115963      82.017568     -226.39267      0             -156.8247       0              0              9.4975498      9.6786034      0.2            91.923018    
     16600   0.2172296      0.00081218631  0.00081218631  0              0              458.76561      669.55107      247.8133       0              163.81419      0              0              9.4965843      9.6667463      0.2            91.801071    
     16700   0.19780506     0.00074318237  0.00074318237  0              0              693.04072      815.1538       570.74342      0             -373.04427      0              0              9.4956188      9.6534243      0.2            91.665237    
     16800   0.21255244     0.00079043594  0.00079043594  0              0              421.81526      315.89337      527.58366      0             -463.69393      0              0              9.4946532      9.6458768      0.2            91.584255    
     16900   0.23227809     0.0007808393   0.0007808393   0              0              189.40217      473.99398     -95.364901      0              467.49184      0              0              9.4936877      9.6583854      0.2            91.693694    
     17000   0.21567458     0.00085389391  0.00085389391  0              0             -631.0494      -751.06938     -511.20798      0              112.19595      0              0              9.4927222      9.6534568      0.2            91.637584    
     17100   0.20943554     0.00076934167  0.00076934167  0              0             -371.98986     -152.97297     -591.20509      0              283.81323      0              0              9.4917566      9.6496599      0.2            91.592223    
     17200   0.17060033     0.00074923376  0.00074923376  0              0              228.50192      692.87249     -236.03836      0             -161.97129      0              0              9.4907911      9.6559466      0.2            91.642572    
     17300   0.21107719     0.00099152214  0.00099152214  0              0              291.3825       522.12743      60.476327      0              173.62496      0              0              9.4898256      9.6737649      0.2            91.802341    
     17400   0.22292042     0.00086603321  0.00086603321  0              0              465.22603      410.41874      519.84402      0             -441.61061      0              0              9.48886        9.6600139      0.2            91.66252     
     17500   0.14931512     0.00077198677  0.00077198677  0              0              294.9268       287.68299      301.99801      0             -149.03194      0              0              9.4878945      9.6719644      0.2            91.766578    
     17600   0.18715149     0.00090861014  0.00090861014  0              0              42.289231     -75.246246      159.66984      0              118.05978      0              0              9.486929       9.6630215      0.2            91.672398    
     17700   0.192908       0.0011736569   0.0011736569   0              0              409.54349      931.2791      -112.36186      0              187.12259      0              0              9.4859634      9.6744935      0.2            91.771891    
     17800   0.24417845     0.0007465559   0.0007465559   0              0             -58.532632      367.6632      -484.9218       0             -77.619123      0              0              9.4849979      9.6718166      0.2            91.73716     
     17900   0.18340076     0.0008584917   0.0008584917   0              0             -556.10981     -605.69803     -506.68372      0             -98.09715       0              0              9.4840324      9.6759371      0.2            91.766901    
     18000   0.16865803     0.00089641873  0.00089641873  0              0             -227.31963     -373.23946     -81.57176       0             -30.107914      0              0              9.4830668      9.6778225      0.2            91.775437    
     18100   0.19287257     0.00095345625  0.00095345625  0              0              432.4121       462.43356      402.22738      0             -245.5972       0              0              9.4821013      9.6724005      0.2            91.714681    
     18200   0.21612173     0.00077051603  0.00077051603  0              0              313.74395      168.82554      458.49446      0              427.87586      0              0              9.4811358      9.6725962      0.2            91.707198    
     18300   0.19988086     0.00085286318  0.00085286318  0              0              98.945371     -3.2628556      201.0089       0             -85.857027      0              0              9.4801702      9.6813563      0.2            91.780906    
     18400   0.21947686     0.00092895376  0.00092895376  0              0             -59.486332      146.9699      -266.12795      0             -381.88425      0              0              9.4792047      9.683613       0.2            91.792949    
     18500   0.22268925     0.00097761107  0.00097761107  0              0              24.494303      378.97113     -330.13391      0             -481.94373      0              0              9.4782392      9.6797109      0.2            91.746615    
     18600   0.19586873     0.00091938512  0.00091938512  0              0              10.12028       51.347508     -31.284362      0             -27.290146      0              0              9.4772736      9.6844042      0.2            91.781748    
     18700   0.18973394     0.00090188918  0.00090188918  0              0              5.7946376     -204.52953      215.96639      0             -52.171225      0              0              9.4763081      9.6829917      0.2            91.759012    
     18800   0.16686576     0.0007220554   0.0007220554   0              0             -111.07095     -627.31272      405.01756      0              542.67344      0              0              9.4753426      9.6815109      0.2            91.735632    
     18900   0.17596456     0.00089380493  0.00089380493  0              0              256.32119      484.17593      28.309688      0              292.36345      0              0              9.474377       9.6903254      0.2            91.809797    
     19000   0.18977048     0.0010693687   0.0010693687   0              0             -502.01092     -720.55513     -283.64934      0              14.418076      0              0              9.4734115      9.7017745      0.2            91.908902    
     19100   0.25819544     0.00096939987  0.00096939987  0              0             -710.37117     -1154.7335     -266.13113      0              706.73738      0              0              9.472446       9.7032514      0.2            91.913524    
     19200   0.22727189     0.00074843302  0.00074843302  0              0             -67.51326      -80.065259     -55.107744      0             -478.88312      0              0              9.4714804      9.6903179      0.2            91.781657    
     19300   0.22887334     0.00081226467  0.00081226467  0              0             -74.340668     -274.16292      125.3171       0             -437.32763      0              0              9.4705149      9.6821883      0.2            91.695309    
     19400   0.20003026     0.00091362519  0.00091362519  0              0             -643.57886     -1445.2089      157.89995      0             -527.48079      0              0              9.4695494      9.6873454      0.2            91.734795    
     19500   0.1661018      0.0009616141   0.0009616141   0              0              366.89067      658.5396       75.066681      0             -321.00803      0              0              9.4685838      9.6736097      0.2            91.595385    
     19600   0.22784306     0.00080885506  0.00080885506  0              0              241.61242      493.66819     -10.624876      0              118.03562      0              0              9.4676183      9.6746064      0.2            91.595481    
     19700   0.21009298     0.00085974961  0.00085974961  0              0              141.81594      341.19813     -57.755016      0             -476.69829      0              0              9.4666528      9.6750443      0.2            91.590285    
     19800   0.16648161     0.00095240416  0.00095240416  0              0              618.49219      1429.2291     -192.42453      0              132.79666      0              0              9.4656872      9.6747027      0.2            91.57771     
     19900   0.23982494     0.00082234027  0.00082234027  0              0              388.83552      886.88869     -109.37956      0              521.91934      0              0              9.4647217      9.6621993      0.2            91.450027    
     20000   0.19980906     0.00087313817  0.00087313817  0              0              47.078856     -50.548564      144.53417      0              218.62651      0              0              9.4637562      9.6740997      0.2            91.553321    
     20100   0.22399118     0.0009556487   0.0009556487   0              0             -81.655993     -371.12084      207.66218      0             -385.20237      0              0              9.4627906      9.6725102      0.2            91.528939    
     20200   0.22577155     0.00082094652  0.00082094652  0              0              303.63834      503.17107      103.95443      0             -105.12732      0              0              9.4618251      9.6676994      0.2            91.47408     
     20300   0.23777599     0.00086864297  0.00086864297  0              0              488.38209      1262.1743     -285.54413      0             -467.7431       0              0              9.4608596      9.6759576      0.2            91.542876    
     20400   0.20174718     0.00092724369  0.00092724369  0              0             -310.39673     -224.0375      -396.8925       0              124.28931      0              0              9.459894       9.6796332      0.2            91.568304    
     20500   0.19173579     0.00091141924  0.00091141924  0              0              19.949623     -34.126769      73.831502      0              17.589959      0              0              9.4589285      9.6706185      0.2            91.473689    
     20600   0.22480015     0.00098081158  0.00098081158  0              0              322.26721      30.729854      613.65193      0              443.12306      0              0              9.457963       9.6592675      0.2            91.356994    
     20700   0.23340067     0.0007368643   0.0007368643   0              0              506.1919       239.21194      772.97324      0              648.72578      0              0              9.4569974      9.6691715      0.2            91.44133     
     20800   0.21558981     0.00085720147  0.00085720147  0              0              967.80497      1855.0126      80.418128      0             -565.09974      0              0              9.4560319      9.6858         0.2            91.589234    
     20900   0.20184618     0.0011503524   0.0011503524   0              0             -306.81798     -116.52749     -497.25292      0              44.036246      0              0              9.4550664      9.6814371      0.2            91.538631    
     21000   0.16543612     0.0009060369   0.0009060369   0              0              97.182059      1106.3975     -912.20808      0             -166.25536      0              0              9.4541008      9.6926618      0.2            91.635402    
     21100   0.2254084      0.00093135623  0.00093135623  0              0              605.71422      1733.0639     -521.76559      0              816.19871      0              0              9.4531353      9.6830133      0.2            91.534835    
     21200   0.26296752     0.0010188628   0.0010188628   0              0              1050.6379      1734.3241      366.80185      0              48.526981      0              0              9.4521698      9.6754595      0.2            91.454086    
     21300   0.21687649     0.001357048    0.001357048    0              0              1146.9544      1100.9822      1192.7197      0              189.04306      0              0              9.4512042      9.6504364      0.2            91.208246    
     21400   0.15060308     0.00092337038  0.00092337038  0              0              955.59537      719.6404       1191.3926      0             -223.28023      0              0              9.4502387      9.6624454      0.2            91.312416    
     21500   0.21395232     0.0007988928   0.0007988928   0              0              555.40185      965.87739      144.75295      0              257.59002      0              0              9.4492732      9.6722637      0.2            91.395862    
     21600   0.16226015     0.0011875734   0.0011875734   0              0             -846.57889     -521.72805     -1171.5716      0             -335.28586      0              0              9.4483076      9.6721237      0.2            91.385201    
     21700   0.24559785     0.0010090745   0.0010090745   0              0             -720.23805      47.075816     -1487.7168      0              583.83728      0              0              9.4473421      9.6814504      0.2            91.463974    
     21800   0.22837221     0.00097204143  0.00097204143  0              0             -411.80633     -177.1931      -646.62243      0              207.95128      0              0              9.4463766      9.6693818      0.2            91.340622    
     21900   0.25419139     0.0007323714   0.0007323714   0              0              396.22402      254.21504      538.05954      0              221.0989       0              0              9.4454111      9.6636482      0.2            91.27713     
     22000   0.21600496     0.0010170093   0.0010170093   0              0              616.75673      101.88518      1131.4847      0              540.78769      0              0              9.4444455      9.6523244      0.2            91.160852    
     22100   0.19867459     0.00080174025  0.00080174025  0              0              1113.8731      1451.5356      776.03702      0              75.287999      0              0              9.44348        9.6573428      0.2            91.198924    
     22200   0.21296545     0.0010448753   0.0010448753   0              0              161.5632       279.29697      43.644025      0              185.00282      0              0              9.4425145      9.6587462      0.2            91.202851    
     22300   0.23641975     0.00080992213  0.00080992213  0              0             -433.91211     -332.64161     -535.33609      0              680.0681       0              0              9.4415489      9.6579141      0.2            91.185668    
     22400   0.17054195     0.00062625217  0.00062625217  0              0             -41.161996      449.66499     -532.19477      0              163.56714      0              0              9.4405834      9.6599516      0.2            91.195579    
     22500   0.18131929     0.0007347405   0.0007347405   0              0              74.991126      436.93323     -287.11537      0              607.26542      0              0              9.4396179      9.6556869      0.2            91.145994    
     22600   0.2228076      0.00092074086  0.00092074086  0              0              589.61203      1171.6397      7.4336279      0              651.02147      0              0              9.4386523      9.6532962      0.2            91.114107    
     22700   0.23731571     0.00092754202  0.00092754202  0              0             -111.80662     -286.41893      62.680446      0             -179.05863      0              0              9.4376868      9.6544609      0.2            91.115778    
     22800   0.21841773     0.00095544694  0.00095544694  0              0              113.11149      115.20969      110.84813      0             -374.16898      0              0              9.4367213      9.6544468      0.2            91.106323    
     22900   0.22868263     0.00072493113  0.00072493113  0              0              173.8529       41.757201      305.77293      0             -150.16819      0              0              9.4357557      9.6642726      0.2            91.189716    
     23000   0.21425716     0.00085164393  0.00085164393  0              0              755.47823      1316.676       194.16553      0             -196.42945      0              0              9.4347902      9.6593175      0.2            91.133634    
     23100   0.1906391      0.00064367467  0.00064367467  0              0              184.23947      315.95676      52.341275      0              372.87863      0              0              9.4338247      9.6621231      0.2            91.150775    
     23200   0.17930445     0.00095404354  0.00095404354  0              0              327.77571      777.77129     -122.39893      0             -307.75887      0              0              9.4328591      9.656179       0.2            91.085376    
     23300   0.20066394     0.00075757857  0.00075757857  0              0              48.201012      348.40983     -252.19068      0             -186.46994      0              0              9.4318936      9.6584865      0.2            91.097817    
     23400   0.2031363      0.00088375357  0.00088375357  0              0             -550.5894      -787.98071     -313.3475       0             -214.57375      0              0              9.4309281      9.6667218      0.2            91.166158    
     23500   0.23112926     0.00069418344  0.00069418344  0              0              330.30072      650.43663      9.9800707      0             -733.41895      0              0              9.4299625      9.6666463      0.2            91.156112    
     23600   0.15968438     0.00090138532  0.00090138532  0              0              218.23358      265.59007      170.6902       0             -335.54267      0              0              9.428997       9.6664174      0.2            91.144621    
     23700   0.21748061     0.000804608    0.000804608    0              0             -165.28949     -570.31318      239.57749      0             -43.486395      0              0              9.4280315      9.661056       0.2            91.08474     
     23800   0.15694105     0.0012631225   0.0012631225   0              0              108.49151      144.2556       72.556829      0              606.45569      0              0              9.4270659      9.6455959      0.2            90.929669    
     23900   0.21187704     0.00085867429  0.00085867429  0              0              187.18111      526.81427     -152.64281      0             -33.618209      0              0              9.4261004      9.6517289      0.2            90.978166    
     24000   0.24473036     0.00081408161  0.00081408161  0              0             -318.82818     -273.81326     -364.00927      0             -224.86715      0              0              9.4251349      9.6430201      0.2            90.886765    
     24100   0.20213914     0.00083741683  0.00083741683  0              0             -116.83882     -40.333832     -193.51844      0              4.0296355      0              0              9.4241693      9.6445722      0.2            90.892082    
     24200   0.18418481     0.00075035874  0.00075035874  0              0              68.424623     -76.558755      213.22198      0             -96.213748      0              0              9.4232038      9.64417        0.2            90.878979    
     24300   0.20065806     0.00094445557  0.00094445557  0              0              501.72895      582.74271      420.54765      0             -68.661227      0              0              9.4222383      9.6367917      0.2            90.800148    
     24400   0.22189886     0.00083211126  0.00083211126  0              0              208.3459       29.598727      386.93938      0             -448.49024      0              0              9.4212727      9.636866       0.2            90.791543    
     24500   0.23640091     0.00094581345  0.00094581345  0              0             -34.567131      64.918993     -134.17987      0             -344.46741      0              0              9.4203072      9.6483121      0.2            90.890064    
     24600   0.23867871     0.00068753713  0.00068753713  0              0             -506.32179     -503.99443     -508.7985       0              193.23058      0              0              9.4193417      9.6634364      0.2            91.023209    
     24700   0.13861333     0.00090785676  0.00090785676  0              0              33.691119      509.63239     -442.44232      0             -117.50185      0              0              9.4183761      9.6615887      0.2            90.996477    
     24800   0.24462684     0.00080157676  0.00080157676  0              0             -89.464438     -29.798362     -149.30185      0             -104.80797      0              0              9.4174106      9.6682444      0.2            91.049827    
     24900   0.22873943     0.00088528579  0.00088528579  0              0              170.70091     -104.78774      446.02015      0             -827.11026      0              0              9.4164451      9.6627133      0.2            90.988409    
     25000   0.19991309     0.00091875092  0.00091875092  0              0              128.62018     -258.76141      515.86672      0             -333.04838      0              0              9.4154795      9.6659023      0.2            91.009105    
     25100   0.20765899     0.00080893589  0.00080893589  0              0             -401.18759     -1081.8478      279.31687      0             -216.948        0              0              9.414514       9.6697127      0.2            91.035646    
     25200   0.12870056     0.00092993851  0.00092993851  0              0             -195.37304     -262.67424     -128.26205      0             -958.75123      0              0              9.4135485      9.6783044      0.2            91.107188    
     25300   0.2352523      0.00083158707  0.00083158707  0              0             -633.88005     -863.079       -404.81828      0             -578.53882      0              0              9.4125829      9.6772672      0.2            91.08808     
     25400   0.24979784     0.00067877508  0.00067877508  0              0             -308.49759     -272.50685     -344.65514      0             -10.674883      0              0              9.4116174      9.682596       0.2            91.128889    
     25500   0.21091707     0.00094883495  0.00094883495  0              0              369.31864      676.42992      62.039971      0             -1426.7112      0              0              9.4106519      9.6908223      0.2            91.196955    
     25600   0.24383096     0.0011141951   0.0011141951   0              0              466.64856      546.27853      386.83725      0              106.53461      0              0              9.4096863      9.691415       0.2            91.193175    
     25700   0.19114798     0.0010243599   0.0010243599   0              0             -199.08128     -666.98375      268.62856      0             -6.8090953      0              0              9.4087208      9.6853431      0.2            91.126689    
     25800   0.19615156     0.00094934419  0.00094934419  0              0             -148.45624     -194.60475     -102.47849      0              304.35287      0              0              9.4077553      9.6860056      0.2            91.123571    
     25900   0.19157498     0.00096907841  0.00096907841  0              0              456.07423      1046.4948     -134.50591      0              406.71492      0              0              9.4067897      9.6782397      0.2            91.041166    
     26000   0.26191666     0.001023797    0.001023797    0              0              590.41353      1221.6667     -40.992672      0             -294.19154      0              0              9.4058242      9.6732144      0.2            90.984554    
     26100   0.24010512     0.00082829789  0.00082829789  0              0             -111.47749     -271.21837      48.090933      0             -115.82677      0              0              9.4048587      9.6589207      0.2            90.840784    
     26200   0.19570561     0.00090169572  0.00090169572  0              0              71.754158      73.767889      69.580546      0              178.67786      0              0              9.4038931      9.6558212      0.2            90.802311    
     26300   0.23299264     0.00077319867  0.00077319867  0              0              90.026647      53.24372       126.66651      0              468.10166      0              0              9.4029276      9.6652254      0.2            90.881414    
     26400   0.20480409     0.00094957751  0.00094957751  0              0              317.86546      493.68346      141.86719      0             -274.52431      0              0              9.4019621      9.6655295      0.2            90.874942    
     26500   0.19299783     0.0010672903   0.0010672903   0              0             -143.67977     -279.7699      -7.732201       0             -258.83991      0              0              9.4009965      9.6564029      0.2            90.77981     
     26600   0.21606084     0.001073334    0.001073334    0              0              129.42737      349.07533     -90.41289       0              136.27922      0              0              9.400031       9.662681       0.2            90.829501    
     26700   0.18877739     0.0011206552   0.0011206552   0              0             -520.06388     -780.51934     -259.77089      0             -420.11357      0              0              9.3990655      9.6564546      0.2            90.761649    
     26800   0.15387497     0.00086089068  0.00086089068  0              0             -452.94319     -690.73523     -215.27516      0             -31.811048      0              0              9.3980999      9.660632       0.2            90.791585    
     26900   0.21243666     0.00092016629  0.00092016629  0              0             -326.32549     -544.53337     -108.27401      0              81.899112      0              0              9.3971344      9.6650686      0.2            90.823949    
     27000   0.20998915     0.00083560415  0.00083560415  0              0              625.25494      1242.4591      7.8563792      0             -458.55015      0              0              9.3961689      9.6687727      0.2            90.849421    
     27100   0.24710834     0.00076629797  0.00076629797  0              0              711.65578      1261.6713      161.47406      0              206.5968       0              0              9.3952033      9.6644521      0.2            90.799493    
     27200   0.24355798     0.00064192891  0.00064192891  0              0              365.16575      513.5135       216.63682      0             -172.20615      0              0              9.3942378      9.6532574      0.2            90.684996    
     27300   0.19994429     0.00091691578  0.00091691578  0              0              412.07371      579.76958      244.19061      0             -123.76818      0              0              9.3932723      9.6614822      0.2            90.752933    
     27400   0.2610895      0.0010951681   0.0010951681   0              0             -425.97578     -733.12744     -118.99549      0              524.11106      0              0              9.3923067      9.6568958      0.2            90.700528    
     27500   0.19007683     0.0010554761   0.0010554761   0              0             -150.38852      169.97821     -470.92951      0              214.18247      0              0              9.3913412      9.6562359      0.2            90.685006    
     27600   0.15817021     0.00064970428  0.00064970428  0              0             -356.33694     -253.26259     -459.558        0              231.54799      0              0              9.3903757      9.6605704      0.2            90.716385    
     27700   0.1837794      0.00084675223  0.00084675223  0              0             -797.7633      -1563.6317     -32.060185      0             -158.60506      0              0              9.3894102      9.6556851      0.2            90.661187    
     27800   0.19992821     0.00096245496  0.00096245496  0              0              195.86739     -64.267745      455.80581      0             -718.31553      0              0              9.3884446      9.6500102      0.2            90.598587    
     27900   0.14929201     0.00082371101  0.00082371101  0              0              549.70235      494.76107      604.49241      0              172.25391      0              0              9.3874791      9.6583617      0.2            90.667669    
[...]
     42900   0.18416145     0.00098390862  0.00098390862  0              0              524.84147      738.01915      311.54338      0              132.38472      0              0              9.2426492      9.598616       0.2            88.71664     
     43000   0.22308091     0.00092308344  0.00092308344  0              0              31.410585      59.429579      3.2402894      0              300.76331      0              0              9.2416836      9.5963141      0.2            88.686099    
     43100   0.18212452     0.00081167903  0.00081167903  0              0             -66.625673      182.38658     -315.81983      0              583.02931      0              0              9.2407181      9.5875817      0.2            88.59614     
     43200   0.23798098     0.00079647792  0.00079647792  0              0              507.04714      1591.7069     -577.78927      0             -224.5875       0              0              9.2397526      9.5842112      0.2            88.55574     
     43300   0.18883389     0.00084055143  0.00084055143  0              0              211.16869      765.87382     -343.74528      0              916.62797      0              0              9.238787       9.5943766      0.2            88.640403    
     43400   0.21330027     0.00086552152  0.00086552152  0              0              845.58755      1547.4434      143.53153      0              245.32086      0              0              9.2378215      9.589437       0.2            88.585508    
     43500   0.18425477     0.0011384841   0.0011384841   0              0              1598.0815      2575.0304      620.94188      0             -37.762806      0              0              9.236856       9.5867005      0.2            88.550972    
     43600   0.20081698     0.00097458126  0.00097458126  0              0              1499.7102      2224.8677      774.40775      0              306.95165      0              0              9.2358904      9.5845128      0.2            88.52151     
     43700   0.2057459      0.00091382831  0.00091382831  0              0             -141.07929     -550.23794      267.92211      0             -59.660948      0              0              9.2349249      9.5810388      0.2            88.480174    
     43800   0.17191442     0.00096887716  0.00096887716  0              0             -301.71398     -123.82436     -479.78911      0              134.9106       0              0              9.2339594      9.5952932      0.2            88.602547    
     43900   0.21635274     0.0010496605   0.0010496605   0              0             -403.99325      76.445105     -884.61622      0             -571.50008      0              0              9.2329938      9.5985719      0.2            88.623555    
     44000   0.2037125      0.00075120499  0.00075120499  0              0              492.54747      1370.2542     -385.33177      0             -122.87376      0              0              9.2320283      9.5988299      0.2            88.61667     
     44100   0.1483922      0.00098888777  0.00098888777  0              0              361.06378      624.91362      97.024434      0             -606.81961      0              0              9.2310628      9.5917094      0.2            88.541671    
     44200   0.18470791     0.00072597189  0.00072597189  0              0              31.071895     -325.5437       387.48357      0             -272.83097      0              0              9.2300972      9.5889026      0.2            88.506504    
     44300   0.21739739     0.00073781404  0.00073781404  0              0              267.23341     -78.517763      612.8183       0             -608.17817      0              0              9.2291317      9.584064       0.2            88.452589    
     44400   0.22450036     0.00087319408  0.00087319408  0              0             -244.84945     -585.71797      95.830001      0             -286.26881      0              0              9.2281662      9.5879169      0.2            88.47889     
     44500   0.18250405     0.001024464    0.001024464    0              0             -10.259685      298.03563     -318.74476      0             -920.14339      0              0              9.2272006      9.5925736      0.2            88.512601    
     44600   0.17726729     0.0010216282   0.0010216282   0              0             -163.50079      328.13756     -655.32965      0             -314.48463      0              0              9.2262351      9.5960275      0.2            88.535206    
     44700   0.14205061     0.0010957046   0.0010957046   0              0              339.77867      1012.6163     -333.28458      0             -384.83932      0              0              9.2252696      9.5916401      0.2            88.485465    
     44800   0.23022225     0.00088046731  0.00088046731  0              0              343.76942      519.79135      167.56521      0              299.95853      0              0              9.2243041      9.587507       0.2            88.438079    
     44900   0.18517233     0.00088268774  0.00088268774  0              0              603.53605      780.57781      426.35732      0             -397.92709      0              0              9.2233385      9.5916469      0.2            88.467006    
     45000   0.23847824     0.00091713345  0.00091713345  0              0              266.49945      24.123597      508.71186      0             -482.8405       0              0              9.222373       9.593378       0.2            88.47371     
     45100   0.20681902     0.0009595675   0.0009595675   0              0              540.41223      1027.32        53.298113      0             -219.32421      0              0              9.2214075      9.5997191      0.2            88.522921    
     45200   0.1536655      0.00095731728  0.00095731728  0              0              260.00379      934.57231     -414.70657      0             -288.62084      0              0              9.2204419      9.6051395      0.2            88.563631    
     45300   0.20470747     0.00089854683  0.00089854683  0              0              87.873285      729.52936     -553.97463      0              486.13085      0              0              9.2194764      9.6113637      0.2            88.611741    
     45400   0.24535297     0.00099190855  0.00099190855  0              0              192.32699      529.90322     -145.40955      0             -285.15896      0              0              9.2185109      9.6012604      0.2            88.509324    
     45500   0.24835455     0.00098660487  0.00098660487  0              0              88.60361      -309.42148      486.45769      0             -493.951        0              0              9.2175453      9.585217       0.2            88.352172    
     45600   0.21144085     0.0010158342   0.0010158342   0              0              29.220163     -516.70073      574.96401      0              902.23334      0              0              9.2165798      9.595584       0.2            88.438465    
     45700   0.17483165     0.00091592492  0.00091592492  0              0              139.74503      314.9292      -35.623299      0             -417.16284      0              0              9.2156143      9.6030497      0.2            88.498002    
     45800   0.18160778     0.00082064152  0.00082064152  0              0             -478.76959     -379.29736     -578.42999      0             -378.37403      0              0              9.2146487      9.6113019      0.2            88.56477     
     45900   0.21082561     0.00097285559  0.00097285559  0              0             -725.71539     -672.14014     -779.49317      0             -150.70577      0              0              9.2136832      9.598228       0.2            88.435032    
     46000   0.20750238     0.00087482417  0.00087482417  0              0              346.92072      832.31214     -138.63111      0              721.29525      0              0              9.2127177      9.6103094      0.2            88.537067    
     46100   0.17895474     0.00083211629  0.00083211629  0              0              653.34826      725.9416       580.55747      0             -285.24167      0              0              9.2117521      9.6092551      0.2            88.518076    
     46200   0.18362405     0.0010220214   0.0010220214   0              0              290.6763      -115.3751       696.5497       0             -361.7988       0              0              9.2107866      9.6054552      0.2            88.473798    
     46300   0.21815946     0.0010948594   0.0010948594   0              0              587.90546      942.7174       232.92069      0              251.82859      0              0              9.2098211      9.6091227      0.2            88.498301    
     46400   0.23318118     0.0010573936   0.0010573936   0              0             -780.88379     -865.30541     -696.6746       0              571.59444      0              0              9.2088555      9.6144199      0.2            88.537803    
     46500   0.2062689      0.0011623698   0.0011623698   0              0             -316.90575      22.289846     -656.2856       0             -401.35408      0              0              9.20789        9.6074581      0.2            88.464417    
     46600   0.28599987     0.00094767856  0.00094767856  0              0              0.3785523     -129.3854       129.97514      0             -289.09104      0              0              9.2069245      9.612916       0.2            88.505391    
     46700   0.20130407     0.0011306796   0.0011306796   0              0              1458.4334      2258.3533      658.32439      0              5.8758654      0              0              9.2059589      9.6039056      0.2            88.41316     
     46800   0.2307486      0.0010020274   0.0010020274   0              0             -65.960624     -736.82091      604.73196      0             -231.23853      0              0              9.2049934      9.5958397      0.2            88.329641    
     46900   0.16024705     0.0010416472   0.0010416472   0              0             -65.935024     -7.3827512     -124.67022      0              105.79681      0              0              9.2040279      9.6001721      0.2            88.360252    
     47000   0.23100589     0.0007472508   0.0007472508   0              0             -458.72095     -298.37051     -619.22983      0             -100.78712      0              0              9.2030623      9.6042717      0.2            88.388711    
     47100   0.20200947     0.0010457582   0.0010457582   0              0             -585.03825     -621.66322     -548.5894       0              120.97917      0              0              9.2020968      9.5997101      0.2            88.337462    
     47200   0.23204939     0.00104046     0.00104046     0              0             -173.64312     -284.97365     -62.480486      0              253.69921      0              0              9.2011313      9.5862967      0.2            88.204774    
     47300   0.19457615     0.00089451231  0.00089451231  0              0              616.39287      544.56957      688.04417      0              313.01149      0              0              9.2001657      9.5877594      0.2            88.208975    
     47400   0.23493991     0.0010251771   0.0010251771   0              0              543.03098      477.5191       608.37113      0              60.05948       0              0              9.1992002      9.5763914      0.2            88.095142    
     47500   0.2335735      0.0010103977   0.0010103977   0              0             -437.78275     -867.12134     -8.6397759      0             -266.15839      0              0              9.1982347      9.5819162      0.2            88.136714    
     47600   0.20926243     0.00077433476  0.00077433476  0              0             -554.0073      -359.30508     -748.92153      0              942.22248      0              0              9.1972691      9.5914346      0.2            88.215005    
     47700   0.20496566     0.00080732378  0.00080732378  0              0             -593.98795     -790.11357     -398.02432      0              419.14117      0              0              9.1963036      9.582995       0.2            88.128132    
     47800   0.21443459     0.0010431572   0.0010431572   0              0              534.56811      773.1479       295.81905      0              39.375736      0              0              9.1953381      9.5779929      0.2            88.072882    
     47900   0.18765084     0.00093191397  0.00093191397  0              0              463.94073      195.93836      731.78393      0              584.75196      0              0              9.1943725      9.5665928      0.2            87.958819    
     48000   0.19246119     0.0010763249   0.0010763249   0              0              6.0282799     -448.03093      459.90899      0              853.39173      0              0              9.193407       9.5675558      0.2            87.958435    
     48100   0.23836915     0.0010644609   0.0010644609   0              0             -469.62793     -648.50724     -290.88788      0              1034.9815      0              0              9.1924415      9.5896941      0.2            88.152702    
     48200   0.19640844     0.0010139663   0.0010139663   0              0              311.17997      1301.8611     -679.68756      0              16.400782      0              0              9.1914759      9.5855891      0.2            88.105711    
     48300   0.22313604     0.00095828603  0.00095828603  0              0             -463.69183     -437.57159     -490.00162      0              92.078863      0              0              9.1905104      9.581765       0.2            88.061311    
     48400   0.2654852      0.0010027784   0.0010027784   0              0              48.29322      -34.782776      131.22393      0             -49.257617      0              0              9.1895449      9.5764385      0.2            88.003112    
     48500   0.19787575     0.001091451    0.001091451    0              0              935.12388      1138.8438      731.22291      0             -294.57424      0              0              9.1885793      9.5701214      0.2            87.93582     
     48600   0.22016787     0.00083841594  0.00083841594  0              0              786.12899      1096.4235      475.64348      0             -439.08297      0              0              9.1876138      9.565105       0.2            87.880491    
     48700   0.21801201     0.0006584485   0.0006584485   0              0             -167.55068     -247.36744     -87.912783      0             -359.42161      0              0              9.1866483      9.5639486      0.2            87.860632    
     48800   0.24113368     0.00082336546  0.00082336546  0              0             -627.35639     -629.81541     -625.07272      0             -150.44576      0              0              9.1856827      9.5704224      0.2            87.910864    
     48900   0.20109048     0.00073973074  0.00073973074  0              0             -270.23659      95.675434     -636.36018      0              159.73105      0              0              9.1847172      9.5714384      0.2            87.910955    
     49000   0.20658156     0.0010543271   0.0010543271   0              0              167.41405      312.6466       22.016085      0              546.62764      0              0              9.1837517      9.5651173      0.2            87.843662    
     49100   0.22341491     0.00099396699  0.00099396699  0              0              1095.4647      1341.349       849.38159      0              187.78079      0              0              9.1827861      9.5756713      0.2            87.931341    
     49200   0.18276922     0.00092938411  0.00092938411  0              0              722.45123      750.04817      694.65664      0              12.094226      0              0              9.1818206      9.5797205      0.2            87.959275    
     49300   0.20957838     0.0011621665   0.0011621665   0              0              755.82644      1542.6797     -31.190022      0             -447.46065      0              0              9.1808551      9.5778863      0.2            87.933187    
     49400   0.22637404     0.00083568767  0.00083568767  0              0             -229.31399      521.07507     -979.85624      0              392.05691      0              0              9.1798895      9.5799154      0.2            87.942566    
     49500   0.17833599     0.00080701507  0.00080701507  0              0             -50.098163      690.20795     -790.60225      0              361.95543      0              0              9.178924       9.5875826      0.2            88.003692    
     49600   0.2191753      0.00092365314  0.00092365314  0              0              1039.1085      1832.3689      245.65442      0             -545.36099      0              0              9.1779585      9.581707       0.2            87.940509    
     49700   0.16143789     0.00087874049  0.00087874049  0              0              153.00393     -647.00721      952.84773      0             -70.545709      0              0              9.1769929      9.5770159      0.2            87.888207    
     49800   0.20650157     0.00088030391  0.00088030391  0              0              38.910214     -698.58623      776.23766      0              82.029833      0              0              9.1760274      9.5662871      0.2            87.780512    
     49900   0.19740768     0.00093681441  0.00093681441  0              0              8.3086213      323.72909     -307.27682      0             -99.610793      0              0              9.1750619      9.5817366      0.2            87.913027    
     50000   0.16695727     0.00086486832  0.00086486832  0              0             -273.35539      654.5054      -1201.3888      0              110.94049      0              0              9.1740963      9.5871762      0.2            87.953678    
     50100   0.2014169      0.00094576393  0.00094576393  0              0             -302.96414      376.96738     -983.08555      0              163.57917      0              0              9.1731308      9.5836608      0.2            87.912174    
     50159   0.15146187     0.00085592247  0.00085592247  0              0             -828.72661     -496.52583     -1161.0768      0             -629.86851      0              0              9.1725612      9.5876617      0.2            87.943414    
Loop time of 1.04708 on 1 procs for 50000 steps with 56 atoms

Performance: 41257.674 ns/day, 0.001 hours/ns, 47751.938 timesteps/s
98.9% CPU use with 1 MPI tasks x 1 OpenMP threads

MPI task timing breakdown:
Section |  min time  |  avg time  |  max time  |%varavg| %total
---------------------------------------------------------------
Pair    | 0          | 0          | 0          |   0.0 |  0.00
Bond    | 0.14916    | 0.14916    | 0.14916    |   0.0 | 14.25
Neigh   | 0          | 0          | 0          |   0.0 |  0.00
Comm    | 0.35027    | 0.35027    | 0.35027    |   0.0 | 33.45
Output  | 0.0066661  | 0.0066661  | 0.0066661  |   0.0 |  0.64
Modify  | 0.51565    | 0.51565    | 0.51565    |   0.0 | 49.25
Other   |            | 0.02532    |            |       |  2.42

Nlocal:             56 ave          56 max          56 min
Histogram: 1 0 0 0 0 0 0 0 0 0
Nghost:            469 ave         469 max         469 min
Histogram: 1 0 0 0 0 0 0 0 0 0
Neighs:              0 ave           0 max           0 min
Histogram: 1 0 0 0 0 0 0 0 0 0

Total # of neighbors = 0
Ave neighs/atom = 0
Ave special neighs/atom = 18.642857
Neighbor list builds = 0
Dangerous builds = 0


Total wall time: 0:00:01
