LAMMPS data file.

     56 atoms
    120 bonds
      0 angles
      0 dihedrals
      0 impropers
      1 atom types
    120 bond types
      0 angle types
      0 dihedral types
      0 improper types
  -4.827663   4.827663 xlo xhi
  -4.827663   4.827663 ylo yhi
  -0.100000   0.100000 zlo zhi

Masses # ['atom_id', 'mass']

1 10000.0

Atoms # ['atomID', 'moleculeID', 'atomType', 'charge', 'x', 'y', 'z']

     21      1      1   0.000000  -4.086857  -4.162730   0.000000
     37      1      1   0.000000  -3.113815   4.810866   0.000000
     40      1      1   0.000000   0.226019  -3.816701   0.000000
     80      1      1   0.000000   1.284631  -4.300548   0.000000
     51      1      1   0.000000   2.017000  -4.081062   0.000000
      9      1      1   0.000000   3.343481  -4.146632   0.000000
     44      1      1   0.000000   4.483049  -3.853418   0.000000
     58      1      1   0.000000  -4.348819  -3.261238   0.000000
     28      1      1   0.000000  -3.267890  -3.539281   0.000000
     18      1      1   0.000000  -1.030017  -3.295396   0.000000
     27      1      1   0.000000   0.140768  -2.538133   0.000000
      1      1      1   0.000000   1.422922  -3.154188   0.000000
     76      1      1   0.000000  -3.802688  -2.694492   0.000000
     13      1      1   0.000000  -4.469397  -1.939481   0.000000
     11      1      1   0.000000  -3.011290  -1.915855   0.000000
     72      1      1   0.000000  -0.434726  -1.819386   0.000000
      4      1      1   0.000000  -1.516205  -1.901201   0.000000
     34      1      1   0.000000   1.206120  -1.819690   0.000000
     29      1      1   0.000000   2.372223  -2.164047   0.000000
     75      1      1   0.000000   3.377470  -1.918942   0.000000
     20      1      1   0.000000   4.031413  -2.769199   0.000000
     38      1      1   0.000000  -3.768141  -0.737203   0.000000
     42      1      1   0.000000   0.132059  -1.422319   0.000000
     61      1      1   0.000000   0.875427  -0.982179   0.000000
     69      1      1   0.000000   1.406022  -0.941335   0.000000
     62      1      1   0.000000   1.926639  -1.233230   0.000000
     33      1      1   0.000000   2.914795  -1.063955   0.000000
     36      1      1   0.000000   4.072525  -1.332764   0.000000
     35      1      1   0.000000  -4.772848  -0.222086   0.000000
     50      1      1   0.000000   0.911097  -0.262169   0.000000
     30      1      1   0.000000   1.836855  -0.271651   0.000000
     79      1      1   0.000000   2.911951  -0.147762   0.000000
     71      1      1   0.000000   3.589480  -0.358522   0.000000
     73      1      1   0.000000   4.041255   0.048111   0.000000
      8      1      1   0.000000  -3.583100   0.478367   0.000000
     60      1      1   0.000000   2.641482   0.540933   0.000000
     74      1      1   0.000000   3.433173   0.259126   0.000000
      2      1      1   0.000000   4.333399   0.987967   0.000000
     24      1      1   0.000000  -4.160753   1.639886   0.000000
     10      1      1   0.000000  -2.896340   1.937065   0.000000
     12      1      1   0.000000   1.845623   2.838519   0.000000
     19      1      1   0.000000   2.930465   1.606596   0.000000
     41      1      1   0.000000   3.094631   2.762328   0.000000
     17      1      1   0.000000   4.266430   2.451427   0.000000
     16      1      1   0.000000  -4.055905   2.968002   0.000000
     14      1      1   0.000000  -2.636975   3.355712   0.000000
     56      1      1   0.000000   2.656408   3.673693   0.000000
     22      1      1   0.000000   3.710201   3.991095   0.000000
     57      1      1   0.000000  -4.113470   4.451312   0.000000
     68      1      1   0.000000  -3.493463   3.977102   0.000000
     53      1      1   0.000000   1.877418   4.064637   0.000000
     39      1      1   0.000000   0.919660   4.477761   0.000000
     70      1      1   0.000000   1.687608  -4.822823   0.000000
     54      1      1   0.000000   2.747663   4.488539   0.000000
     45      1      1   0.000000   4.354307  -4.664107   0.000000
     49      1      1   0.000000   4.760564   4.229771   0.000000

Bond Coeffs # ['bondID', 'bondCoeff', 'd']

      1   0.509672   1.400731
      2   0.447328   1.495157
      3   1.416051   0.840351
      4   0.775463   1.135584
      5   0.462175   1.470946
      6   1.518120   0.811609
      7   0.400233   1.580678
      8   0.861899   1.077139
      9   0.811303   1.110219
     10   1.232336   0.900815
     11   1.280959   0.883553
     12   1.280959   0.883553
     13   1.108202   0.949928
     14   1.924236   0.720893
     15   1.108202   0.949928
     16   1.179537   0.920755
     17   2.463530   0.637120
     18   0.480808   1.442162
     19   0.820245   1.104151
     20   0.722236   1.176686
     21   1.415995   0.840367
     22   0.566342   1.328803
     23   0.531476   1.371697
     24   0.566342   1.328803
     25   0.733855   1.167333
     26   1.397458   0.845923
     27   1.397458   0.845923
     28   1.233376   0.900435
     29   0.592749   1.298867
     30   1.614308   0.787058
     31   0.661441   1.229573
     32   0.886062   1.062351
     33   1.166702   0.925806
     34   2.807061   0.596862
     35   0.985665   1.007245
     36   2.297997   0.659668
     37   1.209618   0.909235
     38   0.563417   1.332248
     39   0.943933   1.029270
     40   0.802751   1.116117
     41   0.664727   1.226530
     42   2.706718   0.607825
     43   0.421839   1.539666
     44   0.825611   1.100556
     45   0.494721   1.421739
     46   1.072162   0.965761
     47   0.494721   1.421739
     48   0.563912   1.331663
     49   0.563912   1.331663
     50   0.738068   1.163997
     51   0.465940   1.464991
     52   0.638641   1.251330
     53   0.764691   1.143555
     54   0.724896   1.174524
     55   2.413765   0.643654
     56   0.716477   1.181405
     57   0.716477   1.181405
     58   1.000324   0.999838
     59   0.470227   1.458298
     60   1.826638   0.739901
     61   1.316373   0.871586
     62   0.869130   1.072649
     63   1.058122   0.972147
     64   0.524622   1.380628
     65   0.784450   1.129061
     66   3.531094   0.532164
     67   1.191302   0.916198
     68   0.605643   1.284966
     69   0.489305   1.429586
     70   0.489305   1.429586
     71   1.191477   0.916130
     72   1.577052   0.796301
     73   0.547080   1.351994
     74   0.534331   1.368028
     75   0.484253   1.437023
     76   1.710752   0.764551
     77   0.708432   1.188094
     78   0.708432   1.188094
     79   0.609012   1.281407
     80   1.598347   0.790978
     81   0.921675   1.041624
     82   1.598347   0.790978
     83   0.921675   1.041624
     84   0.415382   1.551587
     85   0.494208   1.422477
     86   0.762479   1.145212
     87   0.785045   1.128633
     88   1.484140   0.820848
     89   0.458682   1.476536
     90   0.540720   1.359921
     91   0.785045   1.128633
     92   0.850131   1.084569
     93   0.707916   1.188527
     94   0.621977   1.267981
     95   0.514355   1.394340
     96   0.893099   1.058157
     97   0.676417   1.215886
     98   1.032335   0.984214
     99   0.621977   1.267981
    100   1.516303   0.812095
    101   1.516303   0.812095
    102   0.803138   1.115848
    103   0.594244   1.297232
    104   1.134672   0.938782
    105   1.158638   0.929022
    106   2.287119   0.661235
    107   1.487429   0.819940
    108   2.088084   0.692032
    109   1.342554   0.863046
    110   1.342554   0.863046
    111   0.664635   1.226615
    112   0.919142   1.043059
    113   0.425364   1.533273
    114   0.825066   1.100920
    115   1.049500   0.976133
    116   1.067215   0.967997
    117   0.851839   1.083481
    118   0.680377   1.212342
    119   0.516201   1.391845
    120   1.641270   0.780567

Bonds # ['ID', 'type', 'atom1', 'atom2']

         1         1        11        38
         2         2        11         4
         3         3        60        74
         4         4         9        45
         5         5        16        14
         6         6        51        70
         7         7        19        17
         8         8        22        49
         9         9        76        11
        10        10        34        69
        11        11        35        73
        12        12        73        35
        13        13        80        39
        14        14        61        50
        15        15        39        80
        16        16        27        72
        17        17        71        74
        18        18        10        14
        19        19        60        19
        20        20         9        44
        21        21        69        50
        22        22         2        35
        23        23         1        29
        24        24        35         2
        25        25        19        41
        26        26        39        70
        27        27        70        39
        28        28        34        61
        29        29        24        10
        30        30        58        76
        31        31        38         8
        32        32        37        57
        33        33        50        30
        34        34        69        62
        35        35        76        13
        36        36        80        70
        37        37        75        36
        38        38        24        16
        39        39        21        28
        40        40        58        28
        41        41        12        53
        42        42        71        73
        43        43         9        20
        44        44        56        22
        45        45        13        20
        46        46        62        30
        47        47        20        13
        48        48         2        24
        49        49        24         2
        50        50        12        56
        51        51         2        17
        52        52        12        41
        53        53        30        60
        54        54        44        20
        55        55        73        74
        56        56         9        54
        57        57        54         9
        58        58        28        76
        59        59        13        11
        60        60        79        60
        61        61        56        53
        62        62        75        20
        63        63        75        33
        64        64        35         8
        65        65        38        35
        66        66        61        69
        67        67        33        79
        68        68        27        34
        69        69        17        16
        70        70        16        17
        71        71        37        68
        72        72        69        30
        73        73         1        34
        74        74        40         1
        75        75        20        36
        76        76        80        51
        77        77        37        21
        78        78        21        37
        79        79        40        27
        80        80        53        70
        81        81        57        21
        82        82        70        53
        83        83        21        57
        84        84        10        16
        85        85        27         1
        86        86        34        42
        87        87        21        44
        88        88        44        45
        89        89        18         4
        90        90        40        18
        91        91        44        21
        92        92        72         4
        93        93        33        36
        94        94        13        36
        95        95        18        27
        96        96        14        68
        97        97        34        29
        98        98        73         2
        99        99        36        13
       100       100        57        49
       101       101        49        57
       102       102        27        42
       103       103         8        24
       104       104        21        58
       105       105        34        62
       106       106        79        74
       107       107        56        54
       108       108        72        42
       109       109        45        49
       110       110        49        45
       111       111        29        33
       112       112        53        39
       113       113         2        19
       114       114        51         1
       115       115        33        71
       116       116        53        54
       117       117        22        54
       118       118        41        17
       119       119        13        38
       120       120        57        68
