LAMMPS data file via write_data, version 23 Jun 2022, timestep = 10000

80 atoms
4 atom types

-4.808689179925257 4.808689179925257 xlo xhi
-4.808689179925257 4.808689179925257 ylo yhi
-0.1 0.1 zlo zhi

Atoms # sphere

64 4 0.7 2.915451895043732 -4.439496039174319 -4.398990404198789 0 0 0 0
23 2 1.3 0.4551661356395083 -2.893642117259864 -4.283223191093393 0 0 1 0
56 3 1 1 -1.8410043268196588 -4.102416442364666 0 0 0 0
76 4 0.7 2.915451895043732 -0.6470824232958323 -4.474128557551302 0 0 0 0
80 4 0.7 2.915451895043732 -1.1331496829893695 -4.261846147030556 0 0 0 0
60 3 1 1 -0.06936316962245392 -3.9721122883003543 0 0 0 0
1 1 1.6 0.2441406249999999 1.0641169986029828 -4.4999756984328725 0 0 0 0
22 2 1.3 0.4551661356395083 2.5482339790435917 -4.736514072818357 0 -1 1 0
3 1 1.6 0.2441406249999999 4.249132645893019 -3.778972346715519 0 -1 0 0
35 2 1.3 0.4551661356395083 -3.811403607207641 -3.7865708443540163 0 1 0 0
42 3 1 1 -4.521054720332807 -2.8778216755735055 0 0 1 0
61 4 0.7 2.915451895043732 -3.660262869766559 -2.768834132299525 0 0 0 0
4 1 1.6 0.2441406249999999 -2.552367101882332 -2.998596894638448 0 0 0 0
6 1 1.6 0.2441406249999999 -0.8945379198834456 -3.2470554695983465 0 0 0 0
19 1 1.6 0.2441406249999999 0.6444421086012682 -3.0391795568541156 0 0 0 0
78 4 0.7 2.915451895043732 1.8945295384601426 -2.4950077656451057 0 0 0 0
38 2 1.3 0.4551661356395083 2.207738873179016 -3.4430447553196313 0 0 0 0
47 3 1 1 3.122491981207286 -3.892661487608104 0 0 0 0
40 2 1.3 0.4551661356395083 3.387608446531213 -2.651250974045977 0 0 0 0
48 3 1 1 -4.1907775996624705 -1.948329883481644 0 0 0 0
68 4 0.7 2.915451895043732 -3.3676469451012396 -2.266946896161569 0 0 1 0
33 2 1.3 0.4551661356395083 -2.639535104335183 -1.6980428255535864 0 1 0 0
51 3 1 1 -1.5782195692612344 -2.33561512649997 0 0 0 0
25 2 1.3 0.4551661356395083 -0.21659386861870455 -2.011481030222942 0 0 0 0
5 1 1.6 0.2441406249999999 1.2081200988671261 -1.7036970903573732 0 0 0 0
74 4 0.7 2.915451895043732 2.647361966548992 -2.545742517667596 0 0 0 0
67 4 0.7 2.915451895043732 4.291295517396844 -2.6968490207701836 0 0 0 0
39 2 1.3 0.4551661356395083 -3.7273288736191383 -1.0629129909799344 0 0 0 0
7 1 1.6 0.2441406249999999 -1.3067427224335217 -1.1804056543497907 0 0 0 0
36 2 1.3 0.4551661356395083 0.1899208075922374 -0.9106825469817013 0 0 0 0
15 1 1.6 0.2441406249999999 2.7525853314417708 -1.4410384145144195 0 0 1 0
9 1 1.6 0.2441406249999999 4.207541505677276 -1.7288140356349673 0 -1 0 0
69 4 0.7 2.915451895043732 4.021853968104668 -0.5492385987889907 0 -1 0 0
24 2 1.3 0.4551661356395083 -4.756386967000756 -0.38816910780253355 0 0 0 0
62 4 0.7 2.915451895043732 -3.6279694432842966 -0.16758288856917058 0 1 0 0
8 1 1.6 0.2441406249999999 -2.5494092382792504 -0.3568147530787851 0 0 0 0
77 4 0.7 2.915451895043732 -1.5978754929322792 0.287961080267757 0 0 0 0
32 2 1.3 0.4551661356395083 -0.6752284077809767 0.06981381824789867 0 0 0 0
55 3 1 1 0.26298737967226593 0.5002718030411408 0 -1 0 0
70 4 0.7 2.915451895043732 0.21743018105359457 -0.06397025645454679 0 0 0 0
50 3 1 1 2.0080079044263464 1.3841019890260018 0 0 0 0
20 1 1.6 0.2441406249999999 1.3579368008918058 -0.2100259584430617 0 -1 0 0
46 3 1 1 2.6487801560467643 -0.38105407636251964 0 0 1 0
72 4 0.7 2.915451895043732 3.470490740331674 -0.7962156121265513 0 0 0 0
13 1 1.6 0.2441406249999999 -4.6862779939235955 1.1014071807437622 0 1 0 0
52 3 1 1 -3.6172152472225676 0.5724868756373898 0 1 0 0
59 3 1 1 -2.3383647182386316 0.8743033276659178 0 0 0 0
30 2 1.3 0.4551661356395083 -1.3499074555263948 1.1797872134391731 0 0 0 0
79 4 0.7 2.915451895043732 -0.32346503894267187 0.8979725405366619 0 0 0 0
10 1 1.6 0.2441406249999999 0.8708102030932565 1.5181254036878977 0 0 0 0
65 4 0.7 2.915451895043732 2.7713225335372718 1.5465032940339212 0 0 0 0
43 3 1 1 2.4403682813710965 0.5960952691887789 0 0 0 0
11 1 1.6 0.2441406249999999 3.6361065964824233 0.4142970601510063 0 0 0 0
66 4 0.7 2.915451895043732 3.2014777704401167 1.704077273601973 0 0 0 0
41 3 1 1 -4.36117370060969 2.249142192745855 0 0 0 0
14 1 1.6 0.2441406249999999 -3.3393894182462347 1.7039413033584863 0 1 0 0
12 1 1.6 0.2441406249999999 -1.9286728831052478 2.3724095803148355 0 0 0 0
44 3 1 1 -0.4487369674595456 1.4293274449170026 0 0 0 0
63 4 0.7 2.915451895043732 -0.3092100449247681 2.22697717026485 0 0 0 0
16 1 1.6 0.2441406249999999 1.8661856952257407 2.5665688749703524 0 0 0 0
27 2 1.3 0.4551661356395083 3.231240317351797 2.626870123798451 0 0 0 0
54 3 1 1 3.9384715000605004 1.6239265862687553 0 0 0 0
57 3 1 1 4.333695599775596 2.5789821048901533 0 0 0 0
31 2 1.3 0.4551661356395083 -4.53783925519207 3.3782667771439447 0 1 0 0
17 1 1.6 0.2441406249999999 -3.186629139192622 3.1977331842354877 0 0 0 0
21 2 1.3 0.4551661356395083 -1.8879560294982345 3.7195033592381685 0 0 0 0
28 2 1.3 0.4551661356395083 -0.8572776947027929 3.129421784649397 0 0 0 0
18 1 1.6 0.2441406249999999 0.5106391982860625 2.9407240855037227 0 0 0 0
58 3 1 1 3.0113861894257337 3.948222899283368 0 0 0 0
26 2 1.3 0.4551661356395083 3.853741144360188 3.525259993271983 0 0 -1 0
29 2 1.3 0.4551661356395083 -3.868899236534866 4.567834377982961 0 0 0 0
45 3 1 1 -2.8431268977797606 4.342023764462151 0 0 0 0
73 4 0.7 2.915451895043732 -1.303697772119024 4.769111571999381 0 0 -1 0
71 4 0.7 2.915451895043732 -1.8604469662470247 4.675491706168869 0 0 0 0
75 4 0.7 2.915451895043732 -1.2195070834126458 4.0921015170576505 0 0 0 0
2 1 1.6 0.2441406249999999 -0.11610384093004367 4.418056822170553 0 0 -1 0
49 3 1 1 0.9317186969885016 4.0013800926323375 0 0 0 0
37 2 1.3 0.4551661356395083 1.840089180360982 3.8997594866689242 0 -1 -1 0
53 3 1 1 3.6040544524468556 4.736464084064777 0 0 0 0
34 2 1.3 0.4551661356395083 4.555758646044711 4.565904418840016 0 0 0 0

Velocities

64 0.1019400161172569 -0.1797136361010996 0 0 0 0
23 0.0637868456035546 0.09687484738991058 0 0 0 0
56 0.039038870028262694 -0.11809448703202503 0 0 0 0
76 0.06023258564184455 0.07971566281010323 0 0 0 0
80 -0.11856733214565317 -0.031613856139813525 0 0 0 0
60 0.15190358804281992 -0.12178911326593696 0 0 0 0
1 0.005598328129608067 0.14556847689275623 0 0 0 0
22 0.019901528633614697 0.18034630139389973 0 0 0 0
3 0.2937461379295233 -0.008010159945005847 0 0 0 0
35 -0.019549968979199268 0.08467514914928456 0 0 0 0
42 -0.06058368941311415 -0.15284376743738462 0 0 0 0
61 -0.06954314067270564 0.04464758324146218 0 0 0 0
4 -0.13047293148771338 -0.10887008903013805 0 0 0 0
6 -0.14966267378727782 0.08928396196525777 0 0 0 0
19 0.1056386914490761 0.011390874854331594 0 0 0 0
78 -0.08674472659527036 0.06887730951305399 0 0 0 0
38 0.07692582936049293 -0.143193841781901 0 0 0 0
47 0.04075391783834092 0.08402901319081947 0 0 0 0
40 -0.07050355944075955 -0.14212279494641492 0 0 0 0
48 -0.15199698598331013 0.021337717493983385 0 0 0 0
68 -0.008291491445530593 -0.03793751411668051 0 0 0 0
33 0.016869880224644973 -0.06970306531195007 0 0 0 0
51 -0.026501471810870945 0.0920314113634323 0 0 0 0
25 -0.1242382766586186 -0.09225545360467663 0 0 0 0
5 -0.014765597704457423 0.09370715898696304 0 0 0 0
74 0.05757897797878276 -0.06373761020428932 0 0 0 0
67 -0.07672076167670973 0.056192303839240856 0 0 0 0
39 -0.08971612903314868 -0.028665211022983427 0 0 0 0
7 0.04723825056603439 0.10012027024013713 0 0 0 0
36 0.0834077793133388 0.131156227894683 0 0 0 0
15 0.10896145612179536 -0.04041973913063926 0 0 0 0
9 0.09696859251089032 0.013688298778942305 0 0 0 0
69 -0.04438864373606751 -0.11127268967991653 0 0 0 0
24 -0.04857028035478127 -0.14188886784491908 0 0 0 0
62 0.022797240364705235 0.037366191586116614 0 0 0 0
8 -0.077348582156567 0.1513537460174282 0 0 0 0
77 0.14698324854532363 0.08379807297431292 0 0 0 0
32 -0.13079044630458894 -0.05779890162014816 0 0 0 0
55 -0.0501702518935377 0.0482576102252434 0 0 0 0
70 -0.16529714080385682 -0.09803693374600134 0 0 0 0
50 -0.07892583819326957 0.2970700367341379 0 0 0 0
20 0.2204702310866335 0.04289642754504557 0 0 0 0
46 -0.01265013976037993 -0.18208357534811895 0 0 0 0
72 -0.15301545207269818 -0.02483260898833791 0 0 0 0
13 -0.2149019458199867 -0.006006456492205626 0 0 0 0
52 -0.13203643623587805 -0.2392280288744216 0 0 0 0
59 -0.08236595006632756 0.24186213788771763 0 0 0 0
30 0.03451479083022873 -0.2482115825539409 0 0 0 0
79 0.011937740890397437 -0.11038368143509053 0 0 0 0
10 0.010218916628955759 0.01196931069543109 0 0 0 0
65 0.34119470215387393 0.014651315931468763 0 0 0 0
43 -0.02320379609688055 -0.005105572121442045 0 0 0 0
11 0.029839099077756143 -0.1168681540553302 0 0 0 0
66 0.031107771357233097 0.0811098409386849 0 0 0 0
41 -0.11318567141145339 0.10818546466464854 0 0 0 0
14 0.15103459712475784 -0.18345754687629487 0 0 0 0
12 -0.12159772169424668 0.013115061953238822 0 0 0 0
44 0.0990129333853959 -0.09400762829006644 0 0 0 0
63 -0.2894936390367956 0.047057381836777115 0 0 0 0
16 -0.06893046923244371 -0.08569546590572351 0 0 0 0
27 -0.13944225135119337 -0.11580534379029617 0 0 0 0
54 -0.02146380043553978 0.0077558952487447475 0 0 0 0
57 -0.11564036618463192 0.025303567647771783 0 0 0 0
31 0.23583211542409407 -0.06080525285610724 0 0 0 0
17 0.032699139978504675 -0.06859364540808881 0 0 0 0
21 0.09316274535389875 0.12837923938761034 0 0 0 0
28 0.025061593991573344 -0.1382438939900032 0 0 0 0
18 -0.01051124994984447 0.046862211220429675 0 0 0 0
58 -0.007794457791750371 0.060497238284711 0 0 0 0
26 -0.0303122595602768 0.15376614530222157 0 0 0 0
29 0.08121766373917828 0.1565578858331074 0 0 0 0
45 0.03640251212015903 0.026263616073995837 0 0 0 0
73 0.1258010615362863 0.033783928677502725 0 0 0 0
71 -0.012508759207396136 -0.014263960328862806 0 0 0 0
75 0.04026889311413442 -0.10182604842918011 0 0 0 0
2 0.1499601979052989 0.004954430418144446 0 0 0 0
49 -0.025518502174221087 0.12618130589440044 0 0 0 0
37 0.10760774874254857 0.023231941637746015 0 0 0 0
53 -0.17086604334541908 0.14770141516912397 0 0 0 0
34 0.1411726128635533 0.029812188921420454 0 0 0 0
