ITEM: TIMESTEP
0
ITEM: NUMBER OF ATOMS
80
ITEM: BOX BOUNDS pp pp pp
-1.0000000000000000e+01 1.0000000000000000e+01
-1.0000000000000000e+01 1.0000000000000000e+01
-1.0000000000000001e-01 1.0000000000000001e-01
ITEM: ATOMS id type xs ys zs
64 4 0.239068 0.0163415 0.5
2 1 0.475219 0.00818857 0.5
35 2 0.775338 0.100327 0.5
5 1 0.923669 0.0990622 0.5
48 3 0.0527823 0.111419 0.5
3 1 0.116922 0.115474 0.5
80 4 0.168687 0.119709 0.5
76 4 0.489089 0.116284 0.5
1 1 0.742197 0.111973 0.5
4 1 0.168394 0.192681 0.5
36 2 0.231284 0.191489 0.5
61 4 0.325649 0.181607 0.5
47 3 0.489925 0.171019 0.5
26 2 0.67961 0.198357 0.5
56 3 0.667054 0.180431 0.5
78 4 0.774808 0.204845 0.5
67 4 0.899638 0.209814 0.5
69 4 0.0159608 0.253244 0.5
37 2 0.0557041 0.218677 0.5
9 1 0.116215 0.218281 0.5
25 2 0.354985 0.22883 0.5
13 1 0.90541 0.226764 0.5
8 1 0.139005 0.265039 0.5
24 2 0.134783 0.297338 0.5
38 2 0.221473 0.304711 0.5
19 1 0.63279 0.298861 0.5
27 2 0.656885 0.270441 0.5
43 3 0.483032 0.319333 0.5
31 2 0.820394 0.359695 0.5
40 2 0.87424 0.343575 0.5
70 4 0.846452 0.326301 0.5
33 2 0.980742 0.331882 0.5
73 4 0.661712 0.395353 0.5
60 3 0.442282 0.439112 0.5
74 4 0.853898 0.466572 0.5
6 1 0.303298 0.524366 0.5
58 3 0.633754 0.497043 0.5
7 1 0.548078 0.549933 0.5
39 2 0.033535 0.6224 0.5
41 3 0.0121129 0.580809 0.5
28 2 0.149023 0.621558 0.5
55 3 0.165799 0.58394 0.5
79 4 0.199656 0.616944 0.5
12 1 0.306336 0.596145 0.5
30 2 0.495602 0.585127 0.5
11 1 0.868245 0.602081 0.5
51 3 0.439141 0.645634 0.5
57 3 0.80518 0.652614 0.5
45 3 0.373933 0.692357 0.5
66 4 0.39797 0.687159 0.5
65 4 0.594616 0.710797 0.5
62 4 0.937271 0.705516 0.5
29 2 0.201926 0.764045 0.5
21 2 0.215609 0.745647 0.5
17 1 0.274277 0.772809 0.5
32 2 0.545592 0.766912 0.5
52 3 0.575936 0.762208 0.5
49 3 0.622882 0.773446 0.5
14 1 0.862186 0.753742 0.5
54 3 0.99368 0.783796 0.5
44 3 0.192529 0.833541 0.5
75 4 0.697259 0.826298 0.5
16 1 0.818517 0.819326 0.5
46 3 0.871948 0.829566 0.5
53 3 0.848742 0.813254 0.5
34 2 0.979165 0.820511 0.5
23 2 0.173136 0.894485 0.5
63 4 0.730996 0.84697 0.5
10 1 0.782701 0.863839 0.5
22 2 0.0676472 0.946461 0.5
59 3 0.0896008 0.920436 0.5
71 4 0.261254 0.895049 0.5
42 3 0.315815 0.908865 0.5
18 1 0.61337 0.916958 0.5
50 3 0.912593 0.943947 0.5
20 1 0.043491 0.952945 0.5
68 4 0.124588 0.958447 0.5
77 4 0.414289 0.948808 0.5
72 4 0.471112 0.979244 0.5
15 1 0.780031 0.984111 0.5
ITEM: TIMESTEP
10
ITEM: NUMBER OF ATOMS
80
ITEM: BOX BOUNDS pp pp pp
-9.2637235360063528e+00 9.2637235360063528e+00
-9.2637235360063528e+00 9.2637235360063528e+00
-1.0000000000000001e-01 1.0000000000000001e-01
ITEM: ATOMS id type xs ys zs
64 4 0.239068 0.0163415 0.5
2 1 0.475234 0.00829285 0.5
35 2 0.775469 0.100281 0.5
5 1 0.923669 0.0990622 0.5
48 3 0.0527763 0.111418 0.5
3 1 0.116905 0.115472 0.5
80 4 0.16871 0.119711 0.5
76 4 0.489089 0.116284 0.5
1 1 0.742066 0.112019 0.5
4 1 0.168434 0.192635 0.5
36 2 0.231323 0.191488 0.5
61 4 0.325649 0.181607 0.5
47 3 0.489925 0.171019 0.5
26 2 0.679685 0.198465 0.5
56 3 0.666979 0.180323 0.5
78 4 0.774808 0.204845 0.5
67 4 0.89959 0.209676 0.5
69 4 0.0159608 0.253244 0.5
37 2 0.055657 0.218677 0.5
9 1 0.116141 0.218223 0.5
25 2 0.354985 0.22883 0.5
13 1 0.905457 0.226902 0.5
8 1 0.139067 0.264996 0.5
24 2 0.134764 0.297485 0.5
38 2 0.221473 0.304711 0.5
19 1 0.632705 0.298962 0.5
27 2 0.65697 0.270341 0.5
43 3 0.483032 0.319333 0.5
31 2 0.820342 0.359729 0.5
40 2 0.874328 0.3436 0.5
70 4 0.846416 0.326243 0.5
33 2 0.980742 0.331882 0.5
73 4 0.661712 0.395353 0.5
60 3 0.442282 0.439112 0.5
74 4 0.853898 0.466572 0.5
6 1 0.303296 0.524333 0.5
58 3 0.633754 0.497043 0.5
7 1 0.548109 0.549913 0.5
39 2 0.0335541 0.622437 0.5
41 3 0.0120938 0.580771 0.5
28 2 0.148996 0.621615 0.5
55 3 0.165824 0.583884 0.5
79 4 0.199657 0.616944 0.5
12 1 0.306338 0.596179 0.5
30 2 0.495571 0.585148 0.5
11 1 0.868245 0.602081 0.5
51 3 0.439141 0.645634 0.5
57 3 0.80518 0.652614 0.5
45 3 0.373868 0.692371 0.5
66 4 0.398036 0.687145 0.5
65 4 0.594616 0.710797 0.5
62 4 0.937271 0.705516 0.5
29 2 0.20183 0.76417 0.5
21 2 0.215673 0.745508 0.5
17 1 0.274309 0.772823 0.5
32 2 0.545493 0.766928 0.5
52 3 0.576027 0.762191 0.5
49 3 0.62289 0.773448 0.5
14 1 0.862194 0.753717 0.5
54 3 0.993705 0.783732 0.5
44 3 0.192529 0.833541 0.5
75 4 0.697259 0.826298 0.5
16 1 0.818402 0.819282 0.5
46 3 0.872055 0.829621 0.5
53 3 0.848797 0.8132 0.5
34 2 0.97914 0.820574 0.5
23 2 0.173136 0.894485 0.5
63 4 0.730982 0.846966 0.5
10 1 0.78266 0.863911 0.5
22 2 0.0677603 0.946483 0.5
59 3 0.0896854 0.920349 0.5
71 4 0.261254 0.895049 0.5
42 3 0.315815 0.908865 0.5
18 1 0.61337 0.916958 0.5
50 3 0.912593 0.943947 0.5
20 1 0.0432932 0.95301 0.5
68 4 0.124588 0.958447 0.5
77 4 0.414289 0.948808 0.5
72 4 0.471097 0.97914 0.5
15 1 0.780031 0.984111 0.5
ITEM: TIMESTEP
20
ITEM: NUMBER OF ATOMS
80
ITEM: BOX BOUNDS pp pp pp
-8.3454587854527169e+00 8.3454587854527169e+00
-8.3454587854527169e+00 8.3454587854527169e+00
-1.0000000000000001e-01 1.0000000000000001e-01
ITEM: ATOMS id type xs ys zs
64 4 0.239068 0.0163415 0.5
2 1 0.475288 0.00867066 0.5
35 2 0.775943 0.100115 0.5
5 1 0.923669 0.0990622 0.5
48 3 0.0527236 0.111415 0.5
3 1 0.116852 0.115466 0.5
80 4 0.168816 0.11972 0.5
76 4 0.489089 0.116284 0.5
1 1 0.741592 0.112186 0.5
4 1 0.168585 0.192426 0.5
36 2 0.231488 0.191485 0.5
61 4 0.325647 0.181604 0.5
47 3 0.489925 0.171019 0.5
26 2 0.679956 0.19885 0.5
56 3 0.666708 0.179938 0.5
78 4 0.774808 0.204845 0.5
67 4 0.899423 0.209185 0.5
69 4 0.0159504 0.253253 0.5
37 2 0.0554719 0.21867 0.5
9 1 0.115874 0.218005 0.5
25 2 0.354986 0.228832 0.5
13 1 0.905625 0.227393 0.5
8 1 0.139282 0.264893 0.5
24 2 0.134694 0.298017 0.5
38 2 0.221473 0.304711 0.5
19 1 0.632397 0.299325 0.5
27 2 0.657278 0.269978 0.5
43 3 0.483032 0.319333 0.5
31 2 0.820121 0.359872 0.5
40 2 0.874678 0.343685 0.5
70 4 0.846287 0.326015 0.5
33 2 0.980742 0.331882 0.5
73 4 0.661712 0.395353 0.5
60 3 0.442282 0.439112 0.5
74 4 0.853898 0.466572 0.5
6 1 0.30329 0.52418 0.5
58 3 0.633754 0.497043 0.5
7 1 0.548244 0.549823 0.5
39 2 0.0336313 0.622587 0.5
41 3 0.0120165 0.580621 0.5
28 2 0.148875 0.621833 0.5
55 3 0.165919 0.583666 0.5
79 4 0.199684 0.616943 0.5
12 1 0.306344 0.596331 0.5
30 2 0.495437 0.585238 0.5
11 1 0.868245 0.602081 0.5
51 3 0.439141 0.645634 0.5
57 3 0.80518 0.652614 0.5
45 3 0.373627 0.692423 0.5
66 4 0.398276 0.687093 0.5
65 4 0.594616 0.710797 0.5
62 4 0.937271 0.705516 0.5
29 2 0.201457 0.76461 0.5
21 2 0.215873 0.745002 0.5
17 1 0.274483 0.772889 0.5
32 2 0.545134 0.766984 0.5
52 3 0.576332 0.762122 0.5
49 3 0.622944 0.773461 0.5
14 1 0.862252 0.75357 0.5
54 3 0.9938 0.783493 0.5
44 3 0.19253 0.833537 0.5
75 4 0.697258 0.826297 0.5
16 1 0.817954 0.819137 0.5
46 3 0.872465 0.829824 0.5
53 3 0.848984 0.81303 0.5
34 2 0.979045 0.820813 0.5
23 2 0.173135 0.894488 0.5
63 4 0.73091 0.846942 0.5
10 1 0.782525 0.864194 0.5
22 2 0.0681556 0.94657 0.5
59 3 0.0900128 0.920017 0.5
71 4 0.261254 0.895049 0.5
42 3 0.315815 0.908865 0.5
18 1 0.61337 0.916958 0.5
50 3 0.912593 0.943947 0.5
20 1 0.0425702 0.953255 0.5
68 4 0.124589 0.958447 0.5
77 4 0.414289 0.948808 0.5
72 4 0.471044 0.978762 0.5
15 1 0.780031 0.984111 0.5
ITEM: TIMESTEP
30
ITEM: NUMBER OF ATOMS
80
ITEM: BOX BOUNDS pp pp pp
-7.6611346064650325e+00 7.6611346064650325e+00
-7.6611346064650325e+00 7.6611346064650325e+00
-1.0000000000000001e-01 1.0000000000000001e-01
ITEM: ATOMS id type xs ys zs
64 4 0.239068 0.0163415 0.5
2 1 0.475393 0.0094123 0.5
35 2 0.77687 0.0997892 0.5
5 1 0.923669 0.0990622 0.5
48 3 0.052559 0.111405 0.5
3 1 0.11675 0.115434 0.5
80 4 0.169068 0.11974 0.5
76 4 0.489089 0.116284 0.5
1 1 0.740666 0.112511 0.5
4 1 0.168902 0.191956 0.5
36 2 0.231867 0.191479 0.5
61 4 0.325629 0.181574 0.5
47 3 0.489925 0.171019 0.5
26 2 0.680486 0.19957 0.5
56 3 0.666186 0.179192 0.5
78 4 0.774808 0.204845 0.5
67 4 0.899102 0.208241 0.5
69 4 0.0158967 0.2533 0.5
37 2 0.0550926 0.218627 0.5
9 1 0.115348 0.217538 0.5
25 2 0.355005 0.228862 0.5
13 1 0.905946 0.228337 0.5
8 1 0.13969 0.264784 0.5
24 2 0.134563 0.299087 0.5
38 2 0.221474 0.304712 0.5
19 1 0.631792 0.300039 0.5
27 2 0.657875 0.26929 0.5
43 3 0.483032 0.319333 0.5
31 2 0.819627 0.360189 0.5
40 2 0.875418 0.343848 0.5
70 4 0.846042 0.325535 0.5
33 2 0.980742 0.331882 0.5
73 4 0.661712 0.395353 0.5
60 3 0.442282 0.439112 0.5
74 4 0.853898 0.466572 0.5
6 1 0.303275 0.52382 0.5
58 3 0.633754 0.497043 0.5
7 1 0.54855 0.549617 0.5
39 2 0.0337985 0.622911 0.5
41 3 0.0118494 0.580297 0.5
28 2 0.14858 0.622288 0.5
55 3 0.166097 0.583201 0.5
79 4 0.1998 0.616954 0.5
12 1 0.30636 0.596691 0.5
30 2 0.495131 0.585443 0.5
11 1 0.868247 0.60208 0.5
51 3 0.439141 0.645634 0.5
57 3 0.805178 0.652615 0.5
45 3 0.37315 0.692526 0.5
66 4 0.398753 0.68699 0.5
65 4 0.594616 0.710797 0.5
62 4 0.937271 0.705516 0.5
29 2 0.200672 0.765445 0.5
21 2 0.216203 0.744 0.5
17 1 0.274939 0.77305 0.5
32 2 0.544425 0.767094 0.5
52 3 0.57689 0.761975 0.5
49 3 0.623096 0.773498 0.5
14 1 0.862418 0.753156 0.5
54 3 0.993993 0.783005 0.5
44 3 0.192541 0.833505 0.5
75 4 0.697241 0.826287 0.5
16 1 0.81702 0.818873 0.5
46 3 0.873313 0.830247 0.5
53 3 0.849333 0.812746 0.5
34 2 0.978852 0.821301 0.5
23 2 0.173123 0.894527 0.5
63 4 0.730737 0.846889 0.5
10 1 0.782287 0.864797 0.5
22 2 0.0688876 0.946756 0.5
59 3 0.0906906 0.91933 0.5
71 4 0.261254 0.895049 0.5
42 3 0.315815 0.908865 0.5
18 1 0.61337 0.916958 0.5
50 3 0.912593 0.943947 0.5
20 1 0.0411401 0.95375 0.5
68 4 0.124609 0.958453 0.5
77 4 0.414289 0.948808 0.5
72 4 0.470938 0.97802 0.5
15 1 0.780031 0.984111 0.5
ITEM: TIMESTEP
40
ITEM: NUMBER OF ATOMS
80
ITEM: BOX BOUNDS pp pp pp
-7.1708190940696221e+00 7.1708190940696221e+00
-7.1708190940696221e+00 7.1708190940696221e+00
-1.0000000000000001e-01 1.0000000000000001e-01
ITEM: ATOMS id type xs ys zs
64 4 0.239068 0.0163415 0.5
2 1 0.47556 0.0105929 0.5
35 2 0.778341 0.0992721 0.5
5 1 0.923669 0.0990622 0.5
48 3 0.0522171 0.111383 0.5
3 1 0.116568 0.115302 0.5
80 4 0.169526 0.119755 0.5
76 4 0.489089 0.116276 0.5
1 1 0.739194 0.113028 0.5
4 1 0.169457 0.191182 0.5
36 2 0.232541 0.19147 0.5
61 4 0.32557 0.18148 0.5
47 3 0.489925 0.171027 0.5
26 2 0.681342 0.200632 0.5
56 3 0.665365 0.178021 0.5
78 4 0.774808 0.204845 0.5
67 4 0.898599 0.206765 0.5
69 4 0.0157634 0.253417 0.5
37 2 0.0544664 0.218518 0.5
9 1 0.114496 0.216741 0.5
25 2 0.355064 0.228957 0.5
13 1 0.906449 0.229813 0.5
8 1 0.140313 0.264721 0.5
24 2 0.134362 0.300848 0.5
38 2 0.221501 0.304724 0.5
19 1 0.630827 0.301176 0.5
27 2 0.658804 0.268262 0.5
43 3 0.483032 0.319333 0.5
31 2 0.818767 0.36074 0.5
40 2 0.876658 0.344103 0.5
70 4 0.845661 0.32473 0.5
33 2 0.980742 0.331882 0.5
73 4 0.661712 0.395353 0.5
60 3 0.442282 0.439112 0.5
74 4 0.853898 0.466572 0.5
6 1 0.303247 0.52317 0.5
58 3 0.633754 0.497043 0.5
7 1 0.549091 0.549254 0.5
39 2 0.0340845 0.623467 0.5
41 3 0.0115633 0.579742 0.5
28 2 0.148041 0.623044 0.5
55 3 0.166362 0.582402 0.5
79 4 0.200075 0.616997 0.5
12 1 0.306387 0.597341 0.5
30 2 0.494589 0.585807 0.5
11 1 0.868271 0.60206 0.5
51 3 0.439142 0.645634 0.5
57 3 0.805154 0.652635 0.5
45 3 0.372383 0.692692 0.5
66 4 0.39952 0.686824 0.5
65 4 0.59462 0.710786 0.5
62 4 0.937271 0.705516 0.5
29 2 0.199365 0.766706 0.5
21 2 0.216648 0.742387 0.5
17 1 0.275806 0.773347 0.5
32 2 0.543291 0.767271 0.5
52 3 0.577717 0.761735 0.5
49 3 0.623398 0.773572 0.5
14 1 0.862744 0.752305 0.5
54 3 0.994309 0.782204 0.5
44 3 0.192574 0.833438 0.5
75 4 0.697182 0.826251 0.5
16 1 0.815463 0.818469 0.5
46 3 0.874716 0.830985 0.5
53 3 0.849872 0.812356 0.5
34 2 0.978535 0.822102 0.5
23 2 0.173084 0.894648 0.5
63 4 0.730433 0.846803 0.5
10 1 0.781939 0.865827 0.5
22 2 0.0699705 0.947072 0.5
59 3 0.091794 0.918177 0.5
71 4 0.261252 0.895048 0.5
42 3 0.315818 0.908865 0.5
18 1 0.61337 0.916958 0.5
50 3 0.912593 0.943947 0.5
20 1 0.0388538 0.954547 0.5
68 4 0.124709 0.958493 0.5
77 4 0.414289 0.948808 0.5
72 4 0.470771 0.97684 0.5
15 1 0.780031 0.984111 0.5
ITEM: TIMESTEP
50
ITEM: NUMBER OF ATOMS
80
ITEM: BOX BOUNDS pp pp pp
-6.8332102655502025e+00 6.8332102655502025e+00
-6.8332102655502025e+00 6.8332102655502025e+00
-1.0000000000000001e-01 1.0000000000000001e-01
ITEM: ATOMS id type xs ys zs
64 4 0.239068 0.0163415 0.5
2 1 0.475795 0.0122446 0.5
35 2 0.780395 0.0985503 0.5
5 1 0.923669 0.0990622 0.5
48 3 0.0516461 0.111348 0.5
3 1 0.116282 0.114965 0.5
80 4 0.170234 0.119727 0.5
76 4 0.489088 0.116235 0.5
1 1 0.73714 0.11375 0.5
4 1 0.170302 0.190116 0.5
36 2 0.23357 0.191461 0.5
61 4 0.325452 0.18129 0.5
47 3 0.489926 0.171067 0.5
26 2 0.682564 0.201999 0.5
56 3 0.664227 0.176399 0.5
78 4 0.774808 0.204845 0.5
67 4 0.897906 0.204731 0.5
69 4 0.0155201 0.253634 0.5
37 2 0.0535412 0.218308 0.5
9 1 0.113284 0.215602 0.5
25 2 0.355182 0.229147 0.5
13 1 0.907142 0.231848 0.5
8 1 0.141149 0.264749 0.5
24 2 0.13406 0.30338 0.5
38 2 0.221623 0.304772 0.5
19 1 0.629477 0.302768 0.5
27 2 0.660071 0.266925 0.5
43 3 0.483032 0.319333 0.5
31 2 0.817486 0.36156 0.5
40 2 0.878461 0.344454 0.5
70 4 0.845138 0.323558 0.5
33 2 0.980742 0.331882 0.5
73 4 0.661712 0.395353 0.5
60 3 0.442282 0.439112 0.5
74 4 0.853898 0.466572 0.5
6 1 0.303205 0.522173 0.5
58 3 0.633754 0.497043 0.5
7 1 0.54991 0.548705 0.5
39 2 0.0345072 0.624287 0.5
41 3 0.0111407 0.578921 0.5
28 2 0.147207 0.624139 0.5
55 3 0.166709 0.581218 0.5
79 4 0.200562 0.617086 0.5
12 1 0.306429 0.598338 0.5
30 2 0.493772 0.586354 0.5
11 1 0.868352 0.601995 0.5
51 3 0.439151 0.645624 0.5
57 3 0.805073 0.6527 0.5
45 3 0.371301 0.692926 0.5
66 4 0.40059 0.686602 0.5
65 4 0.594636 0.710736 0.5
62 4 0.937271 0.705516 0.5
29 2 0.197482 0.768368 0.5
21 2 0.217183 0.740109 0.5
17 1 0.277171 0.77381 0.5
32 2 0.541697 0.767521 0.5
52 3 0.578798 0.761411 0.5
49 3 0.623895 0.773696 0.5
14 1 0.863267 0.750892 0.5
54 3 0.994763 0.781057 0.5
44 3 0.192635 0.833347 0.5
75 4 0.697057 0.826174 0.5
16 1 0.813209 0.817902 0.5
46 3 0.876735 0.832101 0.5
53 3 0.850626 0.81187 0.5
34 2 0.978082 0.823249 0.5
23 2 0.173006 0.894893 0.5
63 4 0.729981 0.846679 0.5
10 1 0.781475 0.867378 0.5
22 2 0.0713805 0.947543 0.5
59 3 0.0933447 0.916484 0.5
71 4 0.261229 0.895043 0.5
42 3 0.31584 0.908871 0.5
18 1 0.61337 0.916958 0.5
50 3 0.912593 0.943947 0.5
20 1 0.0356515 0.955665 0.5
68 4 0.124951 0.958597 0.5
77 4 0.414289 0.948808 0.5
72 4 0.470536 0.975188 0.5
15 1 0.780031 0.984111 0.5
ITEM: TIMESTEP
60
ITEM: NUMBER OF ATOMS
80
ITEM: BOX BOUNDS pp pp pp
-6.5909563878397197e+00 6.5909563878397197e+00
-6.5909563878397197e+00 6.5909563878397197e+00
-1.0000000000000001e-01 1.0000000000000001e-01
ITEM: ATOMS id type xs ys zs
64 4 0.239068 0.0163415 0.5
2 1 0.476097 0.0143716 0.5
35 2 0.783035 0.0976226 0.5
5 1 0.923669 0.0990622 0.5
48 3 0.0508088 0.111297 0.5
3 1 0.115876 0.114334 0.5
80 4 0.171217 0.119616 0.5
76 4 0.489087 0.116139 0.5
1 1 0.734513 0.114659 0.5
4 1 0.171469 0.188785 0.5
36 2 0.234995 0.191459 0.5
61 4 0.325261 0.180982 0.5
47 3 0.489927 0.171164 0.5
26 2 0.684165 0.203629 0.5
56 3 0.662766 0.174333 0.5
78 4 0.774808 0.204845 0.5
67 4 0.897025 0.202142 0.5
69 4 0.0151445 0.253972 0.5
37 2 0.0522727 0.217969 0.5
9 1 0.111696 0.214136 0.5
25 2 0.355373 0.229455 0.5
13 1 0.908023 0.234436 0.5
8 1 0.142202 0.264903 0.5
24 2 0.133618 0.306713 0.5
38 2 0.221911 0.304877 0.5
19 1 0.627734 0.30482 0.5
27 2 0.66166 0.265327 0.5
43 3 0.483032 0.319333 0.5
31 2 0.815766 0.362665 0.5
40 2 0.880845 0.344903 0.5
70 4 0.844475 0.322004 0.5
33 2 0.980742 0.331882 0.5
73 4 0.661712 0.395353 0.5
60 3 0.442282 0.439112 0.5
74 4 0.853898 0.466572 0.5
6 1 0.303147 0.520799 0.5
58 3 0.633754 0.497043 0.5
7 1 0.551028 0.547955 0.5
39 2 0.0350751 0.62539 0.5
41 3 0.0105728 0.577818 0.5
28 2 0.146054 0.625589 0.5
55 3 0.167134 0.579623 0.5
79 4 0.20129 0.617231 0.5
12 1 0.306487 0.599713 0.5
30 2 0.492672 0.587084 0.5
11 1 0.868518 0.601862 0.5
51 3 0.439173 0.645601 0.5
57 3 0.804907 0.652833 0.5
45 3 0.3699 0.693229 0.5
66 4 0.401951 0.686342 0.5
65 4 0.594673 0.710621 0.5
62 4 0.937271 0.705516 0.5
29 2 0.195009 0.770383 0.5
21 2 0.217781 0.737144 0.5
17 1 0.279073 0.774457 0.5
32 2 0.539623 0.767846 0.5
52 3 0.5801 0.761016 0.5
49 3 0.62463 0.773881 0.5
14 1 0.864011 0.748846 0.5
54 3 0.995358 0.779553 0.5
44 3 0.192735 0.833251 0.5
75 4 0.696845 0.826043 0.5
16 1 0.810226 0.817145 0.5
46 3 0.879381 0.833626 0.5
53 3 0.851612 0.811301 0.5
34 2 0.977487 0.824754 0.5
23 2 0.172893 0.895288 0.5
63 4 0.729375 0.846515 0.5
10 1 0.780899 0.869511 0.5
22 2 0.0730793 0.948188 0.5
59 3 0.095317 0.914222 0.5
71 4 0.261164 0.895026 0.5
42 3 0.315905 0.908887 0.5
18 1 0.61337 0.916958 0.5
50 3 0.912593 0.943947 0.5
20 1 0.031535 0.957092 0.5
68 4 0.125382 0.958791 0.5
77 4 0.414289 0.948808 0.5
72 4 0.470235 0.973061 0.5
15 1 0.780031 0.98412 0.5
ITEM: TIMESTEP
70
ITEM: NUMBER OF ATOMS
80
ITEM: BOX BOUNDS pp pp pp
-6.4260334604779157e+00 6.4260334604779157e+00
-6.4260334604779157e+00 6.4260334604779157e+00
-1.0000000000000001e-01 1.0000000000000001e-01
ITEM: ATOMS id type xs ys zs
64 4 0.239068 0.0163415 0.5
2 1 0.476463 0.0169523 0.5
35 2 0.786234 0.0964987 0.5
5 1 0.923669 0.0990622 0.5
48 3 0.0496822 0.111232 0.5
3 1 0.115344 0.113341 0.5
80 4 0.172484 0.119393 0.5
76 4 0.489084 0.11597 0.5
1 1 0.731383 0.115693 0.5
4 1 0.172971 0.187226 0.5
36 2 0.236838 0.19147 0.5
61 4 0.324987 0.180542 0.5
47 3 0.48993 0.171332 0.5
26 2 0.686134 0.205483 0.5
56 3 0.660972 0.171867 0.5
78 4 0.774808 0.204845 0.5
67 4 0.895966 0.199033 0.5
69 4 0.0146229 0.254451 0.5
37 2 0.0506372 0.217485 0.5
9 1 0.10974 0.212384 0.5
25 2 0.355647 0.229895 0.5
13 1 0.909082 0.237544 0.5
8 1 0.143465 0.265201 0.5
24 2 0.133005 0.310826 0.5
38 2 0.222421 0.305052 0.5
19 1 0.625614 0.307313 0.5
27 2 0.663538 0.263536 0.5
43 3 0.483032 0.319333 0.5
31 2 0.813618 0.364047 0.5
40 2 0.883787 0.345447 0.5
70 4 0.843679 0.320078 0.5
33 2 0.980743 0.331882 0.5
73 4 0.661712 0.395353 0.5
60 3 0.442282 0.439112 0.5
74 4 0.853898 0.466572 0.5
6 1 0.303072 0.519037 0.5
58 3 0.633764 0.497037 0.5
7 1 0.55244 0.547008 0.5
39 2 0.0357881 0.626774 0.5
41 3 0.00985976 0.576434 0.5
28 2 0.144581 0.627387 0.5
55 3 0.167628 0.57762 0.5
79 4 0.202268 0.617436 0.5
12 1 0.306562 0.601474 0.5
30 2 0.491307 0.587975 0.5
11 1 0.868788 0.601646 0.5
51 3 0.439203 0.645569 0.5
57 3 0.804637 0.653049 0.5
45 3 0.368191 0.693598 0.5
66 4 0.403573 0.686067 0.5
65 4 0.594736 0.710416 0.5
62 4 0.937285 0.705508 0.5
29 2 0.191971 0.772686 0.5
21 2 0.21842 0.733511 0.5
17 1 0.281507 0.775293 0.5
32 2 0.537082 0.768245 0.5
52 3 0.581584 0.760566 0.5
49 3 0.625624 0.774137 0.5
14 1 0.864971 0.74616 0.5
54 3 0.996091 0.777698 0.5
44 3 0.192882 0.833171 0.5
75 4 0.696533 0.825849 0.5
16 1 0.80654 0.816159 0.5
46 3 0.88262 0.835556 0.5
53 3 0.852825 0.810672 0.5
34 2 0.976754 0.826608 0.5
23 2 0.172775 0.895845 0.5
63 4 0.728609 0.846311 0.5
10 1 0.780237 0.872231 0.5
22 2 0.0750169 0.949017 0.5
59 3 0.0976299 0.911405 0.5
71 4 0.261041 0.894995 0.5
42 3 0.316029 0.908919 0.5
18 1 0.61337 0.916958 0.5
50 3 0.912593 0.943947 0.5
20 1 0.0265631 0.958795 0.5
68 4 0.126039 0.959092 0.5
77 4 0.414289 0.948808 0.5
72 4 0.469868 0.97048 0.5
15 1 0.780031 0.984177 0.5
ITEM: TIMESTEP
80
ITEM: NUMBER OF ATOMS
80
ITEM: BOX BOUNDS pp pp pp
-6.3301756113923942e+00 6.3301756113923942e+00
-6.3301756113923942e+00 6.3301756113923942e+00
-1.0000000000000001e-01 1.0000000000000001e-01
ITEM: ATOMS id type xs ys zs
64 4 0.239068 0.0163415 0.5
2 1 0.476886 0.0199341 0.5
35 2 0.789926 0.0952069 0.5
5 1 0.923669 0.0990622 0.5
48 3 0.0482616 0.111157 0.5
3 1 0.114693 0.111947 0.5
80 4 0.174025 0.119034 0.5
76 4 0.48908 0.11572 0.5
1 1 0.72786 0.116771 0.5
4 1 0.174796 0.185485 0.5
36 2 0.239098 0.191504 0.5
61 4 0.32463 0.179967 0.5
47 3 0.489934 0.171583 0.5
26 2 0.688444 0.207503 0.5
56 3 0.658844 0.169081 0.5
78 4 0.774808 0.204845 0.5
67 4 0.894753 0.195473 0.5
69 4 0.0139522 0.255081 0.5
37 2 0.0486373 0.216855 0.5
9 1 0.107448 0.210406 0.5
25 2 0.356004 0.23047 0.5
13 1 0.910298 0.24109 0.5
8 1 0.144914 0.265644 0.5
24 2 0.132203 0.315644 0.5
38 2 0.223183 0.305306 0.5
19 1 0.623154 0.3102 0.5
27 2 0.665646 0.261634 0.5
43 3 0.483032 0.319333 0.5
31 2 0.811092 0.36568 0.5
40 2 0.887197 0.346094 0.5
70 4 0.842768 0.317817 0.5
33 2 0.980767 0.331879 0.5
73 4 0.661712 0.395353 0.5
60 3 0.442282 0.439112 0.5
74 4 0.853898 0.466572 0.5
6 1 0.302982 0.516911 0.5
58 3 0.633808 0.49701 0.5
7 1 0.554105 0.545889 0.5
39 2 0.0366356 0.62842 0.5
41 3 0.00901224 0.574789 0.5
28 2 0.142813 0.629502 0.5
55 3 0.168184 0.575244 0.5
79 4 0.20348 0.617696 0.5
12 1 0.306652 0.6036 0.5
30 2 0.489713 0.588995 0.5
11 1 0.869172 0.601338 0.5
51 3 0.439236 0.645533 0.5
57 3 0.804253 0.653357 0.5
45 3 0.366206 0.694026 0.5
66 4 0.405411 0.685801 0.5
65 4 0.594827 0.710107 0.5
62 4 0.937339 0.705477 0.5
29 2 0.188431 0.77519 0.5
21 2 0.219081 0.729273 0.5
17 1 0.28442 0.776312 0.5
32 2 0.534125 0.768712 0.5
52 3 0.583197 0.760075 0.5
49 3 0.626877 0.774469 0.5
14 1 0.866113 0.742896 0.5
54 3 0.996949 0.775528 0.5
44 3 0.193089 0.833134 0.5
75 4 0.696111 0.825585 0.5
16 1 0.802244 0.814906 0.5
46 3 0.886369 0.837848 0.5
53 3 0.854244 0.810016 0.5
34 2 0.975896 0.828778 0.5
23 2 0.172689 0.896564 0.5
63 4 0.727672 0.846075 0.5
10 1 0.779528 0.875497 0.5
22 2 0.0771283 0.950032 0.5
59 3 0.100169 0.908092 0.5
71 4 0.260849 0.894946 0.5
42 3 0.316221 0.908967 0.5
18 1 0.61337 0.916958 0.5
50 3 0.912593 0.943947 0.5
20 1 0.0208599 0.960717 0.5
68 4 0.126937 0.959503 0.5
77 4 0.414289 0.948808 0.5
72 4 0.469445 0.967498 0.5
15 1 0.78003 0.984318 0.5
ITEM: TIMESTEP
90
ITEM: NUMBER OF ATOMS
80
ITEM: BOX BOUNDS pp pp pp
-6.2946940289492836e+00 6.2946940289492836e+00
-6.2946940289492836e+00 6.2946940289492836e+00
-1.0000000000000001e-01 1.0000000000000001e-01
ITEM: ATOMS id type xs ys zs
64 4 0.239068 0.0163415 0.5
2 1 0.477355 0.0232374 0.5
35 2 0.794017 0.0937987 0.5
5 1 0.923669 0.0990622 0.5
48 3 0.0465608 0.111077 0.5
3 1 0.113943 0.110143 0.5
80 4 0.175809 0.118523 0.5
76 4 0.489075 0.115386 0.5
1 1 0.724076 0.117818 0.5
4 1 0.176907 0.183616 0.5
36 2 0.241749 0.191571 0.5
61 4 0.324194 0.179265 0.5
47 3 0.489939 0.171916 0.5
26 2 0.691056 0.209615 0.5
56 3 0.656404 0.166072 0.5
78 4 0.774808 0.204845 0.5
67 4 0.89342 0.191559 0.5
69 4 0.0131405 0.255864 0.5
37 2 0.046302 0.216094 0.5
9 1 0.10488 0.208281 0.5
25 2 0.35644 0.231172 0.5
13 1 0.911642 0.244938 0.5
8 1 0.146509 0.266216 0.5
24 2 0.13121 0.321035 0.5
38 2 0.224201 0.30564 0.5
19 1 0.620416 0.313407 0.5
27 2 0.667908 0.259711 0.5
43 3 0.483032 0.319333 0.5
31 2 0.808271 0.367512 0.5
40 2 0.890927 0.346866 0.5
70 4 0.841767 0.315287 0.5
33 2 0.980849 0.33187 0.5
73 4 0.661712 0.395353 0.5
60 3 0.442282 0.439112 0.5
74 4 0.853898 0.466572 0.5
6 1 0.302879 0.514466 0.5
58 3 0.633907 0.496949 0.5
7 1 0.555963 0.544637 0.5
39 2 0.0375973 0.630287 0.5
41 3 0.00805051 0.572921 0.5
28 2 0.140802 0.631877 0.5
55 3 0.168789 0.572562 0.5
79 4 0.204887 0.618003 0.5
12 1 0.306756 0.606045 0.5
30 2 0.487942 0.590101 0.5
11 1 0.86967 0.60094 0.5
51 3 0.439264 0.645497 0.5
57 3 0.803756 0.653756 0.5
45 3 0.363997 0.694502 0.5
66 4 0.407405 0.685568 0.5
65 4 0.594945 0.709685 0.5
62 4 0.937457 0.705413 0.5
29 2 0.184488 0.777793 0.5
21 2 0.219746 0.724536 0.5
17 1 0.287712 0.777491 0.5
32 2 0.530828 0.769239 0.5
52 3 0.584882 0.75956 0.5
49 3 0.628372 0.77488 0.5
14 1 0.867387 0.739169 0.5
54 3 0.99791 0.773096 0.5
44 3 0.193371 0.833161 0.5
75 4 0.695578 0.825249 0.5
16 1 0.797484 0.813363 0.5
46 3 0.890488 0.840418 0.5
53 3 0.855824 0.809367 0.5
34 2 0.974944 0.831209 0.5
23 2 0.172673 0.897432 0.5
63 4 0.726568 0.845822 0.5
10 1 0.778825 0.87923 0.5
22 2 0.0793376 0.951217 0.5
59 3 0.1028 0.904385 0.5
71 4 0.260586 0.89488 0.5
42 3 0.316484 0.909034 0.5
18 1 0.61337 0.916958 0.5
50 3 0.912593 0.943947 0.5
20 1 0.0146057 0.962781 0.5
68 4 0.12807 0.960021 0.5
77 4 0.414289 0.948808 0.5
72 4 0.468977 0.964195 0.5
15 1 0.780027 0.984562 0.5
ITEM: TIMESTEP
100
ITEM: NUMBER OF ATOMS
80
ITEM: BOX BOUNDS pp pp pp
-6.3073033480160996e+00 6.3073033480160996e+00
-6.3073033480160996e+00 6.3073033480160996e+00
-1.0000000000000001e-01 1.0000000000000001e-01
ITEM: ATOMS id type xs ys zs
64 4 0.239068 0.0163415 0.5
2 1 0.477855 0.0267662 0.5
35 2 0.798393 0.0923278 0.5
5 1 0.923669 0.0990622 0.5
48 3 0.0446084 0.111001 0.5
3 1 0.113123 0.10795 0.5
80 4 0.177793 0.117858 0.5
76 4 0.489069 0.114978 0.5
1 1 0.720165 0.118767 0.5
4 1 0.179247 0.181672 0.5
36 2 0.244748 0.19168 0.5
61 4 0.323691 0.178455 0.5
47 3 0.489945 0.172326 0.5
26 2 0.693927 0.211741 0.5
56 3 0.653692 0.162942 0.5
78 4 0.774808 0.204845 0.5
67 4 0.892005 0.187406 0.5
69 4 0.0122048 0.256795 0.5
37 2 0.0436798 0.215226 0.5
9 1 0.102111 0.20609 0.5
25 2 0.356943 0.231982 0.5
13 1 0.913066 0.24893 0.5
8 1 0.148193 0.26689 0.5
24 2 0.130049 0.326846 0.5
38 2 0.225454 0.306052 0.5
19 1 0.61747 0.316847 0.5
27 2 0.670237 0.257857 0.5
43 3 0.483032 0.319333 0.5
31 2 0.805255 0.36948 0.5
40 2 0.894814 0.347776 0.5
70 4 0.840705 0.312571 0.5
33 2 0.981029 0.331869 0.5
73 4 0.661712 0.395353 0.5
60 3 0.442282 0.439112 0.5
74 4 0.853898 0.466572 0.5
6 1 0.302764 0.511771 0.5
58 3 0.634075 0.496846 0.5
7 1 0.557948 0.543297 0.5
39 2 0.0386427 0.632324 0.5
41 3 0.00700139 0.570885 0.5
28 2 0.138619 0.63444 0.5
55 3 0.169431 0.569661 0.5
79 4 0.206431 0.618341 0.5
12 1 0.30687 0.60874 0.5
30 2 0.486055 0.591247 0.5
11 1 0.870269 0.60046 0.5
51 3 0.439282 0.645464 0.5
57 3 0.803156 0.654236 0.5
45 3 0.361624 0.695011 0.5
66 4 0.409493 0.685389 0.5
65 4 0.595085 0.70915 0.5
62 4 0.93766 0.705308 0.5
29 2 0.180263 0.780391 0.5
21 2 0.220407 0.719436 0.5
17 1 0.291253 0.778795 0.5
32 2 0.527272 0.769812 0.5
52 3 0.586581 0.759035 0.5
49 3 0.630088 0.775368 0.5
14 1 0.868734 0.735121 0.5
54 3 0.998948 0.770472 0.5
44 3 0.193742 0.833271 0.5
75 4 0.694938 0.824842 0.5
16 1 0.792434 0.811524 0.5
46 3 0.894789 0.84317 0.5
53 3 0.857514 0.80876 0.5
34 2 0.97396 0.833827 0.5
23 2 0.172761 0.89843 0.5
63 4 0.725312 0.845567 0.5
10 1 0.778175 0.883323 0.5
22 2 0.0815665 0.952549 0.5
59 3 0.105402 0.900397 0.5
71 4 0.260257 0.894796 0.5
42 3 0.316813 0.909117 0.5
18 1 0.61337 0.916958 0.5
50 3 0.912587 0.943946 0.5
20 1 0.00799744 0.964917 0.5
68 4 0.129417 0.960631 0.5
77 4 0.414289 0.948808 0.5
72 4 0.468476 0.960665 0.5
15 1 0.780022 0.984922 0.5
ITEM: TIMESTEP
110
ITEM: NUMBER OF ATOMS
80
ITEM: BOX BOUNDS pp pp pp
-6.3527624929225865e+00 6.3527624929225865e+00
-6.3527624929225865e+00 6.3527624929225865e+00
-1.0000000000000001e-01 1.0000000000000001e-01
ITEM: ATOMS id type xs ys zs
64 4 0.239068 0.0163415 0.5
2 1 0.478373 0.0304101 0.5
35 2 0.802942 0.0908403 0.5
5 1 0.923669 0.0990622 0.5
48 3 0.0424401 0.110936 0.5
3 1 0.112267 0.105411 0.5
80 4 0.179926 0.11704 0.5
76 4 0.489064 0.11452 0.5
1 1 0.716248 0.11957 0.5
4 1 0.181749 0.179697 0.5
36 2 0.248045 0.191839 0.5
61 4 0.323135 0.177558 0.5
47 3 0.489952 0.1728 0.5
26 2 0.697018 0.213802 0.5
56 3 0.650753 0.159782 0.5
78 4 0.774808 0.204845 0.5
67 4 0.890547 0.183123 0.5
69 4 0.0111664 0.257865 0.5
37 2 0.0408169 0.214277 0.5
9 1 0.0992175 0.203871 0.5
25 2 0.3575 0.232879 0.5
13 1 0.914519 0.252915 0.5
8 1 0.149918 0.267636 0.5
24 2 0.12876 0.33295 0.5
38 2 0.226903 0.30654 0.5
19 1 0.614387 0.320431 0.5
27 2 0.672545 0.25615 0.5
43 3 0.483032 0.319333 0.5
31 2 0.802153 0.371518 0.5
40 2 0.898699 0.348831 0.5
70 4 0.839614 0.309756 0.5
33 2 0.981344 0.33189 0.5
73 4 0.661716 0.39536 0.5
60 3 0.442282 0.439112 0.5
74 4 0.853898 0.466572 0.5
6 1 0.302643 0.508899 0.5
58 3 0.634323 0.496694 0.5
7 1 0.559996 0.541911 0.5
39 2 0.0397261 0.634474 0.5
41 3 0.00589366 0.568734 0.5
28 2 0.136359 0.637113 0.5
55 3 0.170098 0.566635 0.5
79 4 0.208049 0.618695 0.5
12 1 0.306987 0.611606 0.5
30 2 0.484111 0.592389 0.5
11 1 0.870953 0.599912 0.5
51 3 0.439285 0.645436 0.5
57 3 0.802472 0.654784 0.5
45 3 0.359154 0.695546 0.5
66 4 0.411613 0.685284 0.5
65 4 0.595243 0.708507 0.5
62 4 0.937961 0.705162 0.5
29 2 0.175877 0.782895 0.5
21 2 0.221056 0.714116 0.5
17 1 0.294906 0.780185 0.5
32 2 0.523544 0.770416 0.5
52 3 0.588242 0.758511 0.5
49 3 0.631997 0.775929 0.5
14 1 0.870087 0.730873 0.5
54 3 1.00003 0.767728 0.5
44 3 0.194219 0.833475 0.5
75 4 0.694198 0.824367 0.5
16 1 0.78725 0.809397 0.5
46 3 0.899117 0.846038 0.5
53 3 0.859274 0.808208 0.5
34 2 0.973005 0.836557 0.5
23 2 0.172976 0.899542 0.5
63 4 0.723932 0.845333 0.5
10 1 0.777602 0.887665 0.5
22 2 0.0837422 0.953996 0.5
59 3 0.107906 0.896227 0.5
71 4 0.259871 0.894699 0.5
42 3 0.317198 0.909215 0.5
18 1 0.61337 0.916958 0.5
50 3 0.912547 0.943936 0.5
20 1 0.00121736 0.967085 0.5
68 4 0.130951 0.961305 0.5
77 4 0.414288 0.948808 0.5
72 4 0.467957 0.957005 0.5
15 1 0.780014 0.985411 0.5
ITEM: TIMESTEP
120
ITEM: NUMBER OF ATOMS
80
ITEM: BOX BOUNDS pp pp pp
-6.4093919421840067e+00 6.4093919421840067e+00
-6.4093919421840067e+00 6.4093919421840067e+00
-1.0000000000000001e-01 1.0000000000000001e-01
ITEM: ATOMS id type xs ys zs
64 4 0.239068 0.0163415 0.5
2 1 0.478892 0.0340643 0.5
35 2 0.807572 0.0893703 0.5
5 1 0.92367 0.0990589 0.5
48 3 0.0400895 0.110889 0.5
3 1 0.111409 0.102572 0.5
80 4 0.182164 0.116071 0.5
76 4 0.489063 0.11405 0.5
1 1 0.712422 0.120199 0.5
4 1 0.18435 0.177725 0.5
36 2 0.251584 0.192055 0.5
61 4 0.322555 0.176594 0.5
47 3 0.48996 0.173324 0.5
26 2 0.700296 0.215734 0.5
56 3 0.64763 0.156665 0.5
78 4 0.774813 0.204844 0.5
67 4 0.889074 0.178809 0.5
69 4 0.0100461 0.259063 0.5
37 2 0.0377344 0.213263 0.5
9 1 0.0962674 0.201643 0.5
25 2 0.358096 0.233839 0.5
13 1 0.915956 0.256771 0.5
8 1 0.151653 0.268433 0.5
24 2 0.12739 0.339247 0.5
38 2 0.228505 0.307104 0.5
19 1 0.611223 0.324082 0.5
27 2 0.674758 0.254648 0.5
43 3 0.483032 0.319333 0.5
31 2 0.799057 0.373564 0.5
40 2 0.902448 0.35003 0.5
70 4 0.83852 0.306921 0.5
33 2 0.98182 0.331941 0.5
73 4 0.661727 0.395377 0.5
60 3 0.442282 0.439112 0.5
74 4 0.853898 0.466572 0.5
6 1 0.302517 0.505919 0.5
58 3 0.634655 0.496491 0.5
7 1 0.56205 0.540516 0.5
39 2 0.0408045 0.636687 0.5
41 3 0.00475299 0.566519 0.5
28 2 0.134107 0.639826 0.5
55 3 0.170781 0.56357 0.5