LAMMPS data file via write_data, version 23 Jun 2022, timestep = 10000

80 atoms
4 atom types

-4.842125297671181 4.842125297671181 xlo xhi
-4.842125297671181 4.842125297671181 ylo yhi
-0.1 0.1 zlo zhi

Atoms # sphere

80 4 0.7 2.915451895043732 -4.690237939915704 -4.522936151387259 0 0 0 0
16 1 1.6 0.2441406249999999 -3.6017369118656615 -4.286755026543413 0 0 1 0
46 3 1 1 -2.3022385433909105 -4.640396320116821 0 0 1 0
10 1 1.6 0.2441406249999999 -0.9780600202599405 -4.65220672044657 0 0 0 0
13 1 1.6 0.2441406249999999 1.643082087578148 -3.5822090182110693 0 0 0 0
54 3 1 1 2.929818866387783 -4.080118822689371 0 -1 0 0
62 4 0.7 2.915451895043732 3.6009799219571974 -4.541950092114776 0 -1 0 0
45 3 1 1 4.45662306142299 -4.153514448259216 0 -1 1 0
79 4 0.7 2.915451895043732 -3.9306643756988393 -3.249082546861283 0 1 0 0
41 3 1 1 -3.2236240595743975 -3.142864652094031 0 0 0 0
21 2 1.3 0.4551661356395083 -2.375413227036079 -3.6109426480361373 0 0 0 0
5 1 1.6 0.2441406249999999 -1.2035113186564503 -3.14156942918083 0 0 0 0
74 4 0.7 2.915451895043732 -1.7199656651609159 -4.201180525736121 0 0 0 0
2 1 1.6 0.2441406249999999 0.2028029877594788 -3.7122261330202253 0 0 0 0
68 4 0.7 2.915451895043732 2.7852839630191797 -3.3189518793961823 0 0 0 0
67 4 0.7 2.915451895043732 3.7685884129635454 -3.9426438827577983 0 0 0 0
25 2 1.3 0.4551661356395083 3.7186162028709617 -3.135006267412005 0 -1 0 0
34 2 1.3 0.4551661356395083 -4.799331828914433 -3.2474540492620254 0 0 1 0
26 2 1.3 0.4551661356395083 -3.8629448435708205 -2.2625951706924394 0 1 0 0
77 4 0.7 2.915451895043732 -4.4631750471362865 -1.4609873831210698 0 1 1 0
28 2 1.3 0.4551661356395083 -2.476599622039573 -1.2420921860678562 0 0 1 0
37 2 1.3 0.4551661356395083 -2.3720553578829247 -2.4657877369879837 0 0 0 0
64 4 0.7 2.915451895043732 -0.42262408494366444 -2.3157819747679653 0 1 0 0
44 3 1 1 0.41379147188208076 -2.592643344785072 0 0 0 0
76 4 0.7 2.915451895043732 1.1421743981651646 -2.1442394061029373 0 0 0 0
8 1 1.6 0.2441406249999999 2.1965359811851224 -2.3272087384775793 0 0 0 0
22 2 1.3 0.4551661356395083 3.4909568815197307 -1.9146000840463886 0 0 0 0
29 2 1.3 0.4551661356395083 4.65021620053059 -2.029533528875347 0 -1 0 0
42 3 1 1 -3.7332967603221014 -1.357547063631873 0 0 0 0
75 4 0.7 2.915451895043732 -4.498714540630616 -0.2967817327400182 0 1 0 0
36 2 1.3 0.4551661356395083 -1.1565926738868981 -1.5781878209172335 0 1 0 0
65 4 0.7 2.915451895043732 -0.7124669822300307 -0.576377164551416 0 1 0 0
31 2 1.3 0.4551661356395083 0.31510590550860496 -1.4492131148308331 0 0 0 0
58 3 1 1 1.4217234890303292 -1.354216251958615 0 0 0 0
47 3 1 1 0.9147011162321164 -0.5957316416247576 0 0 0 0
66 4 0.7 2.915451895043732 2.3270771314869707 -1.313889094985539 0 0 0 0
32 2 1.3 0.4551661356395083 2.0450054368130557 -0.394006429360803 0 0 0 0
24 2 1.3 0.4551661356395083 4.381135720235111 -0.7889226410884866 0 -1 -1 0
78 4 0.7 2.915451895043732 -4.78802365772436 0.20205583433710572 0 1 0 0
3 1 1.6 0.2441406249999999 -3.412008165898862 -0.25395185592880676 0 0 0 0
1 1 1.6 0.2441406249999999 -1.6722535405191952 -0.21031929080778689 0 0 0 0
23 2 1.3 0.4551661356395083 -0.46593536056406126 0.34859566892678107 0 0 0 0
52 3 1 1 -0.01831777667087575 -0.4574374331514015 0 0 0 0
39 2 1.3 0.4551661356395083 0.8808606583397056 0.5215141321279999 0 0 0 0
33 2 1.3 0.4551661356395083 3.2357799903812356 -0.7045123554226009 0 0 0 0
49 3 1 1 4.070722359701302 0.36727489798070945 0 0 0 0
15 1 1.6 0.2441406249999999 -3.7478869161903523 1.0187252506609443 0 0 0 0
51 3 1 1 -2.562783854249406 0.5888510179859905 0 0 0 0
9 1 1.6 0.2441406249999999 -1.5112230296311782 1.3141343459849661 0 1 0 0
27 2 1.3 0.4551661356395083 -0.20403967365671427 1.4552952794851857 0 0 1 0
6 1 1.6 0.2441406249999999 2.2349573693703686 0.9498716019161408 0 0 0 0
70 4 0.7 2.915451895043732 2.9411436090202177 0.1196588609357061 0 0 0 0
59 3 1 1 3.0901630572073095 1.6352153183579246 0 0 0 0
48 3 1 1 3.691532695047689 0.9683592116718129 0 0 0 0
43 3 1 1 4.601087082501467 1.0841364217468286 0 0 -1 0
69 4 0.7 2.915451895043732 4.013461389330258 1.6734753485488731 0 0 0 0
4 1 1.6 0.2441406249999999 -4.628397921601817 2.190548255043929 0 0 0 0
18 1 1.6 0.2441406249999999 -2.812297923443916 1.9920448949966536 0 0 0 0
30 2 1.3 0.4551661356395083 -1.6449093884049044 2.6680233456476445 0 0 0 0
56 3 1 1 -0.7466164459687157 2.276507635279833 0 0 0 0
55 3 1 1 0.19446600306844797 2.552750839973638 0 0 0 0
11 1 1.6 0.2441406249999999 1.1915482755640285 2.0455507110525035 0 0 0 0
73 4 0.7 2.915451895043732 3.5457371260243136 2.197873971863605 0 0 0 0
40 2 1.3 0.4551661356395083 -3.4626792873889274 3.028237026620488 0 0 0 0
72 4 0.7 2.915451895043732 -2.4735274813085564 3.0078293853312683 0 0 0 0
20 1 1.6 0.2441406249999999 -1.9972402622401995 3.848576531723399 0 0 0 0
7 1 1.6 0.2441406249999999 -0.5025037988748569 3.432570238658153 0 0 0 0
53 3 1 1 0.7420031990911307 3.4141627478028713 0 0 -1 0
71 4 0.7 2.915451895043732 1.5941442727305972 3.9461923406462827 0 -1 -1 0
60 3 1 1 1.6409523028774613 3.168601468413563 0 0 0 0
61 4 0.7 2.915451895043732 2.2166912807803607 3.7365720823670827 0 0 0 0
12 1 1.6 0.2441406249999999 2.688974608722197 2.7557640851171668 0 0 0 0
57 3 1 1 4.012827840973422 2.769124056671825 0 0 0 0
19 1 1.6 0.2441406249999999 -4.423692243310745 3.904995577650757 0 0 -1 0
35 2 1.3 0.4551661356395083 -3.186011430182398 4.044719777863429 0 1 0 0
14 1 1.6 0.2441406249999999 0.4935405990327384 4.555287483998258 0 0 -1 0
38 2 1.3 0.4551661356395083 1.9518200835277568 4.761305773473966 0 0 0 0
17 1 1.6 0.2441406249999999 3.031509407357051 4.260280595764165 0 0 -1 0
63 4 0.7 2.915451895043732 3.9900657800319355 3.688228089340333 0 0 -1 0
50 3 1 1 4.334592147981979 4.552068199452835 0 0 -1 0

Velocities

80 -0.023833383921847837 -0.13437362477482284 0 0 0 0
16 0.07935736407057181 0.01829404859244066 0 0 0 0
46 -0.12145875186153084 -0.03745734292850813 0 0 0 0
10 0.09261636434723254 -0.013743905847590002 0 0 0 0
13 -0.07558583647965758 0.11462251183113825 0 0 0 0
54 -0.11061736428778997 0.027737101187992576 0 0 0 0
62 -0.08512482866963453 -0.04599484550533284 0 0 0 0
45 0.007381634415974812 0.07808942185612142 0 0 0 0
79 -0.103714394571781 -0.01752688253228108 0 0 0 0
41 0.020731489182957454 -0.013575268550202219 0 0 0 0
21 0.05631412945990707 0.08070204409778362 0 0 0 0
5 -0.035570468611509615 -0.002516496084143437 0 0 0 0
74 -0.10656346691517093 -0.09088483915438943 0 0 0 0
2 -0.13025385953413957 -0.05600707775315101 0 0 0 0
68 -0.11571257174715617 -0.030243521521938977 0 0 0 0
67 -0.19674255723103745 0.17263062599600895 0 0 0 0
25 -0.06566288236243273 -0.08317488776931266 0 0 0 0
34 0.17618494474638985 0.004182943634028624 0 0 0 0
26 0.06610360383623834 -0.05935639343460235 0 0 0 0
77 0.11843668758115926 0.023305530373271353 0 0 0 0
28 0.10902185413461803 0.07620616922026836 0 0 0 0
37 -0.12029879257358951 0.0836563598767408 0 0 0 0
64 -0.06960676892974045 0.009691926313491982 0 0 0 0
44 0.0980939199231648 0.11748237754806612 0 0 0 0
76 0.06028316470216947 -0.1367608032741962 0 0 0 0
8 0.10411862239817636 0.022658782674459636 0 0 0 0
22 -0.08067787560910336 -0.08194600564718271 0 0 0 0
29 -0.06068607660906861 0.051015939847872185 0 0 0 0
42 0.062009873144089796 0.06314016765647527 0 0 0 0
75 -0.17329837454616023 0.06457723384483374 0 0 0 0
36 0.17960348194030887 0.012511392634137744 0 0 0 0
65 -0.07604645711010073 0.09993186977697549 0 0 0 0
31 -0.07528732196576715 -0.12946981101860477 0 0 0 0
58 0.05800315978434296 0.005939911613590414 0 0 0 0
47 -0.021060863296326865 0.15788315550955964 0 0 0 0
66 -0.056721219343324 0.10353225178772 0 0 0 0
32 0.04950684604579193 -0.01939570634011879 0 0 0 0
24 0.265767461334276 -0.056503464242553605 0 0 0 0
78 -0.2544145909759533 -0.09799789628020404 0 0 0 0
3 0.022101654693732726 0.0758202323245396 0 0 0 0
1 0.01495730537715784 0.016744311076250205 0 0 0 0
23 0.017159094797024755 -0.17814811175247613 0 0 0 0
52 -0.017948524396664296 0.01840525683503774 0 0 0 0
39 -0.043536734313998834 0.16921601954050985 0 0 0 0
33 0.13998898374819424 -0.008552043392808108 0 0 0 0
49 -0.12419898110663645 0.005971821122412152 0 0 0 0
15 0.0063416236080239075 0.030546998304626913 0 0 0 0
51 -0.12225633646740755 0.08559927747999022 0 0 0 0
9 -0.017243238632625002 0.01734480633671985 0 0 0 0
27 0.11424788969537625 0.008665250654781846 0 0 0 0
6 0.0830298986116405 0.10582679176809719 0 0 0 0
70 -0.0542922102237037 -0.031209604155910314 0 0 0 0
59 -0.03673544836985132 -0.06869480763055287 0 0 0 0
48 0.11381388497210804 -0.13321428132756744 0 0 0 0
43 -0.036732551722708943 -0.036051214413243035 0 0 0 0
69 -0.11398548078087528 0.03983621472750506 0 0 0 0
4 0.07484121930804331 0.12748831345478048 0 0 0 0
18 0.07445043870056212 -0.23517482156293268 0 0 0 0
30 0.06057715354171656 -0.07813689366858578 0 0 0 0
56 -0.1895276931355623 0.07745026989927126 0 0 0 0
55 0.1078119467749494 0.02801880698624601 0 0 0 0
11 0.18704655959303615 -0.11836624045371477 0 0 0 0
73 -0.09344210127033559 0.0025592393820291393 0 0 0 0
40 0.4681041848641651 -0.07841311246916154 0 0 0 0
72 -0.030525243876845288 -0.03166826758468463 0 0 0 0
20 0.16034526592510154 -0.13242157977837737 0 0 0 0
7 -0.06446239528436393 0.08772850402690271 0 0 0 0
53 -0.10323774762381342 -0.08859221590668376 0 0 0 0
71 0.3029805620961742 0.015422104508276217 0 0 0 0
60 -0.19173740499650735 0.18138472625738997 0 0 0 0
61 -0.002270448037259857 0.05093983350632154 0 0 0 0
12 -0.10080549656900778 -0.130909554722085 0 0 0 0
57 -0.04631964983700015 0.09803989656857112 0 0 0 0
19 0.03816615117889137 -0.08623893645979436 0 0 0 0
35 -0.1448902304574144 0.05526376917937759 0 0 0 0
14 0.0491082017196401 -0.050255055665950815 0 0 0 0
38 -0.32375701345859953 -0.04959801696849858 0 0 0 0
17 0.07694859455958698 -0.05588327500796577 0 0 0 0
63 0.07679515721353156 -0.01769701220462496 0 0 0 0
50 0.22449326568799113 0.030089607972141212 0 0 0 0
