ITEM: TIMESTEP
0
ITEM: NUMBER OF ATOMS
80
ITEM: BOX BOUNDS pp pp pp
-1.0000000000000000e+01 1.0000000000000000e+01
-1.0000000000000000e+01 1.0000000000000000e+01
-1.0000000000000001e-01 1.0000000000000001e-01
ITEM: ATOMS id type xs ys zs
24 2 0.153867 0.0458206 0.5
10 1 0.495807 0.0324551 0.5
43 3 0.805261 0.0260327 0.5
62 4 0.0119644 0.0860672 0.5
71 4 0.0920498 0.0816052 0.5
52 3 0.163923 0.0552082 0.5
67 4 0.3877 0.0662384 0.5
75 4 0.92563 0.0637765 0.5
26 2 0.960853 0.0569058 0.5
14 1 0.425068 0.112305 0.5
17 1 0.607789 0.115927 0.5
13 1 0.744399 0.119915 0.5
63 4 0.807707 0.134162 0.5
50 3 0.994771 0.109224 0.5
54 3 0.030118 0.193034 0.5
2 1 0.684189 0.169282 0.5
44 3 0.789324 0.174094 0.5
53 3 0.980853 0.199074 0.5
65 4 0.990908 0.191338 0.5
19 1 0.360756 0.231237 0.5
5 1 0.400679 0.216209 0.5
23 2 0.389554 0.226865 0.5
80 4 0.510279 0.256368 0.5
68 4 0.60839 0.214768 0.5
37 2 0.778915 0.227959 0.5
36 2 0.932484 0.251152 0.5
79 4 0.991863 0.241898 0.5
29 2 0.0640372 0.27251 0.5
3 1 0.23611 0.302234 0.5
21 2 0.338745 0.294008 0.5
74 4 0.578587 0.310716 0.5
47 3 0.582751 0.290338 0.5
8 1 0.813607 0.293854 0.5
15 1 0.342496 0.322687 0.5
6 1 0.500527 0.359415 0.5
78 4 0.676168 0.350899 0.5
66 4 0.691756 0.347665 0.5
64 4 0.833839 0.330424 0.5
41 3 0.306027 0.404077 0.5
30 2 0.646003 0.370798 0.5
56 3 0.729899 0.418524 0.5
1 1 0.21345 0.448832 0.5
57 3 0.855503 0.438057 0.5
42 3 0.0454286 0.518695 0.5
25 2 0.0547699 0.517955 0.5
18 1 0.166925 0.511975 0.5
60 3 0.425568 0.516972 0.5
48 3 0.514933 0.474072 0.5
40 2 0.360002 0.54697 0.5
22 2 0.841527 0.536142 0.5
16 1 0.0975536 0.583671 0.5
45 3 0.361373 0.591957 0.5
58 3 0.937977 0.587737 0.5
76 4 0.454015 0.631929 0.5
38 2 0.728901 0.642717 0.5
35 2 0.937326 0.638834 0.5
9 1 0.974573 0.652087 0.5
11 1 0.830293 0.735205 0.5
31 2 0.385897 0.769001 0.5
59 3 0.643707 0.77811 0.5
70 4 0.755386 0.769261 0.5
69 4 0.806078 0.754854 0.5
32 2 0.930847 0.74897 0.5
77 4 0.954647 0.755697 0.5
39 2 0.358589 0.797579 0.5
20 1 0.502518 0.821706 0.5
12 1 0.812149 0.791284 0.5
72 4 0.224065 0.867386 0.5
7 1 0.324501 0.885412 0.5
55 3 0.401134 0.86373 0.5
61 4 0.542265 0.846189 0.5
33 2 0.696904 0.859725 0.5
4 1 0.114947 0.906952 0.5
34 2 0.170818 0.93251 0.5
73 4 0.797223 0.926354 0.5
49 3 0.959833 0.914614 0.5
27 2 0.222107 0.959429 0.5
28 2 0.296302 0.949549 0.5
46 3 0.451357 0.956649 0.5
51 3 0.516508 0.950539 0.5
ITEM: TIMESTEP
10
ITEM: NUMBER OF ATOMS
80
ITEM: BOX BOUNDS pp pp pp
-9.2427003011425555e+00 9.2427003011425555e+00
-9.2427003011425555e+00 9.2427003011425555e+00
-1.0000000000000001e-01 1.0000000000000001e-01
ITEM: ATOMS id type xs ys zs
24 2 0.153749 0.0457102 0.5
10 1 0.495807 0.0324551 0.5
43 3 0.805261 0.0260327 0.5
62 4 0.0119953 0.0860257 0.5
71 4 0.0920498 0.0816052 0.5
52 3 0.164041 0.0553186 0.5
67 4 0.387699 0.0662381 0.5
75 4 0.925577 0.0637868 0.5
26 2 0.960906 0.0568955 0.5
14 1 0.425068 0.112305 0.5
17 1 0.607789 0.115927 0.5
13 1 0.744409 0.119907 0.5
63 4 0.807707 0.134162 0.5
50 3 0.99474 0.109265 0.5
54 3 0.0301359 0.193035 0.5
2 1 0.68418 0.169289 0.5
44 3 0.789327 0.174082 0.5
53 3 0.980762 0.199142 0.5
65 4 0.990981 0.19127 0.5
19 1 0.360475 0.231286 0.5
5 1 0.400962 0.216014 0.5
23 2 0.389561 0.226987 0.5
80 4 0.510279 0.256368 0.5
68 4 0.60839 0.214768 0.5
37 2 0.778912 0.227971 0.5
36 2 0.932484 0.251152 0.5
79 4 0.991863 0.241899 0.5
29 2 0.0640372 0.27251 0.5
3 1 0.23611 0.302234 0.5
21 2 0.338716 0.293872 0.5
74 4 0.578571 0.310795 0.5
47 3 0.582767 0.290258 0.5
8 1 0.813578 0.293802 0.5
15 1 0.342517 0.322848 0.5
6 1 0.500527 0.359415 0.5
78 4 0.676142 0.350884 0.5
66 4 0.691826 0.34765 0.5
64 4 0.833868 0.330476 0.5
41 3 0.306027 0.404077 0.5
30 2 0.645958 0.370827 0.5
56 3 0.729899 0.418524 0.5
1 1 0.213456 0.448824 0.5
57 3 0.855503 0.438057 0.5
42 3 0.0452515 0.518709 0.5
25 2 0.0549471 0.517941 0.5
18 1 0.166919 0.511983 0.5
60 3 0.425568 0.516972 0.5
48 3 0.514933 0.474072 0.5
40 2 0.36 0.546922 0.5
22 2 0.841527 0.536142 0.5
16 1 0.0975536 0.583671 0.5
45 3 0.361374 0.592006 0.5
58 3 0.937978 0.587711 0.5
76 4 0.454015 0.631929 0.5
38 2 0.728901 0.642717 0.5
35 2 0.937209 0.638819 0.5
9 1 0.97469 0.652128 0.5
11 1 0.830394 0.735066 0.5
31 2 0.385963 0.768932 0.5
59 3 0.643707 0.77811 0.5
70 4 0.755386 0.769261 0.5
69 4 0.805989 0.754839 0.5
32 2 0.930756 0.748944 0.5
77 4 0.954738 0.755722 0.5
39 2 0.358522 0.797648 0.5
20 1 0.502482 0.821684 0.5
12 1 0.812137 0.791437 0.5
72 4 0.224065 0.867386 0.5
7 1 0.324506 0.8854 0.5
55 3 0.401134 0.86373 0.5
61 4 0.542301 0.846211 0.5
33 2 0.696904 0.859725 0.5
4 1 0.114907 0.906934 0.5
34 2 0.170832 0.932514 0.5
73 4 0.797223 0.926354 0.5
49 3 0.959833 0.914614 0.5
27 2 0.222133 0.959442 0.5
28 2 0.296297 0.94956 0.5
46 3 0.451357 0.956649 0.5
51 3 0.516508 0.950539 0.5
ITEM: TIMESTEP
20
ITEM: NUMBER OF ATOMS
80
ITEM: BOX BOUNDS pp pp pp
-8.3126380037287806e+00 8.3126380037287806e+00
-8.3126380037287806e+00 8.3126380037287806e+00
-1.0000000000000001e-01 1.0000000000000001e-01
ITEM: ATOMS id type xs ys zs
24 2 0.15333 0.0453196 0.5
10 1 0.495807 0.0324551 0.5
43 3 0.805261 0.0260327 0.5
62 4 0.0121121 0.0858686 0.5
71 4 0.0920498 0.0816052 0.5
52 3 0.16446 0.0557092 0.5
67 4 0.387684 0.0662194 0.5
75 4 0.925375 0.0638263 0.5
26 2 0.961104 0.0568488 0.5
14 1 0.425083 0.112324 0.5
17 1 0.607789 0.115927 0.5
13 1 0.744463 0.119848 0.5
63 4 0.807717 0.134147 0.5
50 3 0.994628 0.109429 0.5
54 3 0.0302434 0.193033 0.5
2 1 0.684117 0.169341 0.5
44 3 0.789339 0.174034 0.5
53 3 0.980409 0.199371 0.5
65 4 0.991223 0.191027 0.5
19 1 0.359469 0.231431 0.5
5 1 0.401974 0.215318 0.5
23 2 0.389596 0.227419 0.5
80 4 0.510279 0.256368 0.5
68 4 0.60839 0.214768 0.5
37 2 0.778883 0.228012 0.5
36 2 0.932484 0.251152 0.5
79 4 0.991867 0.241914 0.5
29 2 0.0640372 0.27251 0.5
3 1 0.23611 0.302234 0.5
21 2 0.338599 0.293415 0.5
74 4 0.578512 0.311083 0.5
47 3 0.582826 0.289971 0.5
8 1 0.813482 0.29363 0.5
15 1 0.342592 0.323424 0.5
6 1 0.500527 0.359415 0.5
78 4 0.676061 0.350824 0.5
66 4 0.692098 0.347588 0.5
64 4 0.83398 0.330678 0.5
41 3 0.306027 0.404077 0.5
30 2 0.645768 0.37095 0.5
56 3 0.729899 0.418524 0.5
1 1 0.2135 0.448764 0.5
57 3 0.855503 0.438057 0.5
42 3 0.0446276 0.518758 0.5
25 2 0.0555645 0.517882 0.5
18 1 0.166875 0.512043 0.5
60 3 0.425568 0.516972 0.5
48 3 0.514933 0.474072 0.5
40 2 0.359994 0.54673 0.5
22 2 0.841527 0.536142 0.5
16 1 0.0975601 0.583681 0.5
45 3 0.36138 0.592197 0.5
58 3 0.937979 0.587591 0.5
76 4 0.454015 0.631929 0.5
38 2 0.728901 0.642717 0.5
35 2 0.936782 0.638786 0.5
9 1 0.975116 0.652281 0.5
11 1 0.83077 0.734544 0.5
31 2 0.386208 0.768675 0.5
59 3 0.643707 0.77811 0.5
70 4 0.755372 0.769255 0.5
69 4 0.805661 0.75478 0.5
32 2 0.930427 0.748851 0.5
77 4 0.955067 0.755815 0.5
39 2 0.358277 0.797905 0.5
20 1 0.502336 0.821594 0.5
12 1 0.812103 0.792024 0.5
72 4 0.224065 0.867386 0.5
7 1 0.324538 0.885327 0.5
55 3 0.401134 0.86373 0.5
61 4 0.542447 0.846301 0.5
33 2 0.696904 0.859725 0.5
4 1 0.114738 0.906857 0.5
34 2 0.170884 0.93253 0.5
73 4 0.797223 0.926354 0.5
49 3 0.959833 0.914614 0.5
27 2 0.222249 0.959504 0.5
28 2 0.296266 0.949633 0.5
46 3 0.451357 0.956649 0.5
51 3 0.516508 0.950539 0.5
ITEM: TIMESTEP
30
ITEM: NUMBER OF ATOMS
80
ITEM: BOX BOUNDS pp pp pp
-7.6159147272493462e+00 7.6159147272493462e+00
-7.6159147272493462e+00 7.6159147272493462e+00
-1.0000000000000001e-01 1.0000000000000001e-01
ITEM: ATOMS id type xs ys zs
24 2 0.152529 0.0445709 0.5
10 1 0.495807 0.0324552 0.5
43 3 0.805261 0.0260327 0.5
62 4 0.0123623 0.0855542 0.5
71 4 0.0920498 0.0816052 0.5
52 3 0.165262 0.0564578 0.5
67 4 0.38762 0.0661402 0.5
75 4 0.924955 0.0639082 0.5
26 2 0.961479 0.056709 0.5
14 1 0.425147 0.112403 0.5
17 1 0.607768 0.115912 0.5
13 1 0.744566 0.119637 0.5
63 4 0.807782 0.134087 0.5
50 3 0.994422 0.109802 0.5
54 3 0.0305363 0.193027 0.5
2 1 0.683958 0.169505 0.5
44 3 0.78939 0.173966 0.5
53 3 0.979676 0.199775 0.5
65 4 0.991647 0.190557 0.5
19 1 0.357531 0.231618 0.5
5 1 0.403927 0.213976 0.5
23 2 0.389686 0.228252 0.5
80 4 0.510279 0.256368 0.5
68 4 0.60839 0.214768 0.5
37 2 0.778782 0.22808 0.5
36 2 0.932474 0.251156 0.5
79 4 0.991892 0.241982 0.5
29 2 0.0640372 0.27251 0.5
3 1 0.23611 0.302234 0.5
21 2 0.338349 0.292594 0.5
74 4 0.578396 0.311648 0.5
47 3 0.582941 0.289405 0.5
8 1 0.813314 0.293331 0.5
15 1 0.342736 0.324567 0.5
6 1 0.500527 0.359415 0.5
78 4 0.675921 0.35069 0.5
66 4 0.69267 0.347448 0.5
64 4 0.834212 0.331099 0.5
41 3 0.306027 0.404077 0.5
30 2 0.645336 0.371224 0.5
56 3 0.729899 0.418524 0.5
1 1 0.213631 0.448586 0.5
57 3 0.855503 0.438057 0.5
42 3 0.0434377 0.518853 0.5
25 2 0.0567101 0.517717 0.5
18 1 0.166746 0.51222 0.5
60 3 0.425569 0.516972 0.5
48 3 0.514933 0.474072 0.5
40 2 0.359981 0.546322 0.5
22 2 0.841527 0.536142 0.5
16 1 0.0976026 0.583752 0.5
45 3 0.361393 0.592606 0.5
58 3 0.93797 0.58729 0.5
76 4 0.454015 0.631929 0.5
38 2 0.728901 0.642717 0.5
35 2 0.935932 0.638764 0.5
9 1 0.975974 0.652604 0.5
11 1 0.831522 0.733485 0.5
31 2 0.386701 0.76816 0.5
59 3 0.643707 0.77811 0.5
70 4 0.755301 0.769227 0.5
69 4 0.805009 0.75465 0.5
32 2 0.929779 0.748668 0.5
77 4 0.955715 0.755998 0.5
39 2 0.357785 0.79842 0.5
20 1 0.502019 0.821399 0.5
12 1 0.812074 0.793242 0.5
72 4 0.224065 0.867386 0.5
7 1 0.324623 0.885124 0.5
55 3 0.401139 0.863729 0.5
61 4 0.542764 0.846497 0.5
33 2 0.696904 0.859725 0.5
4 1 0.114361 0.906685 0.5
34 2 0.170986 0.932559 0.5
73 4 0.797223 0.926354 0.5
49 3 0.959833 0.914614 0.5
27 2 0.222495 0.959652 0.5
28 2 0.296204 0.949834 0.5
46 3 0.451357 0.956649 0.5
51 3 0.516508 0.950539 0.5
ITEM: TIMESTEP
40
ITEM: NUMBER OF ATOMS
80
ITEM: BOX BOUNDS pp pp pp
-7.1246358300783399e+00 7.1246358300783399e+00
-7.1246358300783399e+00 7.1246358300783399e+00
-1.0000000000000001e-01 1.0000000000000001e-01
ITEM: ATOMS id type xs ys zs
24 2 0.151278 0.0434038 0.5
10 1 0.495808 0.0324638 0.5
43 3 0.805261 0.0260327 0.5
62 4 0.0128119 0.0850607 0.5
71 4 0.0920498 0.0816052 0.5
52 3 0.166512 0.057625 0.5
67 4 0.387472 0.0659574 0.5
75 4 0.92426 0.0640445 0.5
26 2 0.962028 0.056399 0.5
14 1 0.425296 0.112572 0.5
17 1 0.607673 0.115845 0.5
13 1 0.744691 0.119167 0.5
63 4 0.807969 0.133956 0.5
50 3 0.994119 0.110469 0.5
54 3 0.0311056 0.193013 0.5
2 1 0.683691 0.169869 0.5
44 3 0.78951 0.173903 0.5
53 3 0.978482 0.20033 0.5
65 4 0.992258 0.189817 0.5
19 1 0.354505 0.231733 0.5
5 1 0.406979 0.211887 0.5
23 2 0.389877 0.22955 0.5
80 4 0.510279 0.256368 0.5
68 4 0.60839 0.214768 0.5
37 2 0.778563 0.228167 0.5
36 2 0.932396 0.251198 0.5
79 4 0.991985 0.242138 0.5
29 2 0.0640372 0.27251 0.5
3 1 0.236109 0.302234 0.5
21 2 0.33791 0.291413 0.5
74 4 0.578213 0.312548 0.5
47 3 0.583125 0.288506 0.5
8 1 0.813075 0.292912 0.5
15 1 0.342957 0.326437 0.5
6 1 0.500527 0.359415 0.5
78 4 0.675725 0.350456 0.5
66 4 0.69363 0.347202 0.5
64 4 0.834599 0.331798 0.5
41 3 0.306026 0.40408 0.5
30 2 0.644572 0.371704 0.5
56 3 0.729899 0.418524 0.5
1 1 0.213898 0.448225 0.5
57 3 0.855503 0.438057 0.5
42 3 0.0415841 0.518996 0.5
25 2 0.0584388 0.517377 0.5
18 1 0.166509 0.51255 0.5
60 3 0.425594 0.51696 0.5
48 3 0.514933 0.474072 0.5
40 2 0.359934 0.54564 0.5
22 2 0.841527 0.536142 0.5
16 1 0.0976977 0.58398 0.5
45 3 0.361414 0.593299 0.5
58 3 0.937932 0.586701 0.5
76 4 0.454015 0.631929 0.5
38 2 0.728901 0.642717 0.5
35 2 0.934565 0.638788 0.5
9 1 0.97738 0.65317 0.5
11 1 0.832734 0.731761 0.5
31 2 0.387497 0.767327 0.5
59 3 0.643707 0.77811 0.5
70 4 0.755125 0.769154 0.5
69 4 0.80396 0.754427 0.5
32 2 0.92875 0.748377 0.5
77 4 0.956746 0.75629 0.5
39 2 0.356995 0.799233 0.5
20 1 0.501475 0.821064 0.5
12 1 0.812086 0.795261 0.5
72 4 0.224065 0.867386 0.5
7 1 0.324747 0.884753 0.5
55 3 0.401185 0.863717 0.5
61 4 0.543308 0.846831 0.5
33 2 0.696904 0.859725 0.5
4 1 0.113701 0.906383 0.5
34 2 0.17115 0.932599 0.5
73 4 0.797223 0.926354 0.5
49 3 0.959833 0.914614 0.5
27 2 0.222881 0.959928 0.5
28 2 0.296139 0.950222 0.5
46 3 0.45135 0.956649 0.5
51 3 0.516517 0.950528 0.5
ITEM: TIMESTEP
50
ITEM: NUMBER OF ATOMS
80
ITEM: BOX BOUNDS pp pp pp
-6.7897023864218005e+00 6.7897023864218005e+00
-6.7897023864218005e+00 6.7897023864218005e+00
-1.0000000000000001e-01 1.0000000000000001e-01
ITEM: ATOMS id type xs ys zs
24 2 0.149565 0.0417987 0.5
10 1 0.495835 0.0325104 0.5
43 3 0.805261 0.0260327 0.5
62 4 0.0135097 0.0843863 0.5
71 4 0.0920466 0.0816074 0.5
52 3 0.168229 0.0592279 0.5
67 4 0.387212 0.0656372 0.5
75 4 0.923257 0.0642425 0.5
26 2 0.962727 0.0558546 0.5
14 1 0.425545 0.112827 0.5
17 1 0.607455 0.115691 0.5
13 1 0.744811 0.118349 0.5
63 4 0.808337 0.133732 0.5
50 3 0.993725 0.11149 0.5
54 3 0.0320129 0.192994 0.5
2 1 0.683321 0.170507 0.5
44 3 0.789727 0.173869 0.5
53 3 0.976802 0.200983 0.5
65 4 0.993036 0.18879 0.5
19 1 0.350348 0.231638 0.5
5 1 0.411151 0.209082 0.5
23 2 0.390229 0.23132 0.5
80 4 0.510279 0.256368 0.5
68 4 0.60839 0.214768 0.5
37 2 0.778184 0.228264 0.5
36 2 0.93218 0.251319 0.5
79 4 0.992194 0.242411 0.5
29 2 0.0640372 0.27251 0.5
3 1 0.236085 0.30223 0.5
21 2 0.337231 0.289948 0.5
74 4 0.577956 0.313804 0.5
47 3 0.583382 0.28725 0.5
8 1 0.812777 0.292393 0.5
15 1 0.343294 0.329097 0.5
6 1 0.500527 0.359415 0.5
78 4 0.675479 0.350102 0.5
66 4 0.695024 0.346837 0.5
64 4 0.83516 0.332811 0.5
41 3 0.306008 0.404117 0.5
30 2 0.643424 0.372423 0.5
56 3 0.729899 0.418524 0.5
1 1 0.214334 0.447632 0.5
57 3 0.855503 0.438057 0.5
42 3 0.0390239 0.519172 0.5
25 2 0.0607455 0.516801 0.5
18 1 0.16617 0.513041 0.5
60 3 0.425682 0.516922 0.5
48 3 0.514933 0.474072 0.5
40 2 0.359815 0.544665 0.5
22 2 0.841527 0.536142 0.5
16 1 0.097853 0.584482 0.5
45 3 0.361445 0.594313 0.5
58 3 0.937851 0.58575 0.5
76 4 0.454015 0.631929 0.5
38 2 0.728901 0.642717 0.5
35 2 0.932632 0.638889 0.5
9 1 0.979394 0.654019 0.5
11 1 0.834413 0.729315 0.5
31 2 0.388624 0.766147 0.5
59 3 0.643707 0.77811 0.5
70 4 0.75481 0.769018 0.5
69 4 0.80248 0.754098 0.5
32 2 0.927341 0.747975 0.5
77 4 0.958187 0.756697 0.5
39 2 0.355892 0.800306 0.5
20 1 0.500673 0.820569 0.5
12 1 0.81217 0.798166 0.5
72 4 0.224065 0.867386 0.5
7 1 0.324865 0.884229 0.5
55 3 0.401329 0.863695 0.5
61 4 0.54411 0.847326 0.5
33 2 0.696904 0.859725 0.5
4 1 0.112707 0.905929 0.5
34 2 0.171377 0.93265 0.5
73 4 0.797223 0.926354 0.5
49 3 0.959833 0.914614 0.5
27 2 0.223398 0.960364 0.5
28 2 0.296102 0.950841 0.5
46 3 0.451297 0.956631 0.5
51 3 0.516572 0.950466 0.5
ITEM: TIMESTEP
60
ITEM: NUMBER OF ATOMS
80
ITEM: BOX BOUNDS pp pp pp
-6.5541671333348708e+00 6.5541671333348708e+00
-6.5541671333348708e+00 6.5541671333348708e+00
-1.0000000000000001e-01 1.0000000000000001e-01
ITEM: ATOMS id type xs ys zs
24 2 0.147414 0.0397513 0.5
10 1 0.495924 0.0326251 0.5
43 3 0.805261 0.0260327 0.5
62 4 0.0144854 0.0835396 0.5
71 4 0.092022 0.0816246 0.5
52 3 0.170404 0.0612582 0.5
67 4 0.386822 0.0651572 0.5
75 4 0.921934 0.0645071 0.5
26 2 0.963552 0.0550296 0.5
14 1 0.425892 0.11315 0.5
17 1 0.607079 0.115423 0.5
13 1 0.744901 0.117122 0.5
63 4 0.808924 0.133403 0.5
50 3 0.993247 0.112897 0.5
54 3 0.0332895 0.192971 0.5
2 1 0.682857 0.171473 0.5
44 3 0.790059 0.173882 0.5
53 3 0.974646 0.201678 0.5
65 4 0.993959 0.187475 0.5
19 1 0.345082 0.231201 0.5
5 1 0.416391 0.205651 0.5
23 2 0.390795 0.233549 0.5
80 4 0.510279 0.256368 0.5
68 4 0.60839 0.214769 0.5
37 2 0.777615 0.22836 0.5
36 2 0.931773 0.251556 0.5
79 4 0.992558 0.242816 0.5
29 2 0.0640377 0.272511 0.5
3 1 0.235975 0.302217 0.5
21 2 0.3363 0.288293 0.5
74 4 0.577626 0.315417 0.5
47 3 0.583711 0.285636 0.5
8 1 0.812434 0.291803 0.5
15 1 0.343811 0.332541 0.5
6 1 0.500527 0.359415 0.5
78 4 0.67519 0.349613 0.5
66 4 0.696864 0.346353 0.5
64 4 0.835901 0.334151 0.5
41 3 0.305951 0.404233 0.5
30 2 0.641872 0.373395 0.5
56 3 0.729899 0.418524 0.5
1 1 0.214963 0.446778 0.5
57 3 0.855503 0.438057 0.5
42 3 0.0357588 0.519371 0.5
25 2 0.063584 0.515942 0.5
18 1 0.165755 0.513687 0.5
60 3 0.425864 0.516844 0.5
48 3 0.514933 0.474072 0.5
40 2 0.359592 0.543392 0.5
22 2 0.841527 0.536142 0.5
16 1 0.0980663 0.585351 0.5
45 3 0.361487 0.595664 0.5
58 3 0.937728 0.5844 0.5
76 4 0.454015 0.631929 0.5
38 2 0.728901 0.642717 0.5
35 2 0.930118 0.639094 0.5
9 1 0.982033 0.655162 0.5
11 1 0.836503 0.726138 0.5
31 2 0.390089 0.764616 0.5
59 3 0.643707 0.77811 0.5
70 4 0.754327 0.768808 0.5
69 4 0.800572 0.753654 0.5
32 2 0.925607 0.747477 0.5
77 4 0.960038 0.75722 0.5
39 2 0.354468 0.801569 0.5
20 1 0.499596 0.819906 0.5
12 1 0.812351 0.801973 0.5
72 4 0.224065 0.867386 0.5
7 1 0.324934 0.883582 0.5
55 3 0.401627 0.86368 0.5
61 4 0.545187 0.847989 0.5
33 2 0.696904 0.859725 0.5
4 1 0.111353 0.90531 0.5
34 2 0.171668 0.932707 0.5
73 4 0.797223 0.926354 0.5
49 3 0.959833 0.914614 0.5
27 2 0.224033 0.960981 0.5
28 2 0.296123 0.951716 0.5
46 3 0.451155 0.95657 0.5
51 3 0.516708 0.950317 0.5
ITEM: TIMESTEP
70
ITEM: NUMBER OF ATOMS
80
ITEM: BOX BOUNDS pp pp pp
-6.3984075904765092e+00 6.3984075904765092e+00
-6.3984075904765092e+00 6.3984075904765092e+00
-1.0000000000000001e-01 1.0000000000000001e-01
ITEM: ATOMS id type xs ys zs
24 2 0.144881 0.0372781 0.5
10 1 0.496104 0.0328285 0.5
43 3 0.805261 0.0260327 0.5
62 4 0.015749 0.0825391 0.5
71 4 0.091958 0.0816716 0.5
52 3 0.173002 0.0636842 0.5
67 4 0.386294 0.0645068 0.5
75 4 0.9203 0.0648406 0.5
26 2 0.964475 0.0538981 0.5
14 1 0.426325 0.113512 0.5
17 1 0.606523 0.115022 0.5
13 1 0.744942 0.115452 0.5
63 4 0.809755 0.132962 0.5
50 3 0.992694 0.114695 0.5
54 3 0.0349337 0.192936 0.5
2 1 0.682318 0.17279 0.5
44 3 0.790519 0.173953 0.5
53 3 0.972051 0.202357 0.5
65 4 0.994995 0.185883 0.5
19 1 0.338787 0.230312 0.5
5 1 0.422587 0.201723 0.5
23 2 0.391617 0.2362 0.5
80 4 0.510279 0.256368 0.5
68 4 0.60838 0.214775 0.5
37 2 0.776835 0.228446 0.5
36 2 0.931137 0.251941 0.5
79 4 0.993101 0.243362 0.5
29 2 0.0640449 0.272529 0.5
3 1 0.235727 0.302194 0.5
21 2 0.335134 0.286546 0.5
74 4 0.577229 0.317367 0.5
47 3 0.58411 0.283686 0.5
8 1 0.812066 0.291169 0.5
15 1 0.344559 0.336711 0.5
6 1 0.500526 0.359415 0.5
78 4 0.674867 0.348982 0.5
66 4 0.699131 0.34576 0.5
64 4 0.836823 0.335816 0.5
41 3 0.305832 0.404467 0.5
30 2 0.639928 0.374619 0.5
56 3 0.729899 0.418524 0.5
1 1 0.215792 0.445651 0.5
57 3 0.855503 0.438057 0.5
42 3 0.031835 0.519591 0.5
25 2 0.0668526 0.514771 0.5
18 1 0.165323 0.514472 0.5
60 3 0.426163 0.516718 0.5
48 3 0.514933 0.474072 0.5
40 2 0.359239 0.541834 0.5
22 2 0.841527 0.536142 0.5
16 1 0.0983231 0.586643 0.5
45 3 0.36154 0.597348 0.5
58 3 0.93757 0.582647 0.5
76 4 0.454015 0.631929 0.5
38 2 0.728901 0.642717 0.5
35 2 0.927039 0.639421 0.5
9 1 0.985279 0.656572 0.5
11 1 0.838921 0.722268 0.5
31 2 0.391877 0.762748 0.5
59 3 0.643707 0.77811 0.5
70 4 0.753656 0.768524 0.5
69 4 0.798278 0.753095 0.5
32 2 0.923613 0.746916 0.5
77 4 0.962278 0.757854 0.5
39 2 0.352738 0.802942 0.5
20 1 0.498248 0.819076 0.5
12 1 0.812643 0.80663 0.5
72 4 0.224065 0.867386 0.5
7 1 0.324916 0.882847 0.5
55 3 0.40212 0.863682 0.5
61 4 0.546535 0.848819 0.5
33 2 0.696904 0.859725 0.5
4 1 0.109631 0.904525 0.5
34 2 0.172015 0.932764 0.5
73 4 0.797223 0.926354 0.5
49 3 0.959833 0.914614 0.5
27 2 0.224768 0.961794 0.5
28 2 0.29623 0.952859 0.5
46 3 0.450893 0.956446 0.5
51 3 0.516949 0.950056 0.5
ITEM: TIMESTEP
80
ITEM: NUMBER OF ATOMS
80
ITEM: BOX BOUNDS pp pp pp
-6.3122041099441120e+00 6.3122041099441120e+00
-6.3122041099441120e+00 6.3122041099441120e+00
-1.0000000000000001e-01 1.0000000000000001e-01
ITEM: ATOMS id type xs ys zs
24 2 0.142036 0.0344244 0.5
10 1 0.496391 0.033129 0.5
43 3 0.805261 0.0260327 0.5
62 4 0.0172881 0.0814139 0.5
71 4 0.0918435 0.0817609 0.5
52 3 0.17596 0.0664487 0.5
67 4 0.385628 0.0636879 0.5
75 4 0.918382 0.0652416 0.5
26 2 0.965471 0.0524585 0.5
14 1 0.426819 0.113873 0.5
17 1 0.605781 0.11448 0.5
13 1 0.74492 0.113337 0.5
63 4 0.810833 0.132412 0.5
50 3 0.992077 0.116859 0.5
54 3 0.0369103 0.192878 0.5
2 1 0.681725 0.174443 0.5
44 3 0.791108 0.174082 0.5
53 3 0.969089 0.20297 0.5
65 4 0.99611 0.184043 0.5
19 1 0.331615 0.228899 0.5
5 1 0.429564 0.197471 0.5
23 2 0.392716 0.239212 0.5
80 4 0.510279 0.256368 0.5
68 4 0.60834 0.214797 0.5
37 2 0.775848 0.228524 0.5
36 2 0.930256 0.252492 0.5
79 4 0.993824 0.24404 0.5
29 2 0.0640734 0.272584 0.5
3 1 0.235307 0.302164 0.5
21 2 0.33377 0.284807 0.5
74 4 0.576786 0.319603 0.5
47 3 0.584568 0.281442 0.5
8 1 0.811694 0.290526 0.5
15 1 0.345569 0.34149 0.5
6 1 0.50051 0.359424 0.5
78 4 0.674518 0.348212 0.5
66 4 0.701771 0.345079 0.5
64 4 0.837912 0.337782 0.5
41 3 0.305643 0.404846 0.5
30 2 0.637637 0.376071 0.5
56 3 0.729899 0.418524 0.5
1 1 0.216801 0.444265 0.5
57 3 0.855503 0.438057 0.5
42 3 0.0273487 0.519837 0.5
25 2 0.0704239 0.513281 0.5
18 1 0.164939 0.515375 0.5
60 3 0.426593 0.516543 0.5
48 3 0.514933 0.474072 0.5
40 2 0.358743 0.540021 0.5
22 2 0.841527 0.536142 0.5
16 1 0.0985958 0.588378 0.5
45 3 0.361606 0.599335 0.5
58 3 0.937396 0.580528 0.5
76 4 0.454015 0.631929 0.5
38 2 0.728901 0.642717 0.5
35 2 0.923449 0.639877 0.5
9 1 0.989068 0.658197 0.5
11 1 0.841556 0.717793 0.5
31 2 0.393955 0.760581 0.5
59 3 0.643707 0.77811 0.5
70 4 0.752796 0.768171 0.5
69 4 0.795667 0.75243 0.5
32 2 0.92144 0.746332 0.5
77 4 0.964859 0.758583 0.5
39 2 0.350734 0.804344 0.5
20 1 0.496652 0.818093 0.5
12 1 0.813047 0.812016 0.5
72 4 0.224065 0.867386 0.5
7 1 0.324783 0.882067 0.5
55 3 0.402831 0.86371 0.5
61 4 0.548131 0.849802 0.5
33 2 0.696904 0.859725 0.5
4 1 0.107559 0.90358 0.5
34 2 0.172407 0.932813 0.5
73 4 0.797223 0.926354 0.5
49 3 0.959833 0.914614 0.5
27 2 0.22558 0.962802 0.5
28 2 0.296445 0.954263 0.5
46 3 0.450494 0.95625 0.5
51 3 0.517309 0.949667 0.5
ITEM: TIMESTEP
90
ITEM: NUMBER OF ATOMS
80
ITEM: BOX BOUNDS pp pp pp
-6.2847518291550220e+00 6.2847518291550220e+00
-6.2847518291550220e+00 6.2847518291550220e+00
-1.0000000000000001e-01 1.0000000000000001e-01
ITEM: ATOMS id type xs ys zs
24 2 0.138968 0.0312606 0.5
10 1 0.496793 0.033522 0.5
43 3 0.805261 0.0260327 0.5
62 4 0.0190697 0.0802012 0.5
71 4 0.0916762 0.0818999 0.5
52 3 0.179196 0.0694735 0.5
67 4 0.384836 0.0627148 0.5
75 4 0.916227 0.0657048 0.5
26 2 0.966511 0.0507352 0.5
14 1 0.427335 0.114188 0.5
17 1 0.604864 0.113801 0.5
13 1 0.744831 0.110809 0.5
63 4 0.812142 0.131764 0.5
50 3 0.99141 0.119326 0.5
54 3 0.0391538 0.192799 0.5
2 1 0.681097 0.176394 0.5
44 3 0.791821 0.174263 0.5
53 3 0.965859 0.203473 0.5
65 4 0.997267 0.182002 0.5
19 1 0.323802 0.226932 0.5
5 1 0.437105 0.193081 0.5
23 2 0.394085 0.242513 0.5
80 4 0.510279 0.256368 0.5
68 4 0.608255 0.214844 0.5
37 2 0.774666 0.228597 0.5
36 2 0.929137 0.25322 0.5
79 4 0.994708 0.244825 0.5
29 2 0.064139 0.272693 0.5
3 1 0.234686 0.302153 0.5
21 2 0.332264 0.283159 0.5
74 4 0.576327 0.322055 0.5
47 3 0.585074 0.278965 0.5
8 1 0.811341 0.289906 0.5
15 1 0.346848 0.346702 0.5
6 1 0.500464 0.359449 0.5
78 4 0.674153 0.347313 0.5
66 4 0.7047 0.344339 0.5
64 4 0.839144 0.340007 0.5
41 3 0.305384 0.405379 0.5
30 2 0.635074 0.377709 0.5
56 3 0.729899 0.418524 0.5
1 1 0.217948 0.442654 0.5
57 3 0.855503 0.438057 0.5
42 3 0.0224372 0.520117 0.5
25 2 0.0741605 0.511489 0.5
18 1 0.164661 0.516371 0.5
60 3 0.427157 0.516322 0.5
48 3 0.514933 0.474072 0.5
40 2 0.358102 0.538001 0.5
22 2 0.841527 0.536142 0.5
16 1 0.098847 0.59053 0.5
45 3 0.361683 0.601577 0.5
58 3 0.937229 0.578113 0.5
76 4 0.454015 0.631929 0.5
38 2 0.728901 0.642717 0.5
35 2 0.91945 0.640444 0.5
9 1 0.993288 0.659974 0.5
11 1 0.844272 0.712853 0.5
31 2 0.396272 0.758171 0.5
59 3 0.643707 0.77811 0.5
70 4 0.751765 0.767769 0.5
69 4 0.792832 0.751677 0.5
32 2 0.91918 0.745764 0.5
77 4 0.967713 0.75939 0.5
39 2 0.348511 0.805698 0.5
20 1 0.494848 0.816981 0.5
12 1 0.81355 0.817944 0.5
72 4 0.224065 0.867386 0.5
7 1 0.324516 0.881285 0.5
55 3 0.403762 0.863765 0.5
61 4 0.549936 0.850914 0.5
33 2 0.696904 0.859725 0.5
4 1 0.105173 0.902494 0.5
34 2 0.17283 0.932845 0.5
73 4 0.797223 0.926354 0.5
49 3 0.959833 0.914614 0.5
27 2 0.226443 0.963997 0.5
28 2 0.296788 0.955907 0.5
46 3 0.449958 0.955978 0.5
51 3 0.517785 0.949151 0.5
ITEM: TIMESTEP
100
ITEM: NUMBER OF ATOMS
80
ITEM: BOX BOUNDS pp pp pp
-6.3000583992469288e+00 6.3000583992469288e+00
-6.3000583992469288e+00 6.3000583992469288e+00
-1.0000000000000001e-01 1.0000000000000001e-01
ITEM: ATOMS id type xs ys zs
24 2 0.135764 0.0278715 0.5
10 1 0.497307 0.0339918 0.5
43 3 0.805262 0.0260322 0.5
62 4 0.0210471 0.0789412 0.5
71 4 0.0914608 0.0820901 0.5
52 3 0.182615 0.0726728 0.5
67 4 0.383935 0.0616095 0.5
75 4 0.913891 0.0662215 0.5
26 2 0.967572 0.048773 0.5
14 1 0.427825 0.114417 0.5
17 1 0.603794 0.112996 0.5
13 1 0.744676 0.107924 0.5
63 4 0.813651 0.13103 0.5
50 3 0.990705 0.121995 0.5
54 3 0.0415835 0.192705 0.5
2 1 0.680454 0.178592 0.5
44 3 0.792645 0.174479 0.5
53 3 0.962472 0.203837 0.5
65 4 0.998435 0.179834 0.5
19 1 0.315616 0.224438 0.5
5 1 0.444983 0.188733 0.5
23 2 0.395693 0.246023 0.5
80 4 0.510279 0.256368 0.5
68 4 0.608116 0.214919 0.5
37 2 0.773306 0.228665 0.5
36 2 0.927804 0.254124 0.5
79 4 0.995721 0.245684 0.5
29 2 0.0642505 0.272865 0.5
3 1 0.23386 0.302194 0.5
21 2 0.330676 0.281658 0.5
74 4 0.575877 0.324649 0.5
47 3 0.585613 0.276327 0.5
8 1 0.811027 0.289338 0.5
15 1 0.348375 0.352139 0.5
6 1 0.500375 0.359494 0.5
78 4 0.673778 0.346303 0.5
66 4 0.70782 0.343574 0.5
64 4 0.840492 0.342441 0.5
41 3 0.305051 0.406066 0.5
30 2 0.632329 0.379484 0.5
56 3 0.729899 0.418524 0.5
1 1 0.219191 0.440862 0.5
57 3 0.855503 0.438057 0.5
42 3 0.0172513 0.520438 0.5
25 2 0.0779313 0.509428 0.5
18 1 0.164534 0.517435 0.5
60 3 0.427846 0.516061 0.5
48 3 0.514933 0.474072 0.5
40 2 0.357324 0.535827 0.5
22 2 0.841527 0.536142 0.5
16 1 0.0990471 0.59304 0.5
45 3 0.361772 0.604012 0.5
58 3 0.937096 0.575496 0.5
76 4 0.454015 0.631929 0.5
38 2 0.728901 0.642717 0.5
35 2 0.915191 0.641067 0.5
9 1 0.997789 0.66184 0.5
11 1 0.846911 0.707636 0.5
31 2 0.398762 0.75558 0.5
59 3 0.643707 0.77811 0.5
70 4 0.750595 0.767344 0.5
69 4 0.789873 0.750861 0.5
32 2 0.916925 0.745243 0.5
77 4 0.970764 0.760252 0.5
39 2 0.34613 0.806937 0.5
20 1 0.492895 0.815771 0.5
12 1 0.814127 0.824193 0.5
72 4 0.224065 0.867386 0.5
7 1 0.324111 0.88054 0.5
55 3 0.40489 0.863847 0.5
61 4 0.5519 0.852124 0.5
33 2 0.696904 0.859725 0.5
4 1 0.102527 0.901291 0.5
34 2 0.173265 0.932849 0.5
73 4 0.797223 0.926354 0.5
49 3 0.959833 0.914614 0.5
27 2 0.22733 0.965362 0.5
28 2 0.297267 0.957756 0.5
46 3 0.449299 0.955639 0.5
51 3 0.518367 0.948516 0.5
ITEM: TIMESTEP
110
ITEM: NUMBER OF ATOMS
80
ITEM: BOX BOUNDS pp pp pp
-6.3389647535452509e+00 6.3389647535452509e+00
-6.3389647535452509e+00 6.3389647535452509e+00
-1.0000000000000001e-01 1.0000000000000001e-01
ITEM: ATOMS id type xs ys zs
24 2 0.132497 0.0243459 0.5
10 1 0.497924 0.0345161 0.5
43 3 0.805267 0.0260245 0.5
62 4 0.0231712 0.0776704 0.5
71 4 0.0912071 0.0823278 0.5
52 3 0.186133 0.0759675 0.5
67 4 0.382943 0.0603957 0.5
75 4 0.911427 0.0667818 0.5
26 2 0.968635 0.0466264 0.5
14 1 0.428239 0.114534 0.5
17 1 0.602599 0.112083 0.5
13 1 0.744457 0.104757 0.5
63 4 0.815323 0.130224 0.5
50 3 0.989969 0.124753 0.5
54 3 0.0441282 0.192603 0.5
2 1 0.679814 0.180981 0.5
44 3 0.793566 0.174712 0.5
53 3 0.959032 0.204047 0.5
65 4 0.999591 0.177612 0.5
19 1 0.307264 0.221475 0.5
5 1 0.453046 0.184556 0.5
23 2 0.397495 0.249667 0.5
80 4 0.510279 0.256368 0.5
68 4 0.60792 0.215012 0.5
37 2 0.771781 0.228726 0.5
36 2 0.926294 0.255198 0.5
79 4 0.996823 0.246587 0.5
29 2 0.0644114 0.273101 0.5
3 1 0.232852 0.302317 0.5
21 2 0.329062 0.28033 0.5
74 4 0.575453 0.327314 0.5
47 3 0.586166 0.273605 0.5
8 1 0.810773 0.288847 0.5
15 1 0.350117 0.357635 0.5
6 1 0.500237 0.359562 0.5
78 4 0.673402 0.345201 0.5
66 4 0.711056 0.342805 0.5
64 4 0.841928 0.345034 0.5
41 3 0.304643 0.406901 0.5
30 2 0.629472 0.381359 0.5
56 3 0.729899 0.418524 0.5
1 1 0.220486 0.438929 0.5
57 3 0.855503 0.438057 0.5
42 3 0.0119139 0.520793 0.5
25 2 0.0816273 0.507142 0.5
18 1 0.164588 0.518551 0.5
60 3 0.428648 0.515769 0.5
48 3 0.514933 0.474072 0.5
40 2 0.356425 0.53355 0.5
22 2 0.841527 0.536142 0.5
16 1 0.0991991 0.595838 0.5
45 3 0.361869 0.606581 0.5
58 3 0.93701 0.572757 0.5
76 4 0.454015 0.631929 0.5
38 2 0.728901 0.642717 0.5
35 2 0.910821 0.641683 0.5
9 1 0.00242402 0.663757 0.5
11 1 0.849334 0.702325 0.5
31 2 0.401356 0.752859 0.5
59 3 0.643707 0.77811 0.5
70 4 0.749324 0.766931 0.5
69 4 0.786885 0.750009 0.5
32 2 0.91475 0.7448 0.5
77 4 0.973941 0.761149 0.5
39 2 0.343655 0.808011 0.5
20 1 0.490869 0.814496 0.5
12 1 0.814748 0.830543 0.5
72 4 0.224065 0.867386 0.5
7 1 0.323572 0.879866 0.5
55 3 0.406175 0.863953 0.5
61 4 0.553973 0.853401 0.5
33 2 0.696904 0.859725 0.5
4 1 0.0996701 0.899995 0.5
34 2 0.173699 0.93281 0.5
73 4 0.797223 0.926354 0.5
49 3 0.959833 0.914614 0.5
27 2 0.228221 0.966879 0.5
28 2 0.29789 0.95978 0.5
46 3 0.448538 0.955245 0.5
51 3 0.519036 0.94778 0.5
ITEM: TIMESTEP
120
ITEM: NUMBER OF ATOMS
80
ITEM: BOX BOUNDS pp pp pp
-6.3818010101294478e+00 6.3818010101294478e+00
-6.3818010101294478e+00 6.3818010101294478e+00
-1.0000000000000001e-01 1.0000000000000001e-01
ITEM: ATOMS id type xs ys zs
24 2 0.129219 0.0207624 0.5
10 1 0.498635 0.0350707 0.5
43 3 0.805286 0.0260004 0.5
62 4 0.025399 0.0764189 0.5
71 4 0.0909265 0.0826046 0.5
52 3 0.189683 0.0792942 0.5
67 4 0.381877 0.059093 0.5
75 4 0.90888 0.0673755 0.5
26 2 0.969688 0.0443498 0.5
14 1 0.428527 0.114525 0.5
17 1 0.601304 0.11108 0.5
13 1 0.744179 0.101383 0.5
63 4 0.817123 0.129358 0.5
50 3 0.989207 0.127501 0.5
54 3 0.0467551 0.192495 0.5
2 1 0.679185 0.183511 0.5
44 3 0.794572 0.174938 0.5
53 3 0.955596 0.204099 0.5
65 4 0.000725338 0.175396 0.5
19 1 0.29885 0.218101 0.5
5 1 0.461245 0.180619 0.5
23 2 0.399445 0.253373 0.5
80 4 0.510279 0.256368 0.5
68 4 0.607668 0.215107 0.5
37 2 0.770101 0.228782 0.5
36 2 0.92464 0.256437 0.5
79 4 0.997968 0.247507 0.5
29 2 0.0646228 0.273401 0.5
3 1 0.231677 0.302545 0.5
21 2 0.327464 0.279178 0.5
74 4 0.575062 0.329989 0.5
47 3 0.586717 0.270867 0.5
8 1 0.810593 0.288448 0.5
15 1 0.352062 0.363104 0.5
6 1 0.500045 0.359653 0.5
78 4 0.673027 0.344027 0.5
66 4 0.714368 0.342038 0.5
64 4 0.843433 0.34775 0.5
41 3 0.304156 0.407872 0.5