LAMMPS data file.

     60 atoms
    121 bonds
      0 angles
      0 dihedrals
      0 impropers
      1 atom types
    121 bond types
      0 angle types
      0 dihedral types
      0 improper types
  -5.384234   5.384234 xlo xhi
  -5.384234   5.384234 ylo yhi
  -0.100000   0.100000 zlo zhi

Masses # ['atom_id', 'mass']

1 10000.0

Atoms # ['atomID', 'moleculeID', 'atomType', 'charge', 'x', 'y', 'z']

     50      1      1   0.000000  -1.624577  -5.138406   0.000000
      6      1      1   0.000000  -0.481037  -4.294502   0.000000
      4      1      1   0.000000   0.924801  -5.106493   0.000000
     71      1      1   0.000000   2.097621  -4.456214   0.000000
     60      1      1   0.000000   2.813972  -4.943832   0.000000
     63      1      1   0.000000   3.631402  -4.514342   0.000000
     36      1      1   0.000000   4.751308  -4.485032   0.000000
     13      1      1   0.000000  -4.774231  -3.942031   0.000000
     75      1      1   0.000000  -3.786342  -3.582408   0.000000
     67      1      1   0.000000  -2.975242  -3.995258   0.000000
     24      1      1   0.000000  -1.802302  -3.750151   0.000000
     69      1      1   0.000000  -0.721518  -3.117114   0.000000
     96      1      1   0.000000   0.455938  -4.178308   0.000000
     73      1      1   0.000000   0.301386  -3.371644   0.000000
      2      1      1   0.000000   1.449999  -3.433693   0.000000
     41      1      1   0.000000   2.791639  -3.803612   0.000000
     37      1      1   0.000000   3.808924  -3.301704   0.000000
     26      1      1   0.000000   4.842548  -3.192812   0.000000
     44      1      1   0.000000  -2.884626  -2.890655   0.000000
     29      1      1   0.000000  -0.107081  -2.284651   0.000000
     23      1      1   0.000000   2.697949  -2.420160   0.000000
      7      1      1   0.000000   4.215425  -1.977178   0.000000
     16      1      1   0.000000  -5.174667  -2.171441   0.000000
     15      1      1   0.000000  -3.789746  -1.706125   0.000000
     27      1      1   0.000000  -2.126030  -1.916384   0.000000
     77      1      1   0.000000  -2.935930  -0.987190   0.000000
     43      1      1   0.000000   0.456841  -1.158979   0.000000
     40      1      1   0.000000   3.198609  -1.176515   0.000000
     54      1      1   0.000000  -4.794260  -1.041127   0.000000
      3      1      1   0.000000  -3.215061   0.066313   0.000000
     62      1      1   0.000000  -2.109158  -0.865544   0.000000
      9      1      1   0.000000  -0.924066  -1.156182   0.000000
     86      1      1   0.000000   0.354138  -0.252790   0.000000
     19      1      1   0.000000   1.361590   0.153707   0.000000
     10      1      1   0.000000   4.845976  -0.743913   0.000000
     53      1      1   0.000000  -4.794868  -0.129175   0.000000
     65      1      1   0.000000  -3.559813   1.218615   0.000000
     20      1      1   0.000000  -1.771585   0.152649   0.000000
     47      1      1   0.000000  -0.427957   0.031042   0.000000
     99      1      1   0.000000  -0.934725   0.747401   0.000000
     66      1      1   0.000000   0.166748   0.551927   0.000000
      5      1      1   0.000000   3.626529   0.073166   0.000000
     12      1      1   0.000000   4.962491   0.719272   0.000000
     34      1      1   0.000000  -4.522346   0.748299   0.000000
     14      1      1   0.000000  -2.320755   1.352859   0.000000
     68      1      1   0.000000  -1.205324   2.025824   0.000000
     82      1      1   0.000000  -1.211305   1.215467   0.000000
     17      1      1   0.000000  -0.033999   1.593267   0.000000
     84      1      1   0.000000   0.729766   1.133944   0.000000
     38      1      1   0.000000   1.517242   1.464420   0.000000
      1      1      1   0.000000  -2.140868   2.651807   0.000000
     74      1      1   0.000000  -0.537565   2.695003   0.000000
     70      1      1   0.000000   0.475556   2.771987   0.000000
     95      1      1   0.000000   0.917328   2.139944   0.000000
     25      1      1   0.000000  -1.127021   3.783653   0.000000
     31      1      1   0.000000   0.156613   3.826800   0.000000
     85      1      1   0.000000   0.664674   4.498862   0.000000
     11      1      1   0.000000  -0.343877   5.049075   0.000000
     49      1      1   0.000000   1.380975   3.816641   0.000000
     21      1      1   0.000000   2.167461   4.861885   0.000000

Bond Coeffs # ['bondID', 'bondCoeff', 'd']

      1   3.383145   0.543675
      2   0.703078   1.192610
      3   0.643796   1.246309
      4   0.691251   1.202769
      5   0.595892   1.295437
      6   0.630427   1.259455
      7   0.655878   1.234776
      8   0.823482   1.101978
      9   0.692486   1.201695
     10   0.510507   1.399584
     11   0.520097   1.386621
     12   0.581522   1.311345
     13   1.331681   0.866563
     14   0.457802   1.477955
     15   0.457802   1.477955
     16   0.630858   1.259025
     17   0.800157   1.117924
     18   0.637418   1.252529
     19   0.505627   1.406322
     20   1.172811   0.923392
     21   0.505627   1.406322
     22   0.796782   1.120290
     23   0.789205   1.125654
     24   0.606592   1.283960
     25   0.606592   1.283960
     26   1.202317   0.911991
     27   1.464806   0.826247
     28   1.258947   0.891243
     29   0.433095   1.519526
     30   0.681478   1.211363
     31   0.529740   1.373942
     32   0.683128   1.209898
     33   0.529740   1.373942
     34   0.606418   1.284145
     35   0.925723   1.039344
     36   0.889135   1.060514
     37   0.924763   1.039884
     38   0.464109   1.467879
     39   0.478222   1.446056
     40   0.411298   1.559271
     41   0.523516   1.382085
     42   1.600014   0.790566
     43   0.534459   1.367864
     44   0.489702   1.429006
     45   0.521231   1.385113
     46   0.802652   1.116186
     47   0.734621   1.166725
     48   0.734621   1.166725
     49   0.524408   1.380910
     50   0.597024   1.294208
     51   0.454082   1.483997
     52   0.400166   1.580812
     53   1.522734   0.810379
     54   0.948709   1.026676
     55   0.641393   1.248642
     56   1.121800   0.944153
     57   0.774225   1.136492
     58   0.757628   1.148873
     59   1.101866   0.952655
     60   0.468488   1.461001
     61   1.298729   0.877487
     62   0.606266   1.284306
     63   0.606266   1.284306
     64   0.826216   1.100154
     65   0.667038   1.224404
     66   1.525010   0.809774
     67   0.573988   1.319923
     68   0.573248   1.320774
     69   0.847314   1.086370
     70   1.202418   0.911953
     71   0.574022   1.319884
     72   0.905347   1.050975
     73   0.494407   1.422190
     74   0.464148   1.467817
     75   0.606216   1.284359
     76   0.451547   1.488156
     77   0.503730   1.408968
     78   0.503730   1.408968
     79   1.021960   0.989198
     80   0.871333   1.071292
     81   1.225145   0.903454
     82   0.407334   1.566839
     83   0.689052   1.204687
     84   0.497170   1.418233
     85   0.841905   1.089855
     86   0.743568   1.159684
     87   1.681685   0.771130
     88   0.743568   1.159684
     89   0.543559   1.356365
     90   0.543559   1.356365
     91   0.584421   1.308088
     92   1.408860   0.842493
     93   1.207250   0.910126
     94   0.573125   1.320916
     95   0.671631   1.220210
     96   0.495084   1.421217
     97   0.768876   1.140439
     98   0.652478   1.237990
     99   0.755766   1.150288
    100   0.515223   1.393164
    101   0.622052   1.267905
    102   0.622052   1.267905
    103   1.482373   0.821337
    104   0.814095   1.108313
    105   0.520938   1.385501
    106   0.549413   1.349120
    107   0.869057   1.072694
    108   0.556386   1.340639
    109   0.604001   1.286711
    110   0.516306   1.391703
    111   0.682611   1.210356
    112   0.777134   1.134363
    113   0.696444   1.198276
    114   1.444600   0.832006
    115   1.118941   0.945358
    116   0.934118   1.034664
    117   1.371115   0.854010
    118   0.830648   1.097214
    119   1.184514   0.918819
    120   0.904771   1.051310
    121   1.431948   0.835673

Bonds # ['ID', 'type', 'atom1', 'atom2']

         1         1        99        82
         2         2        16        54
         3         3        65        14
         4         4         3        65
         5         5        36        26
         6         6        19        66
         7         7        44        27
         8         8        70        31
         9         9         6        69
        10        10        50        24
        11        11        41        23
        12        12        14         1
        13        13        71        60
        14        14        21         4
        15        15         4        21
        16        16        29        43
        17        17        14        82
        18        18        24        69
        19        19        50        11
        20        20        60        63
        21        21        11        50
        22        22        63        36
        23        23        68         1
        24        24        12        34
        25        25        34        12
        26        26        43        86
        27        27        86        66
        28        28        17        84
        29        29         1        25
        30        30        17        74
        31        31        13        26
        32        32         6        73
        33        33        26        13
        34        34        17        70
        35        35        37        26
        36        36        66        17
        37        37         4        96
        38        38        10         5
        39        39         3        20
        40        40         9        20
        41        41        24        44
        42        42        47        66
        43        43        26         7
        44        44         6        24
        45        45         7        10
        46        46        15        77
        47        47        54        10
        48        48        10        54
        49        49        43         9
        50        50         7        40
        51        51         5        12
        52        52        23         7
        53        53        68        82
        54        54        20        99
        55        55        68        17
        56        56         6        96
        57        57        75        44
        58        58        85        11
        59        59        71        41
        60        60        16        15
        61        61        47        99
        62        62        10        53
        63        63        53        10
        64        64        63        41
        65        65        31        49
        66        66        66        84
        67        67        19        38
        68        68        31        11
        69        69        86        19
        70        70        54        53
        71        71        20        14
        72        72        27        62
        73        73        27         9
        74        74        10        12
        75        75        25        31
        76        76        25        11
        77        77         4        11
        78        78        11         4
        79        79        85        49
        80        80        65        34
        81        81        38        95
        82        82         3        14
        83        83        15        54
        84        84        37        23
        85        85        77         3
        86        86        60        21
        87        87        70        95
        88        88        21        60
        89        89        13        36
        90        90        36        13
        91        91        49        21
        92        92        31        85
        93        93        75        67
        94        94        40         5
        95        95        62         9
        96        96        50         6
        97        97        60        41
        98        98        74        25
        99        99        73         2
       100       100        29         9
       101       101        16        26
       102       102        26        16
       103       103        96        73
       104       104        67        44
       105       105        37         7
       106       106        20        47
       107       107        62        20
       108       108        23        40
       109       109         9        47
       110       110         2        41
       111       111        71         2
       112       112        41        37
       113       113        67        24
       114       114        86        47
       115       115        68        74
       116       116        69        29
       117       117        84        38
       118       118        17        95
       119       119        53        34
       120       120        13        75
       121       121        77        62
