LAMMPS data file.

    200 atoms
    575 bonds
   2794 angles
      0 dihedrals
      0 impropers
      1 atom types
    575 bond types
   2794 angle types
      0 dihedral types
      0 improper types
  -7.745894   7.745894 xlo xhi
  -7.745894   7.745894 ylo yhi
  -0.100000   0.100000 zlo zhi
0.0 0.0 0.0 xy xz yz

Masses # ['atom_id', 'mass']

1 1000000.0

Atoms # ['atomID', 'moleculeID', 'atomType', 'charge', 'x', 'y', 'z']

     33      1      1   0.000000  -7.397261   7.742100   0.000000
    143      1      1   0.000000  -6.249361  -7.442747   0.000000
    163      1      1   0.000000  -5.299713  -7.279284   0.000000
    144      1      1   0.000000  -4.458175  -7.635735   0.000000
    177      1      1   0.000000  -3.663523  -6.952982   0.000000
     71      1      1   0.000000  -2.576483  -6.990089   0.000000
    185      1      1   0.000000  -1.580215  -6.709441   0.000000
     19      1      1   0.000000  -0.356091  -7.081783   0.000000
     16      1      1   0.000000   0.981096  -6.809912   0.000000
     35      1      1   0.000000   2.131921  -7.737900   0.000000
    112      1      1   0.000000   2.962424  -6.863370   0.000000
    127      1      1   0.000000   3.948490  -6.792353   0.000000
     11      1      1   0.000000   4.936247  -7.359975   0.000000
    130      1      1   0.000000   6.245536  -7.474542   0.000000
    103      1      1   0.000000   7.156817  -6.979236   0.000000
      9      1      1   0.000000  -7.091235  -6.429419   0.000000
    124      1      1   0.000000  -5.855861  -6.485030   0.000000
     61      1      1   0.000000  -4.614330  -6.486178   0.000000
    152      1      1   0.000000  -5.309711  -5.744915   0.000000
      2      1      1   0.000000  -3.424304  -5.811534   0.000000
     36      1      1   0.000000  -1.994902  -5.673931   0.000000
    186      1      1   0.000000  -0.891007  -6.161132   0.000000
    158      1      1   0.000000  -0.006853  -6.052583   0.000000
    172      1      1   0.000000   1.539848  -5.770096   0.000000
    151      1      1   0.000000   2.135485  -6.412344   0.000000
     86      1      1   0.000000   3.392549  -5.828380   0.000000
     37      1      1   0.000000   4.690616  -5.795895   0.000000
     49      1      1   0.000000   5.959813  -6.374720   0.000000
     42      1      1   0.000000   7.104760  -5.796207   0.000000
     84      1      1   0.000000  -7.432184  -5.006057   0.000000
     59      1      1   0.000000  -6.249879  -5.359214   0.000000
    148      1      1   0.000000  -5.269420  -4.770068   0.000000
    154      1      1   0.000000  -4.539632  -5.481811   0.000000
     26      1      1   0.000000  -3.976977  -4.546565   0.000000
    137      1      1   0.000000  -2.839387  -4.760711   0.000000
      8      1      1   0.000000  -0.657799  -5.056000   0.000000
     97      1      1   0.000000   0.635118  -5.377902   0.000000
     22      1      1   0.000000   1.730872  -4.648840   0.000000
    161      1      1   0.000000   2.402988  -5.572306   0.000000
    117      1      1   0.000000   2.952025  -4.730676   0.000000
    162      1      1   0.000000   3.830202  -4.915917   0.000000
     41      1      1   0.000000   4.799775  -4.489638   0.000000
    116      1      1   0.000000   5.924821  -5.115528   0.000000
    189      1      1   0.000000   6.930648  -4.644230   0.000000
     38      1      1   0.000000  -6.361533  -4.096490   0.000000
     13      1      1   0.000000  -5.008120  -3.604356   0.000000
    147      1      1   0.000000  -2.921453  -3.738014   0.000000
     89      1      1   0.000000  -1.805947  -4.341418   0.000000
     91      1      1   0.000000  -0.756059  -3.790224   0.000000
     74      1      1   0.000000   0.395725  -4.212277   0.000000
     66      1      1   0.000000   1.300466  -3.436633   0.000000
    128      1      1   0.000000   2.504707  -3.647719   0.000000
    132      1      1   0.000000   3.641828  -3.880995   0.000000
     15      1      1   0.000000   6.015770  -3.855804   0.000000
     30      1      1   0.000000   7.636738  -3.743789   0.000000
    142      1      1   0.000000  -6.916842  -2.947084   0.000000
     72      1      1   0.000000  -5.874357  -2.714318   0.000000
     18      1      1   0.000000  -4.522450  -2.292769   0.000000
    164      1      1   0.000000  -3.868769  -3.387713   0.000000
     75      1      1   0.000000  -3.236046  -2.578476   0.000000
      5      1      1   0.000000  -1.995729  -2.926044   0.000000
     93      1      1   0.000000  -0.776737  -2.762367   0.000000
    179      1      1   0.000000   0.252542  -3.111392   0.000000
    136      1      1   0.000000   0.969397  -2.308398   0.000000
    100      1      1   0.000000   1.980581  -2.566976   0.000000
     25      1      1   0.000000   3.288967  -2.668769   0.000000
     47      1      1   0.000000   4.703878  -3.131519   0.000000
    180      1      1   0.000000   5.800066  -2.716964   0.000000
    104      1      1   0.000000   6.732203  -2.971281   0.000000
    183      1      1   0.000000  -7.262004  -1.142581   0.000000
    111      1      1   0.000000  -6.632537  -1.861200   0.000000
     78      1      1   0.000000  -5.612121  -1.523126   0.000000
     12      1      1   0.000000  -3.558542  -1.322816   0.000000
    156      1      1   0.000000  -2.510453  -1.826727   0.000000
     32      1      1   0.000000  -1.371072  -1.531450   0.000000
     51      1      1   0.000000  -0.119716  -1.966303   0.000000
    122      1      1   0.000000   0.652801  -1.312003   0.000000
    134      1      1   0.000000   1.627087  -1.433472   0.000000
    197      1      1   0.000000   2.524364  -1.653135   0.000000
     55      1      1   0.000000   3.424750  -1.337413   0.000000
    109      1      1   0.000000   4.283153  -1.969950   0.000000
     56      1      1   0.000000   5.352258  -1.787419   0.000000
     76      1      1   0.000000   6.508183  -1.876015   0.000000
     29      1      1   0.000000   7.687040  -2.190715   0.000000
     54      1      1   0.000000  -7.469742  -0.021923   0.000000
    114      1      1   0.000000  -6.440414  -0.678718   0.000000
    190      1      1   0.000000  -4.679922  -1.158300   0.000000
    133      1      1   0.000000  -5.358818  -0.310261   0.000000
    174      1      1   0.000000  -4.341945  -0.412127   0.000000
     80      1      1   0.000000  -2.424044  -0.679813   0.000000
     87      1      1   0.000000  -1.321938  -0.222666   0.000000
     63      1      1   0.000000  -0.259472  -0.705706   0.000000
     10      1      1   0.000000   1.076108  -0.277978   0.000000
     96      1      1   0.000000   2.450098  -0.520392   0.000000
     58      1      1   0.000000   3.683038  -0.187496   0.000000
    110      1      1   0.000000   4.524555  -0.936329   0.000000
    175      1      1   0.000000   5.374672  -0.727207   0.000000
    138      1      1   0.000000   6.181923  -0.812812   0.000000
    140      1      1   0.000000   7.279931  -0.974280   0.000000
    123      1      1   0.000000  -6.295618   0.331640   0.000000
    169      1      1   0.000000  -5.380941   0.600052   0.000000
    200      1      1   0.000000  -4.542893   0.409864   0.000000
     83      1      1   0.000000  -3.431298   0.107915   0.000000
    120      1      1   0.000000  -2.900883   1.055810   0.000000
    194      1      1   0.000000  -2.236224   0.419639   0.000000
    191      1      1   0.000000  -1.344643   0.847740   0.000000
     34      1      1   0.000000  -0.233493   0.619595   0.000000
    188      1      1   0.000000   2.002622   0.454452   0.000000
    113      1      1   0.000000   2.988095   0.613038   0.000000
     65      1      1   0.000000   4.227815   0.909228   0.000000
    167      1      1   0.000000   4.854593   0.005965   0.000000
    199      1      1   0.000000   5.290381   0.803025   0.000000
    170      1      1   0.000000   5.821667   0.124695   0.000000
    166      1      1   0.000000   6.276545   0.891707   0.000000
    101      1      1   0.000000   6.865875  -0.011278   0.000000
     62      1      1   0.000000   7.303043   1.088357   0.000000
      3      1      1   0.000000  -7.003510   1.232343   0.000000
    153      1      1   0.000000  -5.844816   1.393410   0.000000
    195      1      1   0.000000  -4.927732   1.342172   0.000000
    105      1      1   0.000000  -3.921959   1.222728   0.000000
    150      1      1   0.000000  -2.000264   1.493849   0.000000
     88      1      1   0.000000  -0.840949   1.798276   0.000000
     50      1      1   0.000000   0.980678   1.150008   0.000000
     95      1      1   0.000000   2.192257   1.502245   0.000000
    165      1      1   0.000000   3.243775   1.576272   0.000000
    102      1      1   0.000000   5.047984   1.669975   0.000000
    198      1      1   0.000000   5.870723   1.662061   0.000000
    171      1      1   0.000000   6.648793   1.726798   0.000000
    121      1      1   0.000000  -6.462612   2.228070   0.000000
    160      1      1   0.000000  -5.878598   3.054867   0.000000
    118      1      1   0.000000  -5.355525   2.211706   0.000000
    135      1      1   0.000000  -4.915686   3.203615   0.000000
     82      1      1   0.000000  -4.227266   2.295045   0.000000
     67      1      1   0.000000  -2.977708   2.171637   0.000000
    119      1      1   0.000000  -2.542758   3.212691   0.000000
    139      1      1   0.000000  -1.827421   2.485693   0.000000
    146      1      1   0.000000  -0.791263   2.992512   0.000000
     20      1      1   0.000000   0.313069   2.327583   0.000000
    178      1      1   0.000000   1.093932   3.191089   0.000000
    115      1      1   0.000000   1.539367   2.462011   0.000000
     53      1      1   0.000000   2.715494   2.547523   0.000000
     27      1      1   0.000000   4.036782   2.381892   0.000000
    182      1      1   0.000000   5.205780   2.504340   0.000000
     23      1      1   0.000000   6.263235   2.790092   0.000000
      1      1      1   0.000000   7.677598   2.362489   0.000000
     40      1      1   0.000000  -7.008264   3.422427   0.000000
    184      1      1   0.000000  -7.660941   4.423941   0.000000
     14      1      1   0.000000  -5.813880   4.201452   0.000000
    149      1      1   0.000000  -4.650783   4.232063   0.000000
     44      1      1   0.000000  -3.646309   3.550994   0.000000
     39      1      1   0.000000  -2.407207   4.388075   0.000000
    193      1      1   0.000000  -1.665435   3.433325   0.000000
    108      1      1   0.000000  -1.015781   4.081766   0.000000
     85      1      1   0.000000   0.113734   3.607097   0.000000
     77      1      1   0.000000   1.142184   4.311353   0.000000
     68      1      1   0.000000   2.135706   3.603420   0.000000
     64      1      1   0.000000   3.477111   3.596830   0.000000
      7      1      1   0.000000   4.897944   3.549229   0.000000
    181      1      1   0.000000   5.089121   4.549263   0.000000
    129      1      1   0.000000   6.029483   3.967447   0.000000
     70      1      1   0.000000   7.215996   3.714886   0.000000
    155      1      1   0.000000  -6.808300   4.615463   0.000000
    141      1      1   0.000000  -7.513318   5.370880   0.000000
     94      1      1   0.000000  -5.052771   5.301672   0.000000
     45      1      1   0.000000  -3.633681   5.106967   0.000000
     31      1      1   0.000000  -1.318751   5.286661   0.000000
      6      1      1   0.000000  -0.019592   4.838895   0.000000
    157      1      1   0.000000   1.731462   5.059351   0.000000
     46      1      1   0.000000   2.728225   4.776557   0.000000
     81      1      1   0.000000   4.003242   4.634141   0.000000
     90      1      1   0.000000   4.734672   5.492233   0.000000
    131      1      1   0.000000   5.816988   5.005210   0.000000
     99      1      1   0.000000   6.867021   4.899880   0.000000
     48      1      1   0.000000  -7.331113   6.434318   0.000000
     92      1      1   0.000000  -6.314587   5.595026   0.000000
    107      1      1   0.000000  -5.382560   6.377504   0.000000
    173      1      1   0.000000  -4.415207   5.983128   0.000000
     79      1      1   0.000000  -3.608437   6.541075   0.000000
     60      1      1   0.000000  -2.489997   5.894122   0.000000
     98      1      1   0.000000  -1.477427   6.528872   0.000000
     57      1      1   0.000000  -0.301249   6.119182   0.000000
     17      1      1   0.000000   0.980932   5.795790   0.000000
    126      1      1   0.000000   2.264490   5.855708   0.000000
     24      1      1   0.000000   3.530195   5.969486   0.000000
     21      1      1   0.000000   5.891540   6.098320   0.000000
    176      1      1   0.000000   7.080869   5.904766   0.000000
    106      1      1   0.000000  -6.316220   6.922114   0.000000
    192      1      1   0.000000  -5.454062   7.400711   0.000000
    168      1      1   0.000000  -4.618944   6.860266   0.000000
    145      1      1   0.000000  -3.433806   7.692008   0.000000
     69      1      1   0.000000  -2.539286   7.196055   0.000000
     52      1      1   0.000000  -1.539506  -7.716543   0.000000
    125      1      1   0.000000  -0.551709   7.192880   0.000000
     28      1      1   0.000000   0.646787   7.258948   0.000000
    187      1      1   0.000000   1.736194   6.625176   0.000000
    159      1      1   0.000000   2.675581   6.762900   0.000000
      4      1      1   0.000000   3.583732   7.512606   0.000000
     73      1      1   0.000000   4.651151   6.754989   0.000000
    196      1      1   0.000000   5.658475   7.204549   0.000000
     43      1      1   0.000000   6.887278   7.102808   0.000000

Bond Coeffs # ['bondID', 'bondCoeff', 'd']

      1   1.148278   0.933204
      2   0.569120   1.325556
      3   1.186908   0.917892
      4   1.081961   0.961378
      5   0.000000   1.428041
      6   0.000000   1.225199
      7   0.708594   1.187959
      8   0.000000   0.931301
      9   0.783882   1.129470
     10   0.737931   1.164105
     11   0.763734   1.144271
     12   0.000000   1.556024
     13   0.955899   1.022808
     14   0.000000   1.253827
     15   0.655199   1.235416
     16   0.000000   1.047675
     17   0.795343   1.121302
     18   0.811891   1.109816
     19   0.803813   1.115379
     20   0.000000   1.094434
     21   0.000000   1.275940
     22   0.000000   1.182833
     23   0.665082   1.226203
     24   0.000000   0.861624
     25   0.000000   1.341623
     26   0.000000   1.044376
     27   0.842776   1.089291
     28   0.000000   1.380432
     29   0.864135   1.075745
     30   0.448520   1.493170
     31   0.000000   1.322757
     32   0.000000   1.179238
     33   0.000000   1.286350
     34   0.461687   1.471724
     35   0.719121   1.179231
     36   0.000000   0.920047
     37   0.869145   1.072640
     38   0.770501   1.139235
     39   0.800132   1.117942
     40   0.000000   0.891752
     41   0.901826   1.053025
     42   0.709236   1.187421
     43   0.000000   1.207128
     44   1.275297   0.885512
     45   0.000000   1.421631
     46   0.849372   1.085053
     47   1.304748   0.875461
     48   0.000000   1.318232
     49   0.531805   1.371273
     50   1.003706   0.998152
     51   1.180226   0.920487
     52   0.000000   1.404851
     53   0.701503   1.193947
     54   0.000000   1.142160
     55   0.742162   1.160782
     56   0.000000   1.310810
     57   0.750597   1.154241
     58   0.624404   1.265514
     59   0.743016   1.160114
     60   0.000000   1.128262
     61   1.233230   0.900488
     62   0.000000   1.254632
     63   0.739277   1.163045
     64   1.123371   0.943493
     65   0.746285   1.157571
     66   0.000000   1.120808
     67   0.899952   1.054121
     68   0.000000   1.442233
     69   0.711511   1.185521
     70   0.000000   1.403488
     71   0.000000   1.487519
     72   0.000000   1.080889
     73   0.000000   1.016378
     74   0.000000   1.107208
     75   0.000000   1.145590
     76   0.579971   1.313097
     77   0.000000   1.308956
     78   0.583203   1.309454
     79   1.080449   0.962051
     80   0.669007   1.222601
     81   0.484937   1.436010
     82   0.000000   1.180433
     83   0.000000   1.221023
     84   0.000000   0.958281
     85   0.000000   1.126034
     86   0.865443   1.074931
     87   0.000000   1.105626
     88   0.881964   1.064816
     89   0.000000   1.207360
     90   0.000000   1.141336
     91   0.887590   1.061436
     92   0.577370   1.316052
     93   0.000000   1.421634
     94   0.000000   1.366069
     95   0.000000   1.437441
     96   0.985869   1.007141
     97   0.000000   1.219941
     98   1.006854   0.996591
     99   0.000000   1.060094
    100   1.510014   0.813785
    101   1.088749   0.958376
    102   0.000000   1.299871
    103   0.000000   0.933369
    104   0.700691   1.194639
    105   0.821823   1.103090
    106   0.000000   1.033298
    107   0.482179   1.440111
    108   0.000000   1.197987
    109   0.683378   1.209677
    110   1.640464   0.780758
    111   0.000000   1.367453
    112   0.626890   1.263003
    113   0.000000   1.243835
    114   0.000000   1.230842
    115   0.666851   1.224576
    116   0.000000   1.139236
    117   0.000000   1.229253
    118   0.933434   1.035042
    119   0.678987   1.213582
    120   0.000000   1.019918
    121   0.000000   1.282751
    122   1.185301   0.918514
    123   1.396551   0.846197
    124   1.354104   0.859358
    125   0.755927   1.150165
    126   0.000000   1.485003
    127   0.679533   1.213095
    128   0.000000   1.396788
    129   0.505836   1.406031
    130   0.000000   1.338262
    131   0.468059   1.461671
    132   0.685580   1.207733
    133   0.808485   1.112152
    134   0.661056   1.229932
    135   0.694057   1.200335
    136   0.000000   1.269585
    137   0.000000   1.174071
    138   0.000000   1.099425
    139   0.728391   1.171704
    140   1.074638   0.964648
    141   0.729693   1.170658
    142   0.000000   1.038427
    143   0.000000   1.337824
    144   0.000000   1.268247
    145   0.000000   1.329619
    146   0.000000   1.276519
    147   0.784663   1.128908
    148   0.000000   1.004343
    149   0.830615   1.097236
    150   1.076946   0.963614
    151   0.000000   1.188228
    152   0.552092   1.345843
    153   1.023156   0.988619
    154   0.556093   1.340992
    155   0.702883   1.192775
    156   0.781708   1.131039
    157   0.910071   1.048244
    158   0.000000   1.104019
    159   0.651423   1.238991
    160   0.735039   1.166393
    161   0.934178   1.034630
    162   0.674056   1.218014
    163   0.000000   1.159088
    164   0.000000   1.189451
    165   0.000000   1.397349
    166   1.098449   0.954135
    167   0.000000   1.220139
    168   0.886619   1.062017
    169   0.451241   1.488661
    170   0.566989   1.328044
    171   1.260221   0.890793
    172   0.000000   1.247917
    173   0.428249   1.528100
    174   0.713131   1.184174
    175   0.000000   1.201130
    176   0.000000   1.316134
    177   0.000000   1.565435
    178   0.865394   1.074962
    179   0.000000   1.283128
    180   0.486073   1.434331
    181   0.000000   1.012840
    182   0.542055   1.358245
    183   0.000000   1.048676
    184   0.000000   0.870711
    185   0.728075   1.171958
    186   0.540781   1.359844
    187   0.000000   1.135619
    188   0.000000   1.562148
    189   0.000000   1.314686
    190   0.000000   1.268320
    191   0.000000   0.880710
    192   0.670837   1.220932
    193   1.298976   0.877404
    194   0.000000   1.138269
    195   0.627352   1.262538
    196   0.703338   1.192389
    197   0.758240   1.148409
    198   0.946148   1.028065
    199   0.957480   1.021963
    200   0.501959   1.411452
    201   0.701007   1.194370
    202   0.742136   1.160802
    203   0.655311   1.235311
    204   0.000000   1.086311
    205   0.000000   1.416658
    206   0.876459   1.068155
    207   0.776022   1.135175
    208   0.000000   1.156219
    209   0.000000   1.182800
    210   0.000000   1.275226
    211   0.000000   1.384448
    212   0.000000   1.198619
    213   0.000000   1.254355
    214   0.607551   1.282947
    215   0.765925   1.142633
    216   1.197256   0.913916
    217   0.000000   1.048221
    218   0.000000   1.093954
    219   0.000000   1.354266
    220   0.000000   1.095047
    221   0.736721   1.165061
    222   1.100499   0.953246
    223   0.000000   1.269616
    224   0.793667   1.122486
    225   0.000000   1.232744
    226   0.842931   1.089191
    227   0.000000   1.012258
    228   0.611593   1.278700
    229   0.568734   1.326006
    230   0.601800   1.289062
    231   0.707572   1.188816
    232   0.000000   1.070647
    233   0.000000   1.177624
    234   0.563941   1.331629
    235   0.000000   1.112796
    236   0.000000   0.989033
    237   0.949989   1.025984
    238   0.000000   1.096948
    239   0.000000   1.239381
    240   0.000000   1.216942
    241   0.487394   1.432385
    242   0.861864   1.077161
    243   0.419448   1.544049
    244   0.000000   1.213853
    245   1.286635   0.881602
    246   0.811392   1.110157
    247   0.000000   1.117151
    248   0.000000   0.969608
    249   0.000000   1.390838
    250   0.651379   1.239034
    251   0.000000   1.045484
    252   0.859034   1.078934
    253   0.648673   1.241616
    254   0.000000   1.236190
    255   0.000000   0.994737
    256   0.000000   1.317416
    257   0.688721   1.204976
    258   0.000000   1.251254
    259   0.672176   1.219716
    260   0.000000   1.271271
    261   0.000000   1.296575
    262   0.674464   1.217644
    263   0.000000   1.368779
    264   0.846583   1.086839
    265   0.822667   1.102524
    266   0.000000   0.990143
    267   0.000000   1.478364
    268   1.309455   0.873886
    269   0.000000   1.253356
    270   0.000000   1.429005
    271   0.723316   1.175806
    272   0.702434   1.193156
    273   0.637647   1.252304
    274   0.000000   0.938510
    275   0.723825   1.175394
    276   0.000000   1.241532
    277   1.127075   0.941941
    278   0.000000   1.314279
    279   0.000000   1.209037
    280   0.000000   1.241987
    281   0.000000   0.980910
    282   0.000000   1.265331
    283   0.581274   1.311625
    284   0.957116   1.022157
    285   0.590961   1.300830
    286   1.221934   0.904641
    287   0.000000   1.044803
    288   0.571895   1.322336
    289   0.000000   1.317749
    290   0.000000   1.182633
    291   0.000000   0.919810
    292   0.000000   1.383805
    293   0.653919   1.236625
    294   0.000000   1.175343
    295   1.211802   0.908415
    296   0.000000   1.027230
    297   0.000000   1.342904
    298   0.985388   1.007387
    299   0.000000   1.059296
    300   0.634267   1.255637
    301   0.610830   1.279499
    302   0.721824   1.177021
    303   0.000000   1.037421
    304   0.000000   1.118665
    305   0.000000   1.236671
    306   0.569622   1.324971
    307   0.749053   1.155431
    308   0.506789   1.404709
    309   0.000000   0.910582
    310   0.564291   1.331216
    311   0.000000   1.284955
    312   0.801028   1.117316
    313   0.000000   1.450612
    314   0.000000   1.361329
    315   0.000000   1.206042
    316   0.593108   1.298474
    317   0.916336   1.044654
    318   0.000000   1.143851
    319   0.595758   1.295582
    320   1.053376   0.974335
    321   1.053381   0.974333
    322   0.964677   1.018144
    323   1.050474   0.975680
    324   0.000000   0.979026
    325   0.000000   0.854381
    326   0.596342   1.294948
    327   0.767345   1.141576
    328   0.595864   1.295467
    329   0.000000   1.279923
    330   0.000000   1.319404
    331   0.931526   1.036102
    332   0.513902   1.394954
    333   0.000000   1.066282
    334   0.000000   1.059216
    335   0.882041   1.064770
    336   1.196249   0.914301
    337   0.976440   1.011993
    338   0.994910   1.002555
    339   0.000000   1.088261
    340   1.477186   0.822777
    341   0.000000   1.166135
    342   1.183999   0.919019
    343   0.850120   1.084576
    344   0.881949   1.064825
    345   0.826716   1.099820
    346   0.975713   1.012369
    347   0.000000   1.022891
    348   0.598998   1.292074
    349   0.629535   1.260347
    350   0.569804   1.324760
    351   0.699012   1.196073
    352   0.580640   1.312340
    353   0.000000   1.189517
    354   0.000000   1.309705
    355   0.000000   1.425985
    356   0.000000   1.230721
    357   0.000000   1.060449
    358   1.028413   0.986089
    359   0.799379   1.118468
    360   0.000000   1.053683
    361   0.584356   1.308162
    362   0.664569   1.226676
    363   0.833024   1.095649
    364   0.000000   1.331535
    365   0.000000   1.094555
    366   0.414152   1.553889
    367   0.000000   1.277090
    368   0.997017   1.001495
    369   0.714336   1.183174
    370   0.628143   1.261742
    371   0.947394   1.027389
    372   0.000000   1.091450
    373   0.743464   1.159765
    374   0.000000   1.063394
    375   0.000000   1.180320
    376   0.000000   1.139921
    377   0.647851   1.242402
    378   0.518773   1.388390
    379   0.782435   1.130514
    380   0.000000   1.202666
    381   0.000000   1.202646
    382   0.000000   1.587669
    383   0.796616   1.120406
    384   0.000000   1.153468
    385   0.700179   1.195076
    386   0.000000   1.202360
    387   0.558876   1.337650
    388   0.000000   1.213628
    389   0.982860   1.008682
    390   0.000000   1.342547
    391   0.687150   1.206352
    392   0.760520   1.146686
    393   0.000000   1.095371
    394   0.000000   1.191714
    395   0.845284   1.087674
    396   0.613099   1.277129
    397   0.777179   1.134330
    398   0.000000   1.244825
    399   0.000000   1.306019
    400   0.000000   1.059144
    401   0.000000   1.231365
    402   0.968352   1.016210
    403   0.772975   1.137411
    404   0.774445   1.136331
    405   0.781302   1.131333
    406   0.000000   1.209356
    407   0.000000   1.242449
    408   0.000000   1.187201
    409   0.959886   1.020681
    410   1.490307   0.819147
    411   0.000000   1.181051
    412   1.322505   0.869564
    413   0.000000   1.287802
    414   0.744042   1.159315
    415   0.694079   1.200316
    416   0.904456   1.051493
    417   0.915440   1.045166
    418   0.719931   1.178568
    419   0.000000   1.438926
    420   0.000000   1.099374
    421   0.622301   1.267651
    422   0.545737   1.353656
    423   0.458029   1.477589
    424   0.000000   1.287426
    425   0.734127   1.167117
    426   0.000000   0.998420
    427   0.724839   1.174571
    428   1.064855   0.969069
    429   0.000000   1.193336
    430   0.000000   1.206627
    431   0.986555   1.006791
    432   0.739192   1.163111
    433   0.765897   1.142654
    434   0.000000   1.004880
    435   0.000000   1.126456
    436   0.000000   1.420709
    437   0.000000   1.195415
    438   1.028433   0.986080
    439   0.917974   1.043722
    440   0.860073   1.078282
    441   0.513713   1.395211
    442   0.000000   1.436377
    443   0.932781   1.035405
    444   0.984338   1.007924
    445   0.000000   0.953423
    446   1.241452   0.897501
    447   1.386838   0.849155
    448   0.769806   1.139750
    449   0.778789   1.133157
    450   0.789781   1.125244
    451   1.008071   0.995989
    452   0.538915   1.362197
    453   0.000000   1.280134
    454   0.581914   1.310903
    455   0.000000   0.858882
    456   0.619212   1.270809
    457   0.000000   1.186895
    458   0.000000   1.500828
    459   0.000000   1.414387
    460   0.558486   1.338116
    461   0.804455   1.114934
    462   0.539467   1.361500
    463   0.657463   1.233287
    464   0.778478   1.133383
    465   0.555738   1.341421
    466   0.692762   1.201456
    467   0.890466   1.059720
    468   0.594995   1.296413
    469   0.578917   1.314292
    470   0.000000   1.168924
    471   0.803985   1.115260
    472   0.602704   1.288096
    473   0.000000   1.001046
    474   0.000000   1.076420
    475   0.000000   1.482511
    476   0.689147   1.204604
    477   1.102839   0.952235
    478   0.876942   1.067861
    479   0.644646   1.245488
    480   0.000000   1.026076
    481   0.000000   1.032179
    482   0.762302   1.145346
    483   0.460896   1.472985
    484   0.980278   1.010009
    485   0.657762   1.233008
    486   0.000000   1.334066
    487   0.000000   0.875938
    488   0.738199   1.163894
    489   0.739417   1.162935
    490   0.000000   1.271798
    491   0.543175   1.356844
    492   0.000000   1.431171
    493   0.000000   0.992233
    494   0.000000   1.406246
    495   0.000000   1.384741
    496   1.037358   0.981828
    497   0.398934   1.583250
    498   0.753683   1.151875
    499   0.000000   1.115459
    500   0.000000   1.451824
    501   0.667596   1.223892
    502   0.000000   1.019396
    503   1.464491   0.826336
    504   0.782704   1.130320
    505   0.709325   1.187346
    506   0.000000   1.534598
    507   0.730719   1.169836
    508   0.699953   1.195269
    509   0.000000   1.215218
    510   0.000000   1.364545
    511   0.000000   1.121740
    512   0.808509   1.112135
    513   0.735224   1.166246
    514   0.000000   0.903420
    515   1.171840   0.923774
    516   0.000000   1.213599
    517   0.000000   1.352358
    518   0.000000   1.254064
    519   0.656787   1.233922
    520   0.000000   0.955322
    521   0.465606   1.465516
    522   1.109365   0.949430
    523   0.897936   1.055303
    524   0.483461   1.438200
    525   0.000000   1.127525
    526   0.447212   1.495352
    527   0.000000   1.463627
    528   0.000000   1.349734
    529   0.000000   1.498549
    530   0.000000   0.914139
    531   0.000000   1.130436
    532   1.517491   0.811777
    533   0.000000   1.164212
    534   0.000000   1.366891
    535   0.939333   1.031788
    536   0.000000   1.037189
    537   0.672406   1.219507
    538   0.000000   1.526662
    539   0.000000   1.327779
    540   0.000000   1.282802
    541   0.630203   1.259678
    542   0.657084   1.233643
    543   1.234022   0.900199
    544   0.800978   1.117351