LAMMPS data file.

    200 atoms
    575 bonds
    697 angles
      0 dihedrals
      0 impropers
      1 atom types
    575 bond types
    697 angle types
      0 dihedral types
      0 improper types
  -7.745894   7.745894 xlo xhi
  -7.745894   7.745894 ylo yhi
  -0.100000   0.100000 zlo zhi
0.0 0.0 0.0 xy xz yz

Masses # ['atom_id', 'mass']

1 1000000.0

Atoms # ['atomID', 'moleculeID', 'atomType', 'charge', 'x', 'y', 'z']

     33      1      1   0.000000  -7.397261   7.742100   0.000000
    143      1      1   0.000000  -6.249361  -7.442747   0.000000
    163      1      1   0.000000  -5.299713  -7.279284   0.000000
    144      1      1   0.000000  -4.458175  -7.635735   0.000000
    177      1      1   0.000000  -3.663523  -6.952982   0.000000
     71      1      1   0.000000  -2.576483  -6.990089   0.000000
    185      1      1   0.000000  -1.580215  -6.709441   0.000000
     19      1      1   0.000000  -0.356091  -7.081783   0.000000
     16      1      1   0.000000   0.981096  -6.809912   0.000000
     35      1      1   0.000000   2.131921  -7.737900   0.000000
    112      1      1   0.000000   2.962424  -6.863370   0.000000
    127      1      1   0.000000   3.948490  -6.792353   0.000000
     11      1      1   0.000000   4.936247  -7.359975   0.000000
    130      1      1   0.000000   6.245536  -7.474542   0.000000
    103      1      1   0.000000   7.156817  -6.979236   0.000000
      9      1      1   0.000000  -7.091235  -6.429419   0.000000
    124      1      1   0.000000  -5.855861  -6.485030   0.000000
     61      1      1   0.000000  -4.614330  -6.486178   0.000000
    152      1      1   0.000000  -5.309711  -5.744915   0.000000
      2      1      1   0.000000  -3.424304  -5.811534   0.000000
     36      1      1   0.000000  -1.994902  -5.673931   0.000000
    186      1      1   0.000000  -0.891007  -6.161132   0.000000
    158      1      1   0.000000  -0.006853  -6.052583   0.000000
    172      1      1   0.000000   1.539848  -5.770096   0.000000
    151      1      1   0.000000   2.135485  -6.412344   0.000000
     86      1      1   0.000000   3.392549  -5.828380   0.000000
     37      1      1   0.000000   4.690616  -5.795895   0.000000
     49      1      1   0.000000   5.959813  -6.374720   0.000000
     42      1      1   0.000000   7.104760  -5.796207   0.000000
     84      1      1   0.000000  -7.432184  -5.006057   0.000000
     59      1      1   0.000000  -6.249879  -5.359214   0.000000
    148      1      1   0.000000  -5.269420  -4.770068   0.000000
    154      1      1   0.000000  -4.539632  -5.481811   0.000000
     26      1      1   0.000000  -3.976977  -4.546565   0.000000
    137      1      1   0.000000  -2.839387  -4.760711   0.000000
      8      1      1   0.000000  -0.657799  -5.056000   0.000000
     97      1      1   0.000000   0.635118  -5.377902   0.000000
     22      1      1   0.000000   1.730872  -4.648840   0.000000
    161      1      1   0.000000   2.402988  -5.572306   0.000000
    117      1      1   0.000000   2.952025  -4.730676   0.000000
    162      1      1   0.000000   3.830202  -4.915917   0.000000
     41      1      1   0.000000   4.799775  -4.489638   0.000000
    116      1      1   0.000000   5.924821  -5.115528   0.000000
    189      1      1   0.000000   6.930648  -4.644230   0.000000
     38      1      1   0.000000  -6.361533  -4.096490   0.000000
     13      1      1   0.000000  -5.008120  -3.604356   0.000000
    147      1      1   0.000000  -2.921453  -3.738014   0.000000
     89      1      1   0.000000  -1.805947  -4.341418   0.000000
     91      1      1   0.000000  -0.756059  -3.790224   0.000000
     74      1      1   0.000000   0.395725  -4.212277   0.000000
     66      1      1   0.000000   1.300466  -3.436633   0.000000
    128      1      1   0.000000   2.504707  -3.647719   0.000000
    132      1      1   0.000000   3.641828  -3.880995   0.000000
     15      1      1   0.000000   6.015770  -3.855804   0.000000
     30      1      1   0.000000   7.636738  -3.743789   0.000000
    142      1      1   0.000000  -6.916842  -2.947084   0.000000
     72      1      1   0.000000  -5.874357  -2.714318   0.000000
     18      1      1   0.000000  -4.522450  -2.292769   0.000000
    164      1      1   0.000000  -3.868769  -3.387713   0.000000
     75      1      1   0.000000  -3.236046  -2.578476   0.000000
      5      1      1   0.000000  -1.995729  -2.926044   0.000000
     93      1      1   0.000000  -0.776737  -2.762367   0.000000
    179      1      1   0.000000   0.252542  -3.111392   0.000000
    136      1      1   0.000000   0.969397  -2.308398   0.000000
    100      1      1   0.000000   1.980581  -2.566976   0.000000
     25      1      1   0.000000   3.288967  -2.668769   0.000000
     47      1      1   0.000000   4.703878  -3.131519   0.000000
    180      1      1   0.000000   5.800066  -2.716964   0.000000
    104      1      1   0.000000   6.732203  -2.971281   0.000000
    183      1      1   0.000000  -7.262004  -1.142581   0.000000
    111      1      1   0.000000  -6.632537  -1.861200   0.000000
     78      1      1   0.000000  -5.612121  -1.523126   0.000000
     12      1      1   0.000000  -3.558542  -1.322816   0.000000
    156      1      1   0.000000  -2.510453  -1.826727   0.000000
     32      1      1   0.000000  -1.371072  -1.531450   0.000000
     51      1      1   0.000000  -0.119716  -1.966303   0.000000
    122      1      1   0.000000   0.652801  -1.312003   0.000000
    134      1      1   0.000000   1.627087  -1.433472   0.000000
    197      1      1   0.000000   2.524364  -1.653135   0.000000
     55      1      1   0.000000   3.424750  -1.337413   0.000000
    109      1      1   0.000000   4.283153  -1.969950   0.000000
     56      1      1   0.000000   5.352258  -1.787419   0.000000
     76      1      1   0.000000   6.508183  -1.876015   0.000000
     29      1      1   0.000000   7.687040  -2.190715   0.000000
     54      1      1   0.000000  -7.469742  -0.021923   0.000000
    114      1      1   0.000000  -6.440414  -0.678718   0.000000
    190      1      1   0.000000  -4.679922  -1.158300   0.000000
    133      1      1   0.000000  -5.358818  -0.310261   0.000000
    174      1      1   0.000000  -4.341945  -0.412127   0.000000
     80      1      1   0.000000  -2.424044  -0.679813   0.000000
     87      1      1   0.000000  -1.321938  -0.222666   0.000000
     63      1      1   0.000000  -0.259472  -0.705706   0.000000
     10      1      1   0.000000   1.076108  -0.277978   0.000000
     96      1      1   0.000000   2.450098  -0.520392   0.000000
     58      1      1   0.000000   3.683038  -0.187496   0.000000
    110      1      1   0.000000   4.524555  -0.936329   0.000000
    175      1      1   0.000000   5.374672  -0.727207   0.000000
    138      1      1   0.000000   6.181923  -0.812812   0.000000
    140      1      1   0.000000   7.279931  -0.974280   0.000000
    123      1      1   0.000000  -6.295618   0.331640   0.000000
    169      1      1   0.000000  -5.380941   0.600052   0.000000
    200      1      1   0.000000  -4.542893   0.409864   0.000000
     83      1      1   0.000000  -3.431298   0.107915   0.000000
    120      1      1   0.000000  -2.900883   1.055810   0.000000
    194      1      1   0.000000  -2.236224   0.419639   0.000000
    191      1      1   0.000000  -1.344643   0.847740   0.000000
     34      1      1   0.000000  -0.233493   0.619595   0.000000
    188      1      1   0.000000   2.002622   0.454452   0.000000
    113      1      1   0.000000   2.988095   0.613038   0.000000
     65      1      1   0.000000   4.227815   0.909228   0.000000
    167      1      1   0.000000   4.854593   0.005965   0.000000
    199      1      1   0.000000   5.290381   0.803025   0.000000
    170      1      1   0.000000   5.821667   0.124695   0.000000
    166      1      1   0.000000   6.276545   0.891707   0.000000
    101      1      1   0.000000   6.865875  -0.011278   0.000000
     62      1      1   0.000000   7.303043   1.088357   0.000000
      3      1      1   0.000000  -7.003510   1.232343   0.000000
    153      1      1   0.000000  -5.844816   1.393410   0.000000
    195      1      1   0.000000  -4.927732   1.342172   0.000000
    105      1      1   0.000000  -3.921959   1.222728   0.000000
    150      1      1   0.000000  -2.000264   1.493849   0.000000
     88      1      1   0.000000  -0.840949   1.798276   0.000000
     50      1      1   0.000000   0.980678   1.150008   0.000000
     95      1      1   0.000000   2.192257   1.502245   0.000000
    165      1      1   0.000000   3.243775   1.576272   0.000000
    102      1      1   0.000000   5.047984   1.669975   0.000000
    198      1      1   0.000000   5.870723   1.662061   0.000000
    171      1      1   0.000000   6.648793   1.726798   0.000000
    121      1      1   0.000000  -6.462612   2.228070   0.000000
    160      1      1   0.000000  -5.878598   3.054867   0.000000
    118      1      1   0.000000  -5.355525   2.211706   0.000000
    135      1      1   0.000000  -4.915686   3.203615   0.000000
     82      1      1   0.000000  -4.227266   2.295045   0.000000
     67      1      1   0.000000  -2.977708   2.171637   0.000000
    119      1      1   0.000000  -2.542758   3.212691   0.000000
    139      1      1   0.000000  -1.827421   2.485693   0.000000
    146      1      1   0.000000  -0.791263   2.992512   0.000000
     20      1      1   0.000000   0.313069   2.327583   0.000000
    178      1      1   0.000000   1.093932   3.191089   0.000000
    115      1      1   0.000000   1.539367   2.462011   0.000000
     53      1      1   0.000000   2.715494   2.547523   0.000000
     27      1      1   0.000000   4.036782   2.381892   0.000000
    182      1      1   0.000000   5.205780   2.504340   0.000000
     23      1      1   0.000000   6.263235   2.790092   0.000000
      1      1      1   0.000000   7.677598   2.362489   0.000000
     40      1      1   0.000000  -7.008264   3.422427   0.000000
    184      1      1   0.000000  -7.660941   4.423941   0.000000
     14      1      1   0.000000  -5.813880   4.201452   0.000000
    149      1      1   0.000000  -4.650783   4.232063   0.000000
     44      1      1   0.000000  -3.646309   3.550994   0.000000
     39      1      1   0.000000  -2.407207   4.388075   0.000000
    193      1      1   0.000000  -1.665435   3.433325   0.000000
    108      1      1   0.000000  -1.015781   4.081766   0.000000
     85      1      1   0.000000   0.113734   3.607097   0.000000
     77      1      1   0.000000   1.142184   4.311353   0.000000
     68      1      1   0.000000   2.135706   3.603420   0.000000
     64      1      1   0.000000   3.477111   3.596830   0.000000
      7      1      1   0.000000   4.897944   3.549229   0.000000
    181      1      1   0.000000   5.089121   4.549263   0.000000
    129      1      1   0.000000   6.029483   3.967447   0.000000
     70      1      1   0.000000   7.215996   3.714886   0.000000
    155      1      1   0.000000  -6.808300   4.615463   0.000000
    141      1      1   0.000000  -7.513318   5.370880   0.000000
     94      1      1   0.000000  -5.052771   5.301672   0.000000
     45      1      1   0.000000  -3.633681   5.106967   0.000000
     31      1      1   0.000000  -1.318751   5.286661   0.000000
      6      1      1   0.000000  -0.019592   4.838895   0.000000
    157      1      1   0.000000   1.731462   5.059351   0.000000
     46      1      1   0.000000   2.728225   4.776557   0.000000
     81      1      1   0.000000   4.003242   4.634141   0.000000
     90      1      1   0.000000   4.734672   5.492233   0.000000
    131      1      1   0.000000   5.816988   5.005210   0.000000
     99      1      1   0.000000   6.867021   4.899880   0.000000
     48      1      1   0.000000  -7.331113   6.434318   0.000000
     92      1      1   0.000000  -6.314587   5.595026   0.000000
    107      1      1   0.000000  -5.382560   6.377504   0.000000
    173      1      1   0.000000  -4.415207   5.983128   0.000000
     79      1      1   0.000000  -3.608437   6.541075   0.000000
     60      1      1   0.000000  -2.489997   5.894122   0.000000
     98      1      1   0.000000  -1.477427   6.528872   0.000000
     57      1      1   0.000000  -0.301249   6.119182   0.000000
     17      1      1   0.000000   0.980932   5.795790   0.000000
    126      1      1   0.000000   2.264490   5.855708   0.000000
     24      1      1   0.000000   3.530195   5.969486   0.000000
     21      1      1   0.000000   5.891540   6.098320   0.000000
    176      1      1   0.000000   7.080869   5.904766   0.000000
    106      1      1   0.000000  -6.316220   6.922114   0.000000
    192      1      1   0.000000  -5.454062   7.400711   0.000000
    168      1      1   0.000000  -4.618944   6.860266   0.000000
    145      1      1   0.000000  -3.433806   7.692008   0.000000
     69      1      1   0.000000  -2.539286   7.196055   0.000000
     52      1      1   0.000000  -1.539506  -7.716543   0.000000
    125      1      1   0.000000  -0.551709   7.192880   0.000000
     28      1      1   0.000000   0.646787   7.258948   0.000000
    187      1      1   0.000000   1.736194   6.625176   0.000000
    159      1      1   0.000000   2.675581   6.762900   0.000000
      4      1      1   0.000000   3.583732   7.512606   0.000000
     73      1      1   0.000000   4.651151   6.754989   0.000000
    196      1      1   0.000000   5.658475   7.204549   0.000000
     43      1      1   0.000000   6.887278   7.102808   0.000000

Bond Coeffs # ['bondID', 'bondCoeff', 'd']

      1   1.148278   0.933204
      2   0.569120   1.325556
      3   1.186908   0.917892
      4   1.081961   0.961378
      5   0.708594   1.187959
      6   0.783882   1.129470
      7   0.737931   1.164105
      8   0.763734   1.144271
      9   0.955899   1.022808
     10   0.655199   1.235416
     11   0.795343   1.121302
     12   0.811891   1.109816
     13   0.803813   1.115379
     14   0.665082   1.226203
     15   0.842776   1.089291
     16   0.864135   1.075745
     17   0.448520   1.493170
     18   0.461687   1.471724
     19   0.719121   1.179231
     20   0.869145   1.072640
     21   0.770501   1.139235
     22   0.800132   1.117942
     23   0.901826   1.053025
     24   0.709236   1.187421
     25   1.275297   0.885512
     26   0.849372   1.085053
     27   1.304748   0.875461
     28   0.531805   1.371273
     29   1.003706   0.998152
     30   1.180226   0.920487
     31   0.701503   1.193947
     32   0.742162   1.160782
     33   0.750597   1.154241
     34   0.624404   1.265514
     35   0.743016   1.160114
     36   1.233230   0.900488
     37   0.739277   1.163045
     38   1.123371   0.943493
     39   0.746285   1.157571
     40   0.899952   1.054121
     41   0.711511   1.185521
     42   0.579971   1.313097
     43   0.583203   1.309454
     44   1.080449   0.962051
     45   0.669007   1.222601
     46   0.484937   1.436010
     47   0.865443   1.074931
     48   0.881964   1.064816
     49   0.887590   1.061436
     50   0.577370   1.316052
     51   0.985869   1.007141
     52   1.006854   0.996591
     53   1.510014   0.813785
     54   1.088749   0.958376
     55   0.700691   1.194639
     56   0.821823   1.103090
     57   0.482179   1.440111
     58   0.683378   1.209677
     59   1.640464   0.780758
     60   0.626890   1.263003
     61   0.666851   1.224576
     62   0.933434   1.035042
     63   0.678987   1.213582
     64   1.185301   0.918514
     65   1.396551   0.846197
     66   1.354104   0.859358
     67   0.755927   1.150165
     68   0.679533   1.213095
     69   0.505836   1.406031
     70   0.468059   1.461671
     71   0.685580   1.207733
     72   0.808485   1.112152
     73   0.661056   1.229932
     74   0.694057   1.200335
     75   0.728391   1.171704
     76   1.074638   0.964648
     77   0.729693   1.170658
     78   0.784663   1.128908
     79   0.830615   1.097236
     80   1.076946   0.963614
     81   0.552092   1.345843
     82   1.023156   0.988619
     83   0.556093   1.340992
     84   0.702883   1.192775
     85   0.781708   1.131039
     86   0.910071   1.048244
     87   0.651423   1.238991
     88   0.735039   1.166393
     89   0.934178   1.034630
     90   0.674056   1.218014
     91   1.098449   0.954135
     92   0.886619   1.062017
     93   0.451241   1.488661
     94   0.566989   1.328044
     95   1.260221   0.890793
     96   0.428249   1.528100
     97   0.713131   1.184174
     98   0.865394   1.074962
     99   0.486073   1.434331
    100   0.542055   1.358245
    101   0.728075   1.171958
    102   0.540781   1.359844
    103   0.670837   1.220932
    104   1.298976   0.877404
    105   0.627352   1.262538
    106   0.703338   1.192389
    107   0.758240   1.148409
    108   0.946148   1.028065
    109   0.957480   1.021963
    110   0.501959   1.411452
    111   0.701007   1.194370
    112   0.742136   1.160802
    113   0.655311   1.235311
    114   0.876459   1.068155
    115   0.776022   1.135175
    116   0.607551   1.282947
    117   0.765925   1.142633
    118   1.197256   0.913916
    119   0.736721   1.165061
    120   1.100499   0.953246
    121   0.793667   1.122486
    122   0.842931   1.089191
    123   0.611593   1.278700
    124   0.568734   1.326006
    125   0.601800   1.289062
    126   0.707572   1.188816
    127   0.563941   1.331629
    128   0.949989   1.025984
    129   0.487394   1.432385
    130   0.861864   1.077161
    131   0.419448   1.544049
    132   1.286635   0.881602
    133   0.811392   1.110157
    134   0.651379   1.239034
    135   0.859034   1.078934
    136   0.648673   1.241616
    137   0.688721   1.204976
    138   0.672176   1.219716
    139   0.674464   1.217644
    140   0.846583   1.086839
    141   0.822667   1.102524
    142   1.309455   0.873886
    143   0.723316   1.175806
    144   0.702434   1.193156
    145   0.637647   1.252304
    146   0.723825   1.175394
    147   1.127075   0.941941
    148   0.581274   1.311625
    149   0.957116   1.022157
    150   0.590961   1.300830
    151   1.221934   0.904641
    152   0.571895   1.322336
    153   0.653919   1.236625
    154   1.211802   0.908415
    155   0.985388   1.007387
    156   0.634267   1.255637
    157   0.610830   1.279499
    158   0.721824   1.177021
    159   0.569622   1.324971
    160   0.749053   1.155431
    161   0.506789   1.404709
    162   0.564291   1.331216
    163   0.801028   1.117316
    164   0.593108   1.298474
    165   0.916336   1.044654
    166   0.595758   1.295582
    167   1.053376   0.974335
    168   1.053381   0.974333
    169   0.964677   1.018144
    170   1.050474   0.975680
    171   0.596342   1.294948
    172   0.767345   1.141576
    173   0.595864   1.295467
    174   0.931526   1.036102
    175   0.513902   1.394954
    176   0.882041   1.064770
    177   1.196249   0.914301
    178   0.976440   1.011993
    179   0.994910   1.002555
    180   1.477186   0.822777
    181   1.183999   0.919019
    182   0.850120   1.084576
    183   0.881949   1.064825
    184   0.826716   1.099820
    185   0.975713   1.012369
    186   0.598998   1.292074
    187   0.629535   1.260347
    188   0.569804   1.324760
    189   0.699012   1.196073
    190   0.580640   1.312340
    191   1.028413   0.986089
    192   0.799379   1.118468
    193   0.584356   1.308162
    194   0.664569   1.226676
    195   0.833024   1.095649
    196   0.414152   1.553889
    197   0.997017   1.001495
    198   0.714336   1.183174
    199   0.628143   1.261742
    200   0.947394   1.027389
    201   0.743464   1.159765
    202   0.647851   1.242402
    203   0.518773   1.388390
    204   0.782435   1.130514
    205   0.796616   1.120406
    206   0.700179   1.195076
    207   0.558876   1.337650
    208   0.982860   1.008682
    209   0.687150   1.206352
    210   0.760520   1.146686
    211   0.845284   1.087674
    212   0.613099   1.277129
    213   0.777179   1.134330
    214   0.968352   1.016210
    215   0.772975   1.137411
    216   0.774445   1.136331
    217   0.781302   1.131333
    218   0.959886   1.020681
    219   1.490307   0.819147
    220   1.322505   0.869564
    221   0.744042   1.159315
    222   0.694079   1.200316
    223   0.904456   1.051493
    224   0.915440   1.045166
    225   0.719931   1.178568
    226   0.622301   1.267651
    227   0.545737   1.353656
    228   0.458029   1.477589
    229   0.734127   1.167117
    230   0.724839   1.174571
    231   1.064855   0.969069
    232   0.986555   1.006791
    233   0.739192   1.163111
    234   0.765897   1.142654
    235   1.028433   0.986080
    236   0.917974   1.043722
    237   0.860073   1.078282
    238   0.513713   1.395211
    239   0.932781   1.035405
    240   0.984338   1.007924
    241   1.241452   0.897501
    242   1.386838   0.849155
    243   0.769806   1.139750
    244   0.778789   1.133157
    245   0.789781   1.125244
    246   1.008071   0.995989
    247   0.538915   1.362197
    248   0.581914   1.310903
    249   0.619212   1.270809
    250   0.558486   1.338116
    251   0.804455   1.114934
    252   0.539467   1.361500
    253   0.657463   1.233287
    254   0.778478   1.133383
    255   0.555738   1.341421
    256   0.692762   1.201456
    257   0.890466   1.059720
    258   0.594995   1.296413
    259   0.578917   1.314292
    260   0.803985   1.115260
    261   0.602704   1.288096
    262   0.689147   1.204604
    263   1.102839   0.952235
    264   0.876942   1.067861
    265   0.644646   1.245488
    266   0.762302   1.145346
    267   0.460896   1.472985
    268   0.980278   1.010009
    269   0.657762   1.233008
    270   0.738199   1.163894
    271   0.739417   1.162935
    272   0.543175   1.356844
    273   1.037358   0.981828
    274   0.398934   1.583250
    275   0.753683   1.151875
    276   0.667596   1.223892
    277   1.464491   0.826336
    278   0.782704   1.130320
    279   0.709325   1.187346
    280   0.730719   1.169836
    281   0.699953   1.195269
    282   0.808509   1.112135
    283   0.735224   1.166246
    284   1.171840   0.923774
    285   0.656787   1.233922
    286   0.465606   1.465516
    287   1.109365   0.949430
    288   0.897936   1.055303
    289   0.483461   1.438200
    290   0.447212   1.495352
    291   1.517491   0.811777
    292   0.939333   1.031788
    293   0.672406   1.219507
    294   0.630203   1.259678
    295   0.657084   1.233643
    296   1.234022   0.900199
    297   0.800978   1.117351
    298   0.709925   1.186844
    299   0.508460   1.402400
    300   0.903711   1.051926
    301   0.738698   1.163500
    302   0.529574   1.374157
    303   0.534386   1.367957
    304   0.711196   1.185783
    305   0.705762   1.190339
    306   1.071172   0.966207
    307   0.460754   1.473212
    308   0.563300   1.332386
    309   0.544437   1.355271
    310   0.498664   1.416106
    311   0.950512   1.025702
    312   0.615523   1.274611
    313   0.456047   1.480796
    314   0.511212   1.398619
    315   0.586136   1.306174
    316   0.846573   1.086845
    317   0.000000   1.209037
    318   0.000000   1.241987
    319   0.000000   0.980910
    320   0.000000   0.998420
    321   0.000000   1.265331
    322   0.000000   1.174071
    323   0.000000   1.193336
    324   0.000000   1.428041
    325   0.000000   1.225199
    326   0.000000   1.269585
    327   0.000000   1.099425
    328   0.000000   1.206627
    329   0.000000   0.931301
    330   0.000000   1.044803
    331   0.000000   1.317749
    332   0.000000   1.182633
    333   0.000000   0.919810
    334   0.000000   1.383805
    335   0.000000   1.038427
    336   0.000000   1.004880
    337   0.000000   1.337824
    338   0.000000   1.126456
    339   0.000000   1.175343
    340   0.000000   1.556024
    341   0.000000   1.420709
    342   0.000000   1.195415
    343   0.000000   1.268247
    344   0.000000   1.329619
    345   0.000000   1.276519
    346   0.000000   1.027230
    347   0.000000   1.342904
    348   0.000000   1.253827
    349   0.000000   1.059296
    350   0.000000   1.436377
    351   0.000000   1.037421
    352   0.000000   1.047675
    353   0.000000   1.004343
    354   0.000000   1.118665
    355   0.000000   0.953423
    356   0.000000   1.188228
    357   0.000000   1.236671
    358   0.000000   1.094434
    359   0.000000   1.280134
    360   0.000000   1.275940
    361   0.000000   1.182833
    362   0.000000   0.910582
    363   0.000000   0.858882
    364   0.000000   1.266119
    365   0.000000   1.104019
    366   0.000000   1.186895
    367   0.000000   1.284955
    368   0.000000   0.861624
    369   0.000000   1.341623
    370   0.000000   1.500828
    371   0.000000   1.044376
    372   0.000000   1.414387
    373   0.000000   1.450612
    374   0.000000   1.380432
    375   0.000000   1.179238
    376   0.000000   1.322757
    377   0.000000   1.361329
    378   0.000000   1.206042
    379   0.000000   1.286350
    380   0.000000   1.143851
    381   0.000000   1.159088
    382   0.000000   1.189451
    383   0.000000   1.397349
    384   0.000000   0.920047
    385   0.000000   1.168924
    386   0.000000   1.220139
    387   0.000000   0.891752
    388   0.000000   0.979026
    389   0.000000   0.854381
    390   0.000000   1.001046
    391   0.000000   1.247917
    392   0.000000   1.279923
    393   0.000000   1.076420
    394   0.000000   1.201130
    395   0.000000   1.319404
    396   0.000000   1.316134
    397   0.000000   1.565435
    398   0.000000   1.482511
    399   0.000000   1.207128
    400   0.000000   1.283128
    401   0.000000   1.066282
    402   0.000000   1.012840
    403   0.000000   1.421631
    404   0.000000   1.059216
    405   0.000000   1.026076
    406   0.000000   1.088261
    407   0.000000   1.032179
    408   0.000000   1.048676
    409   0.000000   0.870711
    410   0.000000   1.318232
    411   0.000000   1.166135
    412   0.000000   1.334066
    413   0.000000   1.135619
    414   0.000000   1.562148
    415   0.000000   1.314686
    416   0.000000   0.875938
    417   0.000000   1.404851
    418   0.000000   1.268320
    419   0.000000   1.142160
    420   0.000000   0.880710
    421   0.000000   1.310810
    422   0.000000   1.271798
    423   0.000000   1.406246
    424   0.000000   1.128262
    425   0.000000   1.138269
    426   0.000000   1.431171
    427   0.000000   0.992233
    428   0.000000   1.384741
    429   0.000000   1.022891
    430   0.000000   1.254632
    431   0.000000   1.115459
    432   0.000000   1.451824
    433   0.000000   1.189517
    434   0.000000   1.309705
    435   0.000000   1.019396
    436   0.000000   1.425985
    437   0.000000   1.120808
    438   0.000000   1.230721
    439   0.000000   1.060449
    440   0.000000   1.534598
    441   0.000000   1.442233
    442   0.000000   1.086311
    443   0.000000   1.416658
    444   0.000000   1.156219
    445   0.000000   1.053683
    446   0.000000   1.403488
    447   0.000000   1.182800
    448   0.000000   1.331535
    449   0.000000   1.275226
    450   0.000000   1.094555
    451   0.000000   1.487519
    452   0.000000   1.277090
    453   0.000000   1.384448
    454   0.000000   1.080889
    455   0.000000   1.215218
    456   0.000000   1.364545
    457   0.000000   1.121740
    458   0.000000   1.016378
    459   0.000000   1.198619
    460   0.000000   1.107208
    461   0.000000   1.254355
    462   0.000000   1.145590
    463   0.000000   1.308956
    464   0.000000   0.903420
    465   0.000000   1.213599
    466   0.000000   1.048221
    467   0.000000   1.093954
    468   0.000000   1.091450
    469   0.000000   1.354266
    470   0.000000   1.095047
    471   0.000000   1.063394
    472   0.000000   1.180433
    473   0.000000   1.352358
    474   0.000000   1.180320
    475   0.000000   1.221023
    476   0.000000   0.958281
    477   0.000000   1.139921
    478   0.000000   1.254064
    479   0.000000   1.269616
    480   0.000000   0.955322
    481   0.000000   1.126034
    482   0.000000   1.232744
    483   0.000000   1.127525
    484   0.000000   1.012258
    485   0.000000   1.105626
    486   0.000000   1.207360
    487   0.000000   1.463627
    488   0.000000   1.202666
    489   0.000000   1.141336
    490   0.000000   1.070647
    491   0.000000   1.349734
    492   0.000000   1.498549
    493   0.000000   1.202646
    494   0.000000   1.177624
    495   0.000000   1.587669
    496   0.000000   1.421634
    497   0.000000   1.366069
    498   0.000000   0.914139
    499   0.000000   1.130436
    500   0.000000   1.164212
    501   0.000000   1.153468
    502   0.000000   1.437441
    503   0.000000   1.366891
    504   0.000000   1.037189
    505   0.000000   1.526662
    506   0.000000   1.219941
    507   0.000000   1.202360
    508   0.000000   1.213628
    509   0.000000   1.327779
    510   0.000000   1.282802
    511   0.000000   1.342547
    512   0.000000   1.112796
    513   0.000000   0.989033
    514   0.000000   1.096948
    515   0.000000   1.095371
    516   0.000000   1.191714
    517   0.000000   1.060094
    518   0.000000   1.239381
    519   0.000000   1.216942
    520   0.000000   1.201280
    521   0.000000   1.299871
    522   0.000000   0.933369
    523   0.000000   1.244825
    524   0.000000   1.304047
    525   0.000000   1.213853
    526   0.000000   1.189954
    527   0.000000   1.095383
    528   0.000000   1.117151
    529   0.000000   0.969608
    530   0.000000   1.390838
    531   0.000000   1.033298
    532   0.000000   1.045484
    533   0.000000   1.306019
    534   0.000000   1.059144
    535   0.000000   1.236190
    536   0.000000   1.231365
    537   0.000000   1.492314
    538   0.000000   0.994737
    539   0.000000   1.197987
    540   0.000000   1.317416
    541   0.000000   1.183348
    542   0.000000   1.251254
    543   0.000000   1.367453
    544   0.000000   1.243835