ITEM: TIMESTEP
500
ITEM: NUMBER OF ATOMS
60
ITEM: BOX BOUNDS pp pp pp
-4.8316432133345515e+00 4.8316432133345515e+00
-4.8308519553286624e+00 4.8308519553286624e+00
-1.0000000000000001e-01 1.0000000000000001e-01
ITEM: ATOMS id type xs ys zs
51 1 0.0512914 0.0472669 0.49944
76 1 0.112084 0.994582 0.499881
12 1 0.229304 0.986184 0.500524
62 1 0.266101 0.0881539 0.499681
68 1 0.48807 0.0641505 0.500542
39 1 0.587654 0.0495598 0.498892
27 1 0.744984 0.0568421 0.500394
65 1 0.65781 0.0854144 0.499007
24 1 0.959388 0.0241183 0.499563
11 1 0.160573 0.125122 0.50018
54 1 0.260423 0.195217 0.501346
2 1 0.377627 0.120601 0.500042
19 1 0.526991 0.173487 0.499838
5 1 0.677188 0.183313 0.500258
6 1 0.17567 0.266686 0.50079
56 1 0.299588 0.277267 0.500448
52 1 0.262391 0.362894 0.499235
17 1 0.423089 0.274982 0.499362
13 1 0.0412525 0.343644 0.499883
34 1 0.167651 0.406529 0.500271
64 1 0.336583 0.354232 0.50065
25 1 0.797302 0.459054 0.500526
70 1 0.892588 0.447226 0.500493
37 1 0.0648575 0.487083 0.500799
31 1 0.171745 0.534443 0.499776
15 1 0.313978 0.467581 0.500206
40 1 0.571535 0.534125 0.49899
23 1 0.681536 0.48728 0.499601
42 1 0.962744 0.442137 0.500842
10 1 0.0481745 0.615587 0.50055
33 1 0.277141 0.603697 0.499105
7 1 0.42493 0.574742 0.499953
69 1 0.413019 0.690998 0.500026
61 1 0.662874 0.574561 0.499564
14 1 0.777961 0.592239 0.499378
8 1 0.910942 0.550875 0.500266
67 1 0.233383 0.689789 0.498668
30 1 0.333742 0.709312 0.498689
45 1 0.544101 0.629898 0.499322
75 1 0.600929 0.7883 0.500026
4 1 0.642826 0.683281 0.501225
26 1 0.765289 0.72945 0.500439
36 1 0.999843 0.819789 0.500023
48 1 0.221259 0.774519 0.498809
73 1 0.294712 0.792126 0.500369
79 1 0.384967 0.785109 0.500395
1 1 0.491041 0.773413 0.499492
57 1 0.581417 0.863044 0.499924
29 1 0.682041 0.833081 0.50099
3 1 0.798982 0.916095 0.499041
21 1 0.873987 0.794794 0.499521
32 1 0.0328417 0.938255 0.499517
60 1 0.138671 0.913782 0.500999
50 1 0.2239 0.864662 0.500816
20 1 0.346125 0.897174 0.499224
16 1 0.485549 0.94729 0.500444
35 1 0.66526 0.954634 0.50017
59 1 0.854514 0.0398384 0.501337
80 1 0.888139 0.976763 0.500866
49 1 0.920193 0.897423 0.501137
ITEM: TIMESTEP
750
ITEM: NUMBER OF ATOMS
60
ITEM: BOX BOUNDS pp pp pp
-4.8304351901850646e+00 4.8304351901850646e+00
-4.8298520766976534e+00 4.8298520766976534e+00
-1.0000000000000001e-01 1.0000000000000001e-01
ITEM: ATOMS id type xs ys zs
51 1 0.0514179 0.0475277 0.499974
76 1 0.11277 0.995673 0.500955
12 1 0.230191 0.986754 0.500372
62 1 0.266852 0.0890025 0.50164
68 1 0.488179 0.0647564 0.499519
39 1 0.587768 0.0496823 0.49901
27 1 0.744533 0.0571514 0.49926
65 1 0.657809 0.0861737 0.499391
24 1 0.959645 0.0243844 0.499386
11 1 0.160576 0.12534 0.500098
54 1 0.260502 0.195681 0.50101
2 1 0.378154 0.120501 0.500849
19 1 0.527055 0.173372 0.498761
5 1 0.676665 0.183657 0.501055
6 1 0.176123 0.267031 0.501135
56 1 0.300296 0.278187 0.500148
52 1 0.262682 0.36368 0.499163
17 1 0.423718 0.275135 0.500083
13 1 0.0407851 0.343354 0.501203
34 1 0.166392 0.405781 0.500765
64 1 0.337085 0.354659 0.499617
25 1 0.797205 0.459071 0.499994
70 1 0.892645 0.447895 0.501375
37 1 0.0644866 0.487357 0.501276
31 1 0.17218 0.533383 0.499915
15 1 0.313925 0.467984 0.500674
40 1 0.570982 0.534454 0.496391
23 1 0.681709 0.486647 0.500391
42 1 0.962443 0.442303 0.498669
10 1 0.049099 0.615655 0.500543
33 1 0.277183 0.604186 0.499222
7 1 0.42422 0.576331 0.50094
69 1 0.412026 0.692715 0.50119
61 1 0.66297 0.574037 0.499741
14 1 0.777529 0.591674 0.499162
8 1 0.911445 0.551896 0.500699
67 1 0.232628 0.689715 0.499216
30 1 0.332933 0.710058 0.497645
45 1 0.544191 0.629564 0.498036
75 1 0.601682 0.788296 0.499452
4 1 0.642891 0.683025 0.501295
26 1 0.765096 0.729573 0.501844
36 1 1.00016 0.819958 0.501895
48 1 0.220743 0.774435 0.497526
73 1 0.294241 0.792778 0.50231
79 1 0.386059 0.784624 0.500085
1 1 0.492057 0.772769 0.499554
57 1 0.581557 0.862939 0.500584
29 1 0.682607 0.8338 0.501761
3 1 0.799146 0.916418 0.498044
21 1 0.87417 0.795392 0.499514
32 1 0.0337656 0.93848 0.49873
60 1 0.139529 0.914789 0.502475
50 1 0.223906 0.864583 0.502371
20 1 0.347298 0.896706 0.499136
16 1 0.486081 0.946952 0.501162
35 1 0.665483 0.954972 0.499522
59 1 0.854202 0.0398254 0.500866
80 1 0.888508 0.977162 0.500017
49 1 0.920423 0.897821 0.500204
ITEM: TIMESTEP
1000
ITEM: NUMBER OF ATOMS
60
ITEM: BOX BOUNDS pp pp pp
-4.8292271670355786e+00 4.8292271670355786e+00
-4.8323782716944770e+00 4.8323782716944770e+00
-1.0000000000000001e-01 1.0000000000000001e-01
ITEM: ATOMS id type xs ys zs
51 1 0.0519172 0.047741 0.501605
76 1 0.112775 0.995031 0.500461
12 1 0.230635 0.986491 0.50043
62 1 0.266832 0.088857 0.500065
68 1 0.489263 0.0655144 0.499491
39 1 0.588569 0.0501597 0.499887
27 1 0.745248 0.0571486 0.500106
65 1 0.658184 0.0859434 0.501008
24 1 0.960017 0.0252729 0.500399
11 1 0.160362 0.125663 0.499304
54 1 0.261122 0.195599 0.5018
2 1 0.37811 0.122486 0.50005
19 1 0.528525 0.174274 0.498218
5 1 0.678366 0.18305 0.502141
6 1 0.176791 0.266801 0.500865
56 1 0.300984 0.277847 0.501271
52 1 0.263148 0.363288 0.498387
17 1 0.425127 0.276627 0.499373
13 1 0.040948 0.342804 0.499579
34 1 0.167887 0.405797 0.501294
64 1 0.337645 0.354622 0.50016
25 1 0.797227 0.459233 0.500765
70 1 0.892938 0.446495 0.500211
37 1 0.0648986 0.486382 0.503391
31 1 0.17184 0.533172 0.500141
15 1 0.315059 0.467911 0.499821
40 1 0.571784 0.533239 0.49491
23 1 0.68211 0.487056 0.499432
42 1 0.963073 0.441646 0.498944
10 1 0.048573 0.615299 0.499259
33 1 0.276837 0.604599 0.498412
7 1 0.42554 0.577196 0.500905
69 1 0.411925 0.693427 0.501276
61 1 0.662758 0.574603 0.498697
14 1 0.777563 0.592461 0.500478
8 1 0.911402 0.550813 0.50201
67 1 0.232792 0.689704 0.498263
30 1 0.332205 0.710497 0.499621
45 1 0.545802 0.629571 0.496923
75 1 0.601451 0.789079 0.499249
4 1 0.643114 0.68363 0.501729
26 1 0.765955 0.729469 0.502696
36 1 1.00132 0.819943 0.501269
48 1 0.220405 0.774191 0.499451
73 1 0.293636 0.793394 0.5015
79 1 0.385526 0.784869 0.500987
1 1 0.491406 0.774217 0.500971
57 1 0.581553 0.863644 0.500119
29 1 0.682155 0.833394 0.502723
3 1 0.79963 0.91648 0.497842
21 1 0.874403 0.795534 0.498799
32 1 0.0337794 0.938735 0.500917
60 1 0.139859 0.914403 0.501768
50 1 0.224225 0.8642 0.504308
20 1 0.34704 0.897007 0.49909
16 1 0.485674 0.948781 0.502651
35 1 0.666068 0.955199 0.501458
59 1 0.854427 0.0388035 0.499874
80 1 0.889239 0.976538 0.500322
49 1 0.921619 0.897869 0.500668
ITEM: TIMESTEP
1250
ITEM: NUMBER OF ATOMS
60
ITEM: BOX BOUNDS pp pp pp
-4.8280191438860918e+00 4.8280191438860918e+00
-4.8278730496422160e+00 4.8278730496422160e+00
-1.0000000000000001e-01 1.0000000000000001e-01
ITEM: ATOMS id type xs ys zs
51 1 0.0519918 0.0467618 0.501323
76 1 0.113072 0.994468 0.499616
12 1 0.230506 0.9861 0.499756
62 1 0.267951 0.0873713 0.502236
68 1 0.489521 0.0655889 0.497527
39 1 0.588724 0.0500455 0.49992
27 1 0.74492 0.0562503 0.499455
65 1 0.658092 0.0864379 0.500818
24 1 0.959942 0.0234931 0.498898
11 1 0.161454 0.124925 0.499415
54 1 0.261211 0.1954 0.500645
2 1 0.3783 0.122049 0.499552
19 1 0.528912 0.175097 0.49795
5 1 0.679515 0.183586 0.502916
6 1 0.176736 0.26669 0.501177
56 1 0.301372 0.277813 0.500828
52 1 0.263062 0.363338 0.499789
17 1 0.424792 0.27672 0.501236
13 1 0.0416534 0.343238 0.496913
34 1 0.167593 0.406417 0.500701
64 1 0.337485 0.354845 0.497326
25 1 0.797333 0.459104 0.50103
70 1 0.893204 0.447807 0.501058
37 1 0.0649148 0.48704 0.502905
31 1 0.172221 0.534073 0.502519
15 1 0.314744 0.468038 0.49989
40 1 0.571447 0.533351 0.494881
23 1 0.682093 0.486865 0.499752
42 1 0.963159 0.442057 0.500066
10 1 0.0486169 0.615731 0.500339
33 1 0.277864 0.603936 0.498684
7 1 0.424615 0.578158 0.499715
69 1 0.411647 0.694112 0.502433
61 1 0.662485 0.574299 0.499286
14 1 0.77786 0.591761 0.499365
8 1 0.91143 0.551399 0.502039
67 1 0.23301 0.689288 0.498881
30 1 0.332562 0.710166 0.499478
45 1 0.545508 0.629204 0.496201
75 1 0.601141 0.788909 0.500235
4 1 0.64333 0.683425 0.501927
26 1 0.766207 0.72906 0.502617
36 1 1.00057 0.818862 0.501921
48 1 0.220129 0.773822 0.500246
73 1 0.294172 0.79307 0.503608
79 1 0.385026 0.785312 0.499838
1 1 0.490633 0.775424 0.501793
57 1 0.582019 0.863623 0.501485
29 1 0.682659 0.833103 0.501716
3 1 0.799895 0.916397 0.496462
21 1 0.875018 0.794696 0.497686
32 1 0.0336589 0.937737 0.50095
60 1 0.140164 0.913321 0.502581
50 1 0.224573 0.864114 0.504044
20 1 0.34741 0.897373 0.500127
16 1 0.486646 0.948056 0.50279
35 1 0.665721 0.954546 0.500842
59 1 0.854187 0.038604 0.500629
80 1 0.889184 0.975961 0.500855
49 1 0.921028 0.897213 0.500033
ITEM: TIMESTEP
1500
ITEM: NUMBER OF ATOMS
60
ITEM: BOX BOUNDS pp pp pp
-4.8268111207366049e+00 4.8268111207366049e+00
-4.8332481868270563e+00 4.8332481868270563e+00
-1.0000000000000001e-01 1.0000000000000001e-01
ITEM: ATOMS id type xs ys zs
51 1 0.0522276 0.0468799 0.50278
76 1 0.112703 0.994279 0.498924
12 1 0.230269 0.986182 0.498693
62 1 0.267936 0.0878131 0.501587
68 1 0.490384 0.0656133 0.498254
39 1 0.588865 0.0498041 0.499464
27 1 0.74491 0.057252 0.499343
65 1 0.657951 0.0868994 0.502075
24 1 0.959947 0.0239152 0.499849
11 1 0.161868 0.124915 0.499352
54 1 0.261641 0.195629 0.499922
2 1 0.378784 0.121475 0.499077
19 1 0.529011 0.174213 0.498533
5 1 0.678725 0.184167 0.50291
6 1 0.177011 0.266815 0.500505
56 1 0.301394 0.278211 0.501132
52 1 0.263032 0.363927 0.500198
17 1 0.424775 0.276435 0.499911
13 1 0.0411045 0.343749 0.496938
34 1 0.166841 0.406561 0.500154
64 1 0.33758 0.355243 0.49686
25 1 0.796699 0.458981 0.501848
70 1 0.892524 0.447745 0.501483
37 1 0.0643373 0.486952 0.503887
31 1 0.171264 0.533545 0.502033
15 1 0.314746 0.468163 0.498227
40 1 0.57066 0.534895 0.494205
23 1 0.680924 0.48665 0.499537
42 1 0.961899 0.441748 0.500126
10 1 0.0475045 0.615455 0.501997
33 1 0.276003 0.603332 0.498731
7 1 0.42532 0.577315 0.500212
69 1 0.412732 0.693213 0.502485
61 1 0.66249 0.574196 0.501172
14 1 0.777163 0.591998 0.498595
8 1 0.910323 0.551251 0.501981
67 1 0.232102 0.689365 0.498706
30 1 0.332763 0.709087 0.499485
45 1 0.545461 0.630546 0.495876
75 1 0.601358 0.789064 0.49815
4 1 0.642842 0.683615 0.503064
26 1 0.765047 0.729888 0.502054
36 1 1.00062 0.818977 0.503254
48 1 0.221261 0.773974 0.499519
73 1 0.29476 0.792239 0.505112
79 1 0.385014 0.784739 0.499528
1 1 0.491807 0.774242 0.502617
57 1 0.581736 0.864154 0.4996
29 1 0.68272 0.833794 0.500174
3 1 0.799992 0.915611 0.494952
21 1 0.874514 0.793895 0.496785
32 1 0.033424 0.938057 0.502536
60 1 0.139995 0.913214 0.502253
50 1 0.224785 0.864313 0.50514
20 1 0.347215 0.896471 0.499192
16 1 0.486065 0.948599 0.502942
35 1 0.666341 0.954907 0.501304
59 1 0.854475 0.0378519 0.501831
80 1 0.889596 0.975602 0.502071
49 1 0.920808 0.896388 0.498375
ITEM: TIMESTEP
1750
ITEM: NUMBER OF ATOMS
60
ITEM: BOX BOUNDS pp pp pp
-4.8256030975871189e+00 4.8256030975871189e+00
-4.8294254116160502e+00 4.8294254116160502e+00
-1.0000000000000001e-01 1.0000000000000001e-01
ITEM: ATOMS id type xs ys zs
51 1 0.0519253 0.0471 0.503326
76 1 0.112447 0.994749 0.499223
12 1 0.230224 0.986392 0.498588
62 1 0.268022 0.0883305 0.50186
68 1 0.489509 0.0655837 0.498694
39 1 0.589052 0.049633 0.499654
27 1 0.74477 0.0565412 0.500268
65 1 0.658426 0.0864839 0.50159
24 1 0.959801 0.0241888 0.500319
11 1 0.161447 0.124691 0.497779
54 1 0.260975 0.195283 0.501766
2 1 0.379415 0.1206 0.499953
19 1 0.529131 0.174015 0.499026
5 1 0.679309 0.183855 0.502924
6 1 0.176118 0.266069 0.499998
56 1 0.30088 0.27761 0.496941
52 1 0.262349 0.362934 0.499147
17 1 0.423868 0.275139 0.500338
13 1 0.0412479 0.343163 0.498239
34 1 0.16754 0.405674 0.499865
64 1 0.336967 0.354782 0.496276
25 1 0.796115 0.458974 0.501349
70 1 0.891712 0.446323 0.501606
37 1 0.0638316 0.486124 0.504465
31 1 0.170903 0.533108 0.501684
15 1 0.314341 0.467663 0.499036
40 1 0.570753 0.536051 0.496114
23 1 0.680456 0.487741 0.500862
42 1 0.961713 0.441223 0.501625
10 1 0.0480268 0.615401 0.501871
33 1 0.276222 0.60405 0.50014
7 1 0.424702 0.576438 0.501142
69 1 0.413219 0.6926 0.503408
61 1 0.662338 0.575247 0.500081
14 1 0.77721 0.591943 0.499082
8 1 0.910742 0.550465 0.501336
67 1 0.232099 0.690233 0.498148
30 1 0.333258 0.708879 0.500952
45 1 0.543692 0.631404 0.493902
75 1 0.600688 0.789819 0.500148
4 1 0.642522 0.684319 0.502047
26 1 0.764334 0.7299 0.504107
36 1 1.00104 0.818549 0.503631
48 1 0.220905 0.774788 0.500522
73 1 0.29464 0.791888 0.503611
79 1 0.384682 0.784735 0.50062
1 1 0.490621 0.775188 0.505124
57 1 0.581114 0.864716 0.500332
29 1 0.68184 0.833478 0.500122
3 1 0.799894 0.915287 0.495183
21 1 0.875167 0.793212 0.497161
32 1 0.0333993 0.938052 0.501219
60 1 0.139445 0.914044 0.503144
50 1 0.224508 0.864536 0.505736
20 1 0.346798 0.896496 0.498628
16 1 0.485544 0.948346 0.504027
35 1 0.66601 0.954486 0.502158
59 1 0.854142 0.038166 0.504153
80 1 0.889046 0.975632 0.503358
49 1 0.921147 0.896448 0.498457
ITEM: TIMESTEP
2000
ITEM: NUMBER OF ATOMS
60
ITEM: BOX BOUNDS pp pp pp
-4.8243950744376320e+00 4.8243950744376320e+00
-4.8308673680703755e+00 4.8308673680703755e+00
-1.0000000000000001e-01 1.0000000000000001e-01
ITEM: ATOMS id type xs ys zs
51 1 0.0519802 0.0472471 0.50204
76 1 0.112342 0.994714 0.500898
12 1 0.230397 0.986301 0.499171
62 1 0.268024 0.0882649 0.502538
68 1 0.49014 0.0664807 0.497432
39 1 0.589274 0.0502318 0.500068
27 1 0.744615 0.0569055 0.500691
65 1 0.657995 0.0883895 0.502124
24 1 0.959795 0.0242795 0.501305
11 1 0.161504 0.125054 0.49915
54 1 0.261426 0.194807 0.501404
2 1 0.379232 0.120405 0.501862
19 1 0.529303 0.174948 0.496943
5 1 0.680148 0.185281 0.502079
6 1 0.176499 0.266267 0.502385
56 1 0.300707 0.277139 0.497816
52 1 0.262723 0.362952 0.497695
17 1 0.424392 0.275789 0.498545
13 1 0.0405624 0.341855 0.497037
34 1 0.166635 0.404757 0.499145
64 1 0.336918 0.354172 0.496984
25 1 0.796041 0.459559 0.501115
70 1 0.89186 0.445798 0.500193
37 1 0.0645664 0.486001 0.504613
31 1 0.17115 0.532192 0.500774
15 1 0.313859 0.467626 0.499014
40 1 0.569681 0.536705 0.496114
23 1 0.680174 0.487697 0.500415
42 1 0.962103 0.440905 0.501337
10 1 0.0484707 0.615184 0.50281
33 1 0.276169 0.603737 0.499826
7 1 0.424546 0.575921 0.500359
69 1 0.413124 0.692524 0.505692
61 1 0.662243 0.575175 0.500694
14 1 0.777496 0.592649 0.498391
8 1 0.911408 0.549417 0.500755
67 1 0.232541 0.689789 0.49655
30 1 0.333538 0.708672 0.500247
45 1 0.543314 0.632831 0.492606
75 1 0.60061 0.7899 0.501401
4 1 0.642411 0.684268 0.503192
26 1 0.764836 0.729868 0.502444
36 1 1.00099 0.819363 0.501795
48 1 0.221938 0.77478 0.499683
73 1 0.29604 0.792218 0.50375
79 1 0.385513 0.784445 0.500638
1 1 0.491711 0.774087 0.505579
57 1 0.580927 0.864557 0.501532
29 1 0.682256 0.833622 0.500915
3 1 0.79953 0.915606 0.495003
21 1 0.874995 0.793714 0.496202
32 1 0.0331497 0.938183 0.502001
60 1 0.140058 0.914405 0.500781
50 1 0.224138 0.864863 0.504598
20 1 0.347721 0.896973 0.498157
16 1 0.485699 0.949515 0.501915
35 1 0.665686 0.955025 0.50243
59 1 0.854346 0.0386646 0.502612
80 1 0.888866 0.975851 0.505054
49 1 0.921121 0.896588 0.499828
ITEM: TIMESTEP
2250
ITEM: NUMBER OF ATOMS
60
ITEM: BOX BOUNDS pp pp pp
-4.8231870512881461e+00 4.8231870512881461e+00
-4.8399269082133349e+00 4.8399269082133349e+00
-1.0000000000000001e-01 1.0000000000000001e-01
ITEM: ATOMS id type xs ys zs
51 1 0.0518927 0.0474697 0.500652
76 1 0.112737 0.995186 0.500634
12 1 0.230352 0.986149 0.500653
62 1 0.267811 0.0873872 0.503385
68 1 0.490204 0.0663352 0.496981
39 1 0.589397 0.0508462 0.500059
27 1 0.744751 0.0567169 0.499909
65 1 0.658579 0.0880409 0.502632
24 1 0.959676 0.0243812 0.501395
11 1 0.161572 0.124458 0.497824
54 1 0.260751 0.195179 0.501976
2 1 0.379673 0.120413 0.498683
19 1 0.529594 0.174903 0.497736
5 1 0.680797 0.184615 0.501017
6 1 0.176063 0.265989 0.503879
56 1 0.299798 0.277846 0.497364
52 1 0.262045 0.362605 0.498953
17 1 0.423939 0.275201 0.499918
13 1 0.0403239 0.342818 0.497436
34 1 0.166114 0.405067 0.50043
64 1 0.336776 0.354388 0.496842
25 1 0.7956 0.459935 0.501566
70 1 0.89127 0.446898 0.49957
37 1 0.0637063 0.486127 0.504149
31 1 0.171438 0.532461 0.499696
15 1 0.313758 0.466943 0.49935
40 1 0.569648 0.538158 0.495505
23 1 0.679421 0.487881 0.499523
42 1 0.961296 0.441254 0.502616
10 1 0.0477646 0.61497 0.503071
33 1 0.277157 0.603371 0.498274
7 1 0.423831 0.576029 0.500519
69 1 0.413955 0.691721 0.506294
61 1 0.662114 0.57512 0.499402
14 1 0.777057 0.592471 0.499517
8 1 0.91031 0.550263 0.500798
67 1 0.233742 0.689382 0.495567
30 1 0.334442 0.707529 0.499328
45 1 0.542774 0.633158 0.493954
75 1 0.600596 0.789867 0.500817
4 1 0.642872 0.684137 0.502677
26 1 0.764929 0.72942 0.502582
36 1 1.00068 0.819858 0.501807
48 1 0.222388 0.774445 0.498177
73 1 0.296544 0.790739 0.502942
79 1 0.384146 0.784572 0.498271
1 1 0.490816 0.775408 0.503215
57 1 0.581358 0.865029 0.503299
29 1 0.682496 0.834036 0.500645
3 1 0.799205 0.91684 0.495567
21 1 0.873821 0.795564 0.49523
32 1 0.0334477 0.938474 0.500274
60 1 0.13923 0.914437 0.499366
50 1 0.223728 0.864311 0.506134
20 1 0.346936 0.896403 0.501522
16 1 0.486133 0.949284 0.503891
35 1 0.665525 0.954904 0.502617
59 1 0.854319 0.0388359 0.501696
80 1 0.88882 0.976446 0.503837
49 1 0.921033 0.897501 0.498702
ITEM: TIMESTEP
2500
ITEM: NUMBER OF ATOMS
60
ITEM: BOX BOUNDS pp pp pp
-4.8219790281386592e+00 4.8219790281386592e+00
-4.8284063560949964e+00 4.8284063560949964e+00
-1.0000000000000001e-01 1.0000000000000001e-01
ITEM: ATOMS id type xs ys zs
51 1 0.05151 0.0472571 0.49981
76 1 0.113116 0.995623 0.500308
12 1 0.231026 0.986249 0.498924
62 1 0.268409 0.0884757 0.504245
68 1 0.489267 0.0659635 0.496543
39 1 0.588415 0.0502235 0.500208
27 1 0.744322 0.0559318 0.499072
65 1 0.658123 0.0870546 0.502817
24 1 0.959572 0.0243025 0.500413
11 1 0.161622 0.123535 0.496741
54 1 0.260834 0.194457 0.501927
2 1 0.379925 0.120016 0.498964
19 1 0.528561 0.17488 0.496376
5 1 0.679215 0.184504 0.501521
6 1 0.176224 0.265871 0.503066
56 1 0.300479 0.277119 0.498941
52 1 0.262053 0.362556 0.49746
17 1 0.424272 0.275283 0.500949
13 1 0.0408611 0.343022 0.498217
34 1 0.166539 0.405493 0.499
64 1 0.336769 0.354438 0.496198
25 1 0.795023 0.458935 0.501447
70 1 0.89085 0.446783 0.498673
37 1 0.0639 0.486819 0.503566
31 1 0.171325 0.533301 0.500475
15 1 0.313583 0.46723 0.49932
40 1 0.569604 0.537022 0.494189
23 1 0.679134 0.487567 0.501478
42 1 0.961219 0.441373 0.500387
10 1 0.0475253 0.615213 0.503525
33 1 0.277256 0.602751 0.498482
7 1 0.424149 0.575724 0.499527
69 1 0.414327 0.691851 0.506816
61 1 0.661637 0.575162 0.499849
14 1 0.776732 0.591628 0.497168
8 1 0.910362 0.550078 0.499771
67 1 0.233595 0.689068 0.496467
30 1 0.334682 0.707497 0.500588
45 1 0.542953 0.633003 0.494661
75 1 0.600816 0.78942 0.501858
4 1 0.641972 0.684643 0.501875
26 1 0.765565 0.728859 0.503357
36 1 1.00025 0.819461 0.499879
48 1 0.222776 0.774085 0.498941
73 1 0.296852 0.79062 0.502621
79 1 0.384643 0.783807 0.499971
1 1 0.490834 0.775091 0.503284
57 1 0.581453 0.86455 0.502054
29 1 0.682141 0.83345 0.501499
3 1 0.798722 0.916294 0.495254
21 1 0.873669 0.795024 0.493033
32 1 0.0341231 0.938655 0.499441
60 1 0.140114 0.914885 0.501197
50 1 0.224189 0.864552 0.506908
20 1 0.347183 0.896579 0.499038
16 1 0.48576 0.948592 0.505292
35 1 0.66425 0.954578 0.504085
59 1 0.854409 0.0392159 0.502132
80 1 0.889022 0.976303 0.504526
49 1 0.920134 0.897262 0.498263
ITEM: TIMESTEP
2750
ITEM: NUMBER OF ATOMS
60
ITEM: BOX BOUNDS pp pp pp
-4.8207710049891723e+00 4.8207710049891723e+00
-4.8399328897551177e+00 4.8399328897551177e+00
-1.0000000000000001e-01 1.0000000000000001e-01
ITEM: ATOMS id type xs ys zs
51 1 0.0521537 0.0468287 0.50216
76 1 0.113184 0.994649 0.500664
12 1 0.230598 0.986082 0.500117
62 1 0.268083 0.0878662 0.502916
68 1 0.489583 0.06495 0.497685
39 1 0.588564 0.049587 0.499752
27 1 0.743233 0.0560357 0.497628
65 1 0.65716 0.0879128 0.502735
24 1 0.959701 0.0241091 0.499275
11 1 0.162047 0.123676 0.497766
54 1 0.261272 0.194893 0.502459
2 1 0.379376 0.119394 0.498059
19 1 0.528942 0.174214 0.498145
5 1 0.679432 0.184657 0.501441
6 1 0.175945 0.265687 0.503555
56 1 0.300065 0.277838 0.497573
52 1 0.261944 0.362767 0.494563
17 1 0.423671 0.274511 0.499813
13 1 0.0400081 0.342152 0.498601
34 1 0.166712 0.405 0.498612
64 1 0.336896 0.354568 0.497019
25 1 0.795531 0.458891 0.501538
70 1 0.891547 0.446652 0.498957
37 1 0.0639739 0.485948 0.50426
31 1 0.171337 0.532454 0.502484
15 1 0.313928 0.467066 0.499686
40 1 0.569813 0.537164 0.494512
23 1 0.679852 0.487815 0.502309
42 1 0.961354 0.440807 0.501524
10 1 0.0480652 0.614685 0.503019
33 1 0.27653 0.602962 0.498516
7 1 0.424437 0.576186 0.501022
69 1 0.413668 0.692238 0.506337
61 1 0.661883 0.57565 0.497896
14 1 0.777212 0.59164 0.498715
8 1 0.910554 0.549735 0.501017
67 1 0.233042 0.689023 0.498519
30 1 0.333558 0.70765 0.498432
45 1 0.543149 0.632704 0.495048
75 1 0.59949 0.789098 0.502002
4 1 0.642505 0.684102 0.502979
26 1 0.765125 0.72926 0.503759
36 1 0.99966 0.819722 0.499652
48 1 0.221655 0.773727 0.501145
73 1 0.295804 0.79097 0.503612
79 1 0.384277 0.783631 0.501198
1 1 0.490465 0.775399 0.50422
57 1 0.58093 0.864141 0.504981
29 1 0.681395 0.833053 0.499652
3 1 0.798359 0.916779 0.494875
21 1 0.87336 0.795762 0.492637
32 1 0.0335343 0.93835 0.500858
60 1 0.140201 0.914045 0.501014
50 1 0.224195 0.863963 0.505608
20 1 0.347185 0.895578 0.499041
16 1 0.485313 0.948092 0.503992
35 1 0.664092 0.954091 0.504236
59 1 0.853873 0.0398432 0.502627
80 1 0.887964 0.977217 0.504255
49 1 0.920056 0.898197 0.497217
ITEM: TIMESTEP
3000
ITEM: NUMBER OF ATOMS
60
ITEM: BOX BOUNDS pp pp pp
-4.8195629818396863e+00 4.8195629818396863e+00
-4.8396483999228535e+00 4.8396483999228535e+00
-1.0000000000000001e-01 1.0000000000000001e-01
ITEM: ATOMS id type xs ys zs
51 1 0.0521527 0.0462918 0.503213
76 1 0.112597 0.993733 0.499268
12 1 0.230488 0.984733 0.499448
62 1 0.267894 0.0865682 0.50411
68 1 0.488657 0.0653987 0.497268
39 1 0.588189 0.0492242 0.497424
27 1 0.744078 0.0565752 0.497689
65 1 0.657627 0.0868916 0.50122
24 1 0.959909 0.0240058 0.499521
11 1 0.161466 0.12428 0.496877
54 1 0.260726 0.195556 0.500469
2 1 0.378722 0.120017 0.498453
19 1 0.52877 0.173317 0.496409
5 1 0.678507 0.183991 0.503557
6 1 0.175521 0.265801 0.504181
56 1 0.300283 0.277619 0.497944
52 1 0.262442 0.362483 0.495171
17 1 0.424057 0.27387 0.497342
13 1 0.039885 0.342689 0.497342
34 1 0.167107 0.405168 0.498719
64 1 0.337551 0.353805 0.496022
25 1 0.794645 0.458915 0.503136
70 1 0.890585 0.445803 0.500747
37 1 0.0634274 0.485217 0.504701
31 1 0.170771 0.532265 0.502602
15 1 0.312808 0.466803 0.499942
40 1 0.569376 0.537374 0.493471
23 1 0.678916 0.487992 0.500649
42 1 0.96096 0.440851 0.500395
10 1 0.0466892 0.614109 0.50315
33 1 0.276236 0.602953 0.496171
7 1 0.424527 0.575176 0.501258
69 1 0.412896 0.691541 0.507258
61 1 0.661458 0.575714 0.499508
14 1 0.77649 0.59222 0.496292
8 1 0.909545 0.549096 0.499971
67 1 0.232458 0.688552 0.497363
30 1 0.333207 0.707969 0.497352
45 1 0.542348 0.632869 0.49572
75 1 0.59995 0.789832 0.503007
4 1 0.641487 0.684413 0.505398
26 1 0.764554 0.72982 0.50385
36 1 0.999257 0.819382 0.500381
48 1 0.221679 0.773176 0.503238
73 1 0.295296 0.790914 0.502201
79 1 0.383346 0.784385 0.500735
1 1 0.489964 0.774754 0.504534
57 1 0.580486 0.864282 0.50572
29 1 0.681522 0.83384 0.498892
3 1 0.799141 0.917325 0.492615
21 1 0.872958 0.796425 0.491455
32 1 0.0327614 0.937649 0.498099
60 1 0.13905 0.912945 0.501315
50 1 0.223582 0.86293 0.505627
20 1 0.346259 0.896096 0.498929
16 1 0.484521 0.948545 0.503575
35 1 0.664785 0.954246 0.502832
59 1 0.854444 0.0399074 0.502991
80 1 0.888598 0.97692 0.504978
49 1 0.920793 0.898077 0.4974
ITEM: TIMESTEP
3250
ITEM: NUMBER OF ATOMS
60
ITEM: BOX BOUNDS pp pp pp
-4.8183549586901995e+00 4.8183549586901995e+00
-4.8451280339238272e+00 4.8451280339238272e+00
-1.0000000000000001e-01 1.0000000000000001e-01
ITEM: ATOMS id type xs ys zs
51 1 0.0520723 0.046213 0.504434
76 1 0.112517 0.993732 0.499833
12 1 0.229683 0.984924 0.499609
62 1 0.26643 0.086848 0.504333
68 1 0.488921 0.0658818 0.497636
39 1 0.588077 0.0497351 0.497269
27 1 0.743802 0.0562604 0.499133
65 1 0.657199 0.0872228 0.500628
24 1 0.959538 0.0242878 0.499006
11 1 0.160901 0.12557 0.496069
54 1 0.260129 0.195517 0.499953
2 1 0.377774 0.121196 0.498107
19 1 0.52797 0.174121 0.497052
5 1 0.678349 0.183689 0.503139
6 1 0.175714 0.266863 0.50578
56 1 0.300224 0.277284 0.498562
52 1 0.261972 0.362833 0.495541
17 1 0.423857 0.275382 0.498482
13 1 0.0392166 0.342192 0.495374
34 1 0.166028 0.405623 0.499378
64 1 0.336894 0.354247 0.496266
25 1 0.794268 0.459488 0.503132
70 1 0.890215 0.445873 0.501135
37 1 0.0632004 0.485637 0.50722
31 1 0.170007 0.532686 0.501652
15 1 0.313812 0.466937 0.49881
40 1 0.568656 0.537129 0.494081
23 1 0.678786 0.489067 0.501403
42 1 0.960294 0.440475 0.500417
10 1 0.0465604 0.614802 0.504779
33 1 0.276275 0.602608 0.494645
7 1 0.424072 0.576541 0.500214
69 1 0.410818 0.692524 0.508265
61 1 0.661044 0.576232 0.50009
14 1 0.77577 0.592454 0.497635
8 1 0.909603 0.549873 0.500465
67 1 0.231088 0.68792 0.499641
30 1 0.331434 0.708361 0.497776
45 1 0.542071 0.633352 0.494977
75 1 0.599508 0.789488 0.503497
4 1 0.641651 0.68449 0.50571
26 1 0.764505 0.7302 0.5036
36 1 1.00013 0.819162 0.501165
48 1 0.2213 0.772602 0.503326
73 1 0.295144 0.791943 0.50261
79 1 0.383194 0.783983 0.499115
1 1 0.489377 0.773824 0.504411
57 1 0.580345 0.864338 0.505152
29 1 0.681384 0.833884 0.500242
3 1 0.798403 0.917572 0.491893
21 1 0.873402 0.796008 0.489297
32 1 0.0324511 0.938093 0.498133
60 1 0.139263 0.912852 0.500357
50 1 0.224156 0.862844 0.506131
20 1 0.346944 0.896328 0.498549
16 1 0.4853 0.948898 0.505475
35 1 0.664378 0.954348 0.504353
59 1 0.854357 0.0398246 0.501197
80 1 0.888346 0.977149 0.506478
49 1 0.920229 0.898334 0.497879
ITEM: TIMESTEP
3500
ITEM: NUMBER OF ATOMS
60
ITEM: BOX BOUNDS pp pp pp
-4.8171469355407126e+00 4.8171469355407126e+00
-4.8456593497457074e+00 4.8456593497457074e+00
-1.0000000000000001e-01 1.0000000000000001e-01
ITEM: ATOMS id type xs ys zs
51 1 0.0523863 0.0458898 0.50418
76 1 0.113066 0.993605 0.500919
12 1 0.230454 0.984644 0.499088
62 1 0.266291 0.0866256 0.504579
68 1 0.488556 0.064731 0.496721
39 1 0.587956 0.0500394 0.496135
27 1 0.743855 0.0558524 0.5003
65 1 0.657391 0.0867253 0.501808
24 1 0.960049 0.02404 0.497582
11 1 0.160576 0.125522 0.496035
54 1 0.26085 0.195894 0.500235
2 1 0.376743 0.122158 0.496517
19 1 0.528215 0.173522 0.499348
5 1 0.679197 0.183156 0.503292
6 1 0.175352 0.266488 0.507217
56 1 0.299826 0.277926 0.499843
52 1 0.261755 0.362756 0.495604
17 1 0.423821 0.274958 0.498454
13 1 0.0390973 0.343309 0.49514
34 1 0.166349 0.404955 0.497907
64 1 0.336401 0.354356 0.497508
25 1 0.793919 0.459386 0.50331
70 1 0.890323 0.446879 0.501235
37 1 0.0632813 0.485387 0.506409
31 1 0.170351 0.531806 0.500267
15 1 0.313505 0.46705 0.500074
40 1 0.568873 0.536895 0.493784
23 1 0.678741 0.488671 0.501066
42 1 0.960253 0.441778 0.499736
10 1 0.0472356 0.61366 0.50362
33 1 0.275548 0.602843 0.498371
7 1 0.423912 0.576384 0.501137
69 1 0.410999 0.692416 0.505976
61 1 0.660825 0.575662 0.500162
14 1 0.776086 0.592687 0.49398
8 1 0.909492 0.550132 0.500117
67 1 0.23078 0.687863 0.499408
30 1 0.331134 0.70869 0.497208
45 1 0.543072 0.632285 0.493224
75 1 0.600626 0.789126 0.501295
4 1 0.642174 0.684411 0.505959
26 1 0.765298 0.73007 0.503585
36 1 1.00053 0.819225 0.503158
48 1 0.219793 0.77268 0.504087
73 1 0.293364 0.791197 0.504776
79 1 0.384053 0.783878 0.500594
1 1 0.490216 0.773827 0.504385
57 1 0.580873 0.86327 0.503421
29 1 0.682211 0.833405 0.498733
3 1 0.799074 0.91732 0.491686
21 1 0.873386 0.795702 0.488882
32 1 0.0331393 0.937762 0.496706
60 1 0.139185 0.91279 0.501142
50 1 0.223483 0.862718 0.50656
20 1 0.346606 0.895306 0.498801
16 1 0.485164 0.947825 0.504938
35 1 0.664314 0.95433 0.504842
59 1 0.854199 0.0391486 0.500718
80 1 0.888853 0.9765 0.506436
49 1 0.920394 0.897692 0.497756
ITEM: TIMESTEP
3750
ITEM: NUMBER OF ATOMS
60
ITEM: BOX BOUNDS pp pp pp
-4.8159389123912266e+00 4.8159389123912266e+00
-4.8511697831292464e+00 4.8511697831292464e+00
-1.0000000000000001e-01 1.0000000000000001e-01
ITEM: ATOMS id type xs ys zs
51 1 0.0525111 0.046509 0.504393
76 1 0.113099 0.993937 0.499501
12 1 0.23078 0.983538 0.49873
62 1 0.265976 0.0860571 0.505101
68 1 0.488856 0.0649743 0.49587
39 1 0.588169 0.049214 0.496312
27 1 0.744396 0.0555598 0.502272
65 1 0.657453 0.0861226 0.500646
24 1 0.960033 0.0244089 0.496926
11 1 0.160688 0.125612 0.495067
54 1 0.260165 0.19623 0.498742
2 1 0.377246 0.120517 0.497568
19 1 0.527966 0.17311 0.499493
5 1 0.679256 0.18308 0.503822
6 1 0.175219 0.267278 0.507809
56 1 0.299525 0.278118 0.500541
52 1 0.261928 0.363246 0.496811
17 1 0.423279 0.275553 0.500583
13 1 0.0393738 0.343488 0.494085
34 1 0.166 0.40529 0.497207
64 1 0.336601 0.354779 0.496592
25 1 0.794462 0.45933 0.504851
70 1 0.890232 0.446737 0.500349
37 1 0.0630308 0.48644 0.506923
31 1 0.170382 0.532541 0.502678
15 1 0.313873 0.467643 0.49923
40 1 0.568505 0.53838 0.493744
23 1 0.678363 0.488956 0.500508
42 1 0.960514 0.44122 0.498929
10 1 0.047429 0.614741 0.501319
33 1 0.275526 0.602586 0.498332
7 1 0.425335 0.576067 0.502804
69 1 0.411663 0.692093 0.505319
61 1 0.660969 0.575833 0.500055
14 1 0.776804 0.591595 0.494696
8 1 0.909788 0.550267 0.502401
67 1 0.231377 0.688479 0.499827
30 1 0.331843 0.707052 0.497368
45 1 0.542751 0.63375 0.494082
75 1 0.601006 0.789131 0.501326
4 1 0.642172 0.684064 0.505995
26 1 0.765344 0.72874 0.503532
36 1 1.00002 0.819514 0.503035
48 1 0.219652 0.7727 0.50384
73 1 0.29354 0.790076 0.504431
79 1 0.383565 0.782239 0.499349
1 1 0.490017 0.774477 0.502932
57 1 0.581471 0.863749 0.502416
29 1 0.682926 0.833204 0.499068
3 1 0.798847 0.917374 0.492131
21 1 0.873516 0.796177 0.489457
32 1 0.0335448 0.937893 0.497974
60 1 0.139459 0.913082 0.502441
50 1 0.223445 0.86223 0.505671
20 1 0.346905 0.894027 0.498996
16 1 0.485024 0.94823 0.505357
35 1 0.664123 0.953798 0.502899
59 1 0.854326 0.0389661 0.500076
80 1 0.888982 0.976794 0.507051