LAMMPS (23 Jun 2022 - Update 4)
  using 1 OpenMP thread(s) per MPI task
# Compute elastic constant tensor for a crystal
#
# Written by Aidan Thompson (Sandia, athomps@sandia.gov)
#
#  This script uses the following three include files.
#
#   init.mod      (must be modified for different crystal structures)
# 	       	  Define units, deformation parameters and initial
#		  configuration of the atoms and simulation cell.
#
#
#   potential.mod    (must be modified for different pair styles)
# 		     Define pair style and other attributes
#		     not stored in restart file
#
#
#   displace.mod    (displace.mod should not need to be modified)
# 		    Perform positive and negative box displacements
# 		    in direction ${dir} and size ${up}.
# 		    It uses the resultant changes
#		    in stress to compute one
# 		    row of the elastic stiffness tensor
#
#		    Inputs variables:
#		    	   dir = the Voigt deformation component
#		    		    (1,2,3,4,5,6)
#		    Global constants:
#       	    	   up = the deformation magnitude (strain units)
#       		   cfac = conversion from LAMMPS pressure units to
#               	   output units for elastic constants
#
#
#  To run this on a different system, it should only be necessary to
#  modify the files init.mod and potential.mod. In order to calculate
#  the elastic constants correctly, care must be taken to specify
#  the correct units in init.mod (units, cfac and cunits). It is also
#  important to verify that the minimization of energy w.r.t atom
#  positions in the deformed cell is fully converged.
#  One indication of this is that the elastic constants are insensitive
#  to the choice of the variable ${up} in init.mod. Another is to check
#  the final max and two-norm forces reported in the log file. If you know
#  that minimization is not required, you can set maxiter = 0.0 in
#  init.mod.
#



variable dt equal 0.01
variable strain equal 0.05
variable srate equal 1e-4
variable M equal 1000 # averaging time for properties
variable strainsteps equal ${strain}/${dt}/${srate}
variable strainsteps equal 0.05/${dt}/${srate}
variable strainsteps equal 0.05/0.01/${srate}
variable strainsteps equal 0.05/0.01/0.0001


dimension 2
include init.mod
# NOTE: This script can be modified for different atomic structures,
# units, etc. See in.elastic for more info.
#

# Define the finite deformation size. Try several values of this
# variable to verify that results do not depend on it.
variable up equal 1.0e-1

# Define the amount of random jiggle for atoms
# This prevents atoms from staying on saddle points
variable atomjiggle equal 1.0e-6

# Uncomment one of these blocks, depending on what units
# you are using in LAMMPS and for output

# metal units, elastic constants in eV/A^3
#units		metal
#variable cfac equal 6.2414e-7
#variable cunits string eV/A^3

# Choose potential
# metal units, elastic constants in GPa
units		metal
atom_style	full
#pair_style      lj/cut 1.0
#pair_style      yukawa 1.0 2.0
#pair_modify     mix arithmetic
bond_style      harmonic
angle_style     harmonic
dihedral_style  zero
special_bonds   amber
variable cfac equal 1.0e-4
variable cunits string GPa
boundary	p p p

# Need to set mass to something, just to satisfy LAMMPS
#mass 1 1.0e-20
read_data network.lmp
Reading data file ...
  orthogonal box = (-4.832092 -4.832092 -0.1) to (4.832092 4.832092 0.1)
  1 by 1 by 1 MPI processor grid
WARNING: Atom style in data file differs from currently defined atom style (src/read_data.cpp:538)
  reading atoms ...
  60 atoms
WARNING: Bond style in data file differs from currently defined bond style (src/read_data.cpp:630)
  scanning bonds ...
  4 = max bonds/atom
  reading bonds ...
  135 bonds
Finding 1-2 1-3 1-4 neighbors ...
  special bond factors lj:    0        0        0.5     
  special bond factors coul:  0        0        0.8333333333333334
     8 = max # of 1-2 neighbors
    39 = max # of 1-3 neighbors
   219 = max # of 1-4 neighbors
    29 = max # of special neighbors
  special bonds CPU = 0.000 seconds
  read_data CPU = 0.003 seconds

# real units, elastic constants in GPa
#units		real
#variable cfac equal 1.01325e-4
#variable cunits string GPa

# Define minimization parameters
variable etol equal 0.0
variable ftol equal 5.0e-10
variable maxiter equal 100000
variable maxeval equal 20000
variable dmax equal 1.0e-2


include potential.mod
# NOTE: This script can be modified for different pair styles
# See in.elastic for more info.

# Setup neighbor style
neighbor 3.0 nsq
neigh_modify once no every 1 delay 0 check yes
comm_modify cutoff 2.0

# Setup minimization style
min_style	     cg
min_modify	     dmax ${dmax} line quadratic
min_modify	     dmax 0.01 line quadratic

timestep	0.001


# Setup output
thermo		500
thermo_style custom step temp pe ebond eangle edihed press pxx pyy pzz pxy pxz pyz lx ly lz vol
thermo_modify norm no


#change_box all triclinic
comm_modify mode single cutoff 10.0 vel yes
atom_modify sort 0 0



# Compute initial state

#dump rela all atom 1 traj_relax.lmpstrj
fix 3 all box/relax x 0 y 0 # xy 0  #MS comment: relax if the network is periodic
minimize ${etol} ${ftol} ${maxiter} ${maxeval}
minimize 0 ${ftol} ${maxiter} ${maxeval}
minimize 0 5e-10 ${maxiter} ${maxeval}
minimize 0 5e-10 100000 ${maxeval}
minimize 0 5e-10 100000 20000
Neighbor list info ...
  update every 1 steps, delay 0 steps, check yes
  max neighbors/atom: 2000, page size: 100000
  master list distance cutoff = 0
  ghost atom cutoff = 10
  0 neighbor lists, perpetual/occasional/extra = 0 0 0
WARNING: Inconsistent image flags (src/domain.cpp:819)
Per MPI rank memory allocation (min/avg/max) = 8.653 | 8.653 | 8.653 Mbytes
   Step          Temp          PotEng         E_bond        E_angle        E_dihed         Press           Pxx            Pyy            Pzz            Pxy            Pxz            Pyz             Lx             Ly             Lz           Volume    
         0   0              4.0257466e-11  4.0257466e-11  0              0              0.17451133     0.15932367     0.18969899     0              0.0070630636   0              0              9.664184       9.664184       0.2            93.396452    
       407   0              8.5086665e-19  8.5086665e-19  0              0             -1.5936199e-06 -1.6599127e-06 -1.527327e-06   0              4.6524207e-05  0              0              9.6641852      9.6641811      0.2            93.396436    
Loop time of 0.0250123 on 1 procs for 407 steps with 60 atoms

82.0% CPU use with 1 MPI tasks x 1 OpenMP threads

Minimization stats:
  Stopping criterion = force tolerance
  Energy initial, next-to-last, final = 
    4.02574658924044e-11 8.59285040260754e-19 8.50866652155932e-19
  Force two-norm initial, final = 2.9634617e-05 4.7194625e-10
  Force max component initial, final = 1.3783829e-05 1.5702624e-10
  Final line search alpha, max atom move = 1 1.5702624e-10
  Iterations, force evaluations = 407 814

MPI task timing breakdown:
Section |  min time  |  avg time  |  max time  |%varavg| %total
---------------------------------------------------------------
Pair    | 0          | 0          | 0          |   0.0 |  0.00
Bond    | 0.0035663  | 0.0035663  | 0.0035663  |   0.0 | 14.26
Neigh   | 0          | 0          | 0          |   0.0 |  0.00
Comm    | 0.0073764  | 0.0073764  | 0.0073764  |   0.0 | 29.49
Output  | 0          | 0          | 0          |   0.0 |  0.00
Modify  | 0          | 0          | 0          |   0.0 |  0.00
Other   |            | 0.01407    |            |       | 56.25

Nlocal:             60 ave          60 max          60 min
Histogram: 1 0 0 0 0 0 0 0 0 0
Nghost:            498 ave         498 max         498 min
Histogram: 1 0 0 0 0 0 0 0 0 0
Neighs:              0 ave           0 max           0 min
Histogram: 1 0 0 0 0 0 0 0 0 0

Total # of neighbors = 0
Ave neighs/atom = 0
Ave special neighs/atom = 21.666667
Neighbor list builds = 0
Dangerous builds = 0
#dump rela all atom 1 traj_relax.lmpstrj
thermo 100
unfix 3

fix 2d all enforce2d



#dump dump0 all xyz 1000000 cfg0.xyz
#dump_modify dump0 format line "%d %20.10g %20.10g %20.10g"
#minimize ${etol} ${ftol} ${maxiter} ${maxeval}

#undump rela

#write_restart restart.equil

# These formulas define the derivatives w.r.t. strain components
# Constants uses $, variables use v_


timestep        ${dt}
timestep        0.01
variable nsteps equal round(${strainsteps})
variable nsteps equal round(50000)

fix             4 all nve
fix             5 all langevin 0.1 0.1 1 904297
#fix		6 all press/berendsen y  0.0 0.0 1 x 0.0 0.0 10
fix             6 all nph y 0.0 0.0 10 ptemp 0.1 # x 0.0 0.0 10

# For PLUMED2
# fix 22 all plumed plumedfile plumed.dat outfile plumed.out

#fix             6 all nph x 0.0 0.0 10
fix     	9 all deform 1 x erate -${srate} units box remap x
fix     	9 all deform 1 x erate -0.0001 units box remap x

#fix     8 all deform 1 xy erate ${srate} units box remap x



#fix    10 all ave/time

dump 1 all atom 250 deform_dump.lammpstrj


#To avoid flying ice cube phenomenon:
#fix 21 all momentum 100 linear 1 1 1 angular


run  ${nsteps}
run  50000
WARNING: One or more atoms are time integrated more than once (src/modify.cpp:292)
WARNING: Inconsistent image flags (src/domain.cpp:819)
Per MPI rank memory allocation (min/avg/max) = 7.528 | 7.528 | 7.528 Mbytes
   Step          Temp          PotEng         E_bond        E_angle        E_dihed         Press           Pxx            Pyy            Pzz            Pxy            Pxz            Pyz             Lx             Ly             Lz           Volume    
       407   0              8.5086665e-19  8.5086665e-19  0              0             -1.5936199e-06 -1.6599127e-06 -1.527327e-06   0              4.6524207e-05  0              0              9.6641852      9.6641811      0.2            93.396436    
       500   0.19232281     0.00073671467  0.00073671467  0              0              216.4784       456.02443     -23.24744       0             -212.40146      0              0              9.6632864      9.6617039      0.2            93.363812    
       600   0.19586045     0.0010512876   0.0010512876   0              0              667.59662      1358.782      -23.770317      0              882.24374      0              0              9.66232        9.6675048      0.2            93.410525    
       700   0.16835863     0.0006668831   0.0006668831   0              0              103.10212      210.88671     -4.8714362      0              401.43318      0              0              9.6613536      9.6634254      0.2            93.36177     
       800   0.19013591     0.00078511333  0.00078511333  0              0             -83.980881     -80.871242     -87.268717      0             -44.626403      0              0              9.6603872      9.6645708      0.2            93.363496    
       900   0.1743773      0.0009708191   0.0009708191   0              0              114.54439      454.9663      -226.0442       0              463.17899      0              0              9.6594208      9.6571011      0.2            93.282003    
      1000   0.17995096     0.0011655233   0.0011655233   0              0             -192.48586     -118.03244     -267.10968      0              295.35007      0              0              9.6584543      9.6647565      0.2            93.34661     
      1100   0.19685539     0.001063013    0.001063013    0              0             -60.85377       233.42199     -355.29853      0              91.348489      0              0              9.6574879      9.6690541      0.2            93.378774    
      1200   0.21751027     0.00099642381  0.00099642381  0              0              4.4440383      361.0132      -352.27731      0              18.851005      0              0              9.6565215      9.6589258      0.2            93.271625    
      1300   0.2041923      0.00097984515  0.00097984515  0              0             -92.498384      116.37987     -301.54692      0             -199.11517      0              0              9.6555551      9.6650539      0.2            93.32146     
      1400   0.18927363     0.00091083625  0.00091083625  0              0             -614.44829     -962.93602     -266.11215      0              478.49433      0              0              9.6545887      9.6601688      0.2            93.264956    
      1500   0.20553026     0.0010632081   0.0010632081   0              0              344.37586      886.31709     -197.74966      0              466.17905      0              0              9.6536222      9.6664964      0.2            93.316704    
      1600   0.2334395      0.00092219649  0.00092219649  0              0              163.71558      417.64124     -90.390926      0             -109.38285      0              0              9.6526558      9.6701499      0.2            93.342629    
      1700   0.23474566     0.0010774254   0.0010774254   0              0              252.73674      638.82079     -133.54276      0              172.78461      0              0              9.6516894      9.6662131      0.2            93.295286    
      1800   0.17970635     0.00097695625  0.00097695625  0              0              26.049572      142.45081     -90.540109      0              259.03284      0              0              9.650723       9.6642286      0.2            93.266793    
      1900   0.1637634      0.001109338    0.001109338    0              0             -285.82112     -456.13522     -115.70104      0             -43.077921      0              0              9.6497566      9.6696008      0.2            93.309294    
      2000   0.21155872     0.0010996763   0.0010996763   0              0             -431.38843     -799.06375     -63.90346       0              409.83235      0              0              9.6487901      9.6617347      0.2            93.224051    
      2100   0.22684202     0.0010274712   0.0010274712   0              0              363.37346      718.98328      7.5776401      0              20.189062      0              0              9.6478237      9.6615478      0.2            93.21291     
      2200   0.17039757     0.0008922219   0.0008922219   0              0             -104.69229     -229.79325      20.221557      0              335.19643      0              0              9.6468573      9.6780886      0.2            93.36314     
      2300   0.25311645     0.0010798993   0.0010798993   0              0             -264.445       -731.28266      202.20105      0              428.296        0              0              9.6458909      9.6734737      0.2            93.309272    
      2400   0.18316097     0.001064406    0.001064406    0              0              411.00421      532.56303      289.24077      0              81.487563      0              0              9.6449245      9.6649987      0.2            93.218182    
      2500   0.20980171     0.0011232145   0.0011232145   0              0              711.46608      934.37998      488.32348      0              560.3195       0              0              9.6439581      9.6568127      0.2            93.129897    
      2600   0.21130837     0.0009087061   0.0009087061   0              0              745.59066      810.65755      680.35749      0              693.21496      0              0              9.6429916      9.6641575      0.2            93.19139     
      2700   0.22135396     0.001282019    0.001282019    0              0              772.28887      594.10662      950.30013      0              737.01222      0              0              9.6420252      9.6664998      0.2            93.204635    
      2800   0.22077096     0.0011425467   0.0011425467   0              0              889.90548      702.32654      1077.3131      0              886.32443      0              0              9.6410588      9.6671063      0.2            93.201141    
      2900   0.1942849      0.00094265608  0.00094265608  0              0              794.90706      464.35535      1125.2612      0              622.87218      0              0              9.6400924      9.6737505      0.2            93.255848    
      3000   0.23808868     0.00094185875  0.00094185875  0              0              627.99671      104.91166      1150.9017      0             -315.0409       0              0              9.639126       9.6792968      0.2            93.299961    
      3100   0.2169026      0.0013715722   0.0013715722   0              0              923.19769      722.9894       1123.216       0              227.39543      0              0              9.6381595      9.6809663      0.2            93.306698    
      3200   0.22514039     0.0009046495   0.0009046495   0              0              657.03596      60.875415      1253.0108      0              404.60601      0              0              9.6371931      9.6726607      0.2            93.217299    
      3300   0.17438095     0.00082258142  0.00082258142  0              0              975.14271      659.545        1290.5689      0              600.47388      0              0              9.6362267      9.6793494      0.2            93.272406    
      3400   0.20246572     0.00090006898  0.00090006898  0              0              449.69204     -298.95335      1198.1928      0              426.49886      0              0              9.6352603      9.6862881      0.2            93.329908    
      3500   0.19101812     0.00094513664  0.00094513664  0              0              495.07932     -122.9087       1112.8609      0             -463.15417      0              0              9.6342939      9.6913187      0.2            93.369012    
      3600   0.17478024     0.0011062765   0.0011062765   0              0              84.41178      -823.57186      992.24136      0             -67.424985      0              0              9.6333275      9.6900584      0.2            93.347505    
      3700   0.22557297     0.00098314285  0.00098314285  0              0              744.19883      537.67975      950.55277      0              609.66888      0              0              9.632361       9.6894333      0.2            93.33212     
      3800   0.22823519     0.0011355673   0.0011355673   0              0              94.963511     -733.65561      923.43206      0              52.302891      0              0              9.6313946      9.6984163      0.2            93.409274    
      3900   0.22103767     0.0010557573   0.0010557573   0              0              783.50478      663.45187      903.34374      0             -105.18777      0              0              9.6304282      9.6938692      0.2            93.356111    
      4000   0.21883857     0.0011544333   0.0011544333   0              0              884.66682      1036.5713      732.5782       0              529.19705      0              0              9.6294618      9.6993314      0.2            93.399341    
      4100   0.21567373     0.0012388413   0.0012388413   0              0              616.89458      424.34317      809.31693      0              223.73746      0              0              9.6284954      9.7025804      0.2            93.421251    
      4200   0.22225        0.0013935297   0.0013935297   0              0              529.18049      420.23276      637.90896      0              1002.1426      0              0              9.6275289      9.7085716      0.2            93.469554    
      4300   0.24915752     0.0010805435   0.0010805435   0              0              1166.2381      1740.4744      591.84318      0              708.61696      0              0              9.6265625      9.6969173      0.2            93.347981    
      4400   0.21692696     0.0011680753   0.0011680753   0              0              892.28351      1255.3401      529.05213      0              451.88563      0              0              9.6255961      9.6927915      0.2            93.298896    
      4500   0.21476187     0.0012363616   0.0012363616   0              0              1133.7456      1728.2804      539.03959      0              22.60994       0              0              9.6246297      9.6854519      0.2            93.218888    
      4600   0.16493886     0.0011548582   0.0011548582   0              0              730.66863      852.52698      608.6148       0              21.906437      0              0              9.6236633      9.705302       0.2            93.400558    
      4700   0.21443711     0.00086824795  0.00086824795  0              0              633.02392      710.80971      555.0822       0              474.08145      0              0              9.6226968      9.7059206      0.2            93.397132    
      4800   0.28368968     0.0013736753   0.0013736753   0              0              1090.3099      1716.4899      463.94877      0              552.57746      0              0              9.6217304      9.6947656      0.2            93.280422    
      4900   0.243657       0.0012290794   0.0012290794   0              0              982.07246      1487.8819      476.08616      0              4.7614806      0              0              9.620764       9.7031041      0.2            93.351274    
      5000   0.24528195     0.0011119451   0.0011119451   0              0              406.39624      474.5475       338.05634      0             -14.011075      0              0              9.6197976      9.7129962      0.2            93.437058    
      5100   0.18547427     0.0010591795   0.0010591795   0              0              11.508938     -182.36994      205.22882      0             -542.37151      0              0              9.6188312      9.7188298      0.2            93.483783    
      5200   0.21259178     0.00098228247  0.00098228247  0              0              230.58567      416.99138      44.022421      0             -27.729006      0              0              9.6178648      9.7170542      0.2            93.457313    
      5300   0.23963913     0.0011655687   0.0011655687   0              0             -126.04618     -178.73163     -73.552632      0              682.67512      0              0              9.6168983      9.7164365      0.2            93.441982    
      5400   0.18198349     0.00078752539  0.00078752539  0              0             -419.59042     -610.65102     -228.68915      0             -37.818856      0              0              9.6159319      9.7085919      0.2            93.357159    
      5500   0.19502362     0.00090867686  0.00090867686  0              0             -514.70403     -647.93369     -381.64933      0              399.6021       0              0              9.6149655      9.7060567      0.2            93.3234      
      5600   0.2652684      0.00099329378  0.00099329378  0              0             -66.265875      419.17981     -551.85323      0              94.2964        0              0              9.6139991      9.7080224      0.2            93.332919    
      5700   0.18234454     0.00092948897  0.00092948897  0              0             -179.00236      365.24487     -723.41339      0              723.39802      0              0              9.6130327      9.7142133      0.2            93.38305     
      5800   0.18786225     0.0011053902   0.0011053902   0              0             -554.09715     -389.56301     -718.78214      0             -323.03476      0              0              9.6120662      9.7209727      0.2            93.438634    
      5900   0.18644087     0.0013305658   0.0013305658   0              0             -342.43868     -3.5739945     -681.49881      0              379.20729      0              0              9.6110998      9.7191686      0.2            93.411899    
      6000   0.18480822     0.0011307469   0.0011307469   0              0             -567.45424     -372.2354      -762.85199      0              81.473884      0              0              9.6101334      9.7180185      0.2            93.391455    
      6100   0.1979556      0.0011512744   0.0011512744   0              0             -370.50498      4.5521046     -745.75036      0              215.82188      0              0              9.609167       9.7287337      0.2            93.485027    
      6200   0.22498349     0.0011496287   0.0011496287   0              0             -329.05339     -23.566375     -634.70845      0             -41.811207      0              0              9.6082006      9.7298263      0.2            93.486122    
      6300   0.20395309     0.0011440748   0.0011440748   0              0              236.64937      1054.5653     -581.4751       0              722.66503      0              0              9.6072342      9.7230931      0.2            93.412032    
      6400   0.17873393     0.00096827018  0.00096827018  0              0             -183.83476      84.451063     -452.30558      0              563.08651      0              0              9.6062677      9.7211359      0.2            93.383834    
      6500   0.25310799     0.00099994971  0.00099994971  0              0             -250.22629     -169.40481     -331.25316      0              222.28296      0              0              9.6053013      9.7283964      0.2            93.444179    
      6600   0.18689875     0.0011326339   0.0011326339   0              0              624.32719      1471.3512     -222.89071      0              335.11068      0              0              9.6043349      9.7267426      0.2            93.418894    
      6700   0.18479337     0.0012319886   0.0012319886   0              0              168.72795      592.09494     -254.79786      0              252.31436      0              0              9.6033685      9.7244642      0.2            93.387613    
      6800   0.18807487     0.0013275677   0.0013275677   0              0             -56.894546      29.907377     -143.8878       0              927.48392      0              0              9.6024021      9.7285577      0.2            93.417523    
      6900   0.24408934     0.0010463663   0.0010463663   0              0              156.19942      380.99529     -68.789754      0              670.13114      0              0              9.6014356      9.7226558      0.2            93.351454    
      7000   0.1694692      0.0011736727   0.0011736727   0              0              283.18928      510.54823      55.659879      0              193.53804      0              0              9.6004692      9.7235012      0.2            93.350174    
      7100   0.19501887     0.0011423296   0.0011423296   0              0              555.3491       1048.7855      61.741565      0              412.15901      0              0              9.5995028      9.7246484      0.2            93.351789    
      7200   0.17199142     0.001219044    0.001219044    0              0              450.70219      610.23526      290.95822      0             -74.702209      0              0              9.5985364      9.722723       0.2            93.323911    
      7300   0.20878365     0.0012878839   0.0012878839   0              0              758.52074      1075.9468      440.90637      0              787.39618      0              0              9.59757        9.7131632      0.2            93.222764    
      7400   0.19148708     0.0013053722   0.0013053722   0              0              580.0601       633.15413      526.74547      0              325.40572      0              0              9.5966035      9.7282078      0.2            93.357753    
      7500   0.20563146     0.0012447569   0.0012447569   0              0              559.46491      530.37923      588.3856       0              347.26204      0              0              9.5956371      9.7313385      0.2            93.378393    
      7600   0.17313105     0.0013591026   0.0013591026   0              0              452.19698      355.66936      548.54115      0              990.72413      0              0              9.5946707      9.729869       0.2            93.35489     
      7700   0.19139297     0.0013242695   0.0013242695   0              0              109.84505     -259.25367      478.74242      0              752.23578      0              0              9.5937043      9.7297387      0.2            93.344236    
      7800   0.21677738     0.001140423    0.001140423    0              0              146.35468     -206.51744      499.06147      0              871.72029      0              0              9.5927379      9.7411124      0.2            93.443938    
      7900   0.22500578     0.0012615011   0.0012615011   0              0              529.49919      618.31271      440.46135      0              90.216973      0              0              9.5917715      9.7349728      0.2            93.375634    
      8000   0.18617057     0.0010195827   0.0010195827   0              0              560.49486      653.74255      467.02861      0              495.99489      0              0              9.590805       9.7317797      0.2            93.335601    
      8100   0.22216407     0.0012667178   0.0012667178   0              0              336.6221       224.15284      448.91244      0              981.48123      0              0              9.5898386      9.7225628      0.2            93.237808    
      8200   0.28688619     0.0012755924   0.0012755924   0              0              813.43597      1200.1558      426.53146      0              593.73438      0              0              9.5888722      9.7228742      0.2            93.231398    
      8300   0.22148155     0.0014593864   0.0014593864   0              0              139.18575     -76.961886      355.12506      0              771.46185      0              0              9.5879058      9.7389724      0.2            93.37635     
      8400   0.1748297      0.0012070888   0.0012070888   0              0              263.83678      294.78019      232.73847      0              758.3955       0              0              9.5869394      9.7483552      0.2            93.45689     
      8500   0.22585167     0.0010897727   0.0010897727   0              0              771.42002      1340.0656      202.59239      0              65.066112      0              0              9.5859729      9.7428971      0.2            93.395148    
      8600   0.26656886     0.0013493567   0.0013493567   0              0              478.56007      959.53066     -2.6189745      0              940.1398       0              0              9.5850065      9.7557201      0.2            93.508641    
      8700   0.26598843     0.0015570855   0.0015570855   0              0              207.86713      466.09007     -50.507893      0              802.01539      0              0              9.5840401      9.7538941      0.2            93.481712    
      8800   0.2179598      0.0013734358   0.0013734358   0              0              291.41623      908.04971     -325.38364      0              1034.355       0              0              9.5830737      9.7502713      0.2            93.437568    
      8900   0.20750312     0.0014761332   0.0014761332   0              0             -199.29058      151.07178     -549.83062      0              224.18312      0              0              9.5821073      9.7661878      0.2            93.58066     
      9000   0.20917197     0.001214257    0.001214257    0              0             -12.753141      495.57193     -521.26392      0              646.11453      0              0              9.5811409      9.7586576      0.2            93.499073    
      9100   0.21324713     0.0012690213   0.0012690213   0              0              836.42026      2116.5474     -443.87624      0              316.52422      0              0              9.5801744      9.7429798      0.2            93.339446    
      9200   0.17727365     0.0011849037   0.0011849037   0              0              404.60395      1185.7166     -376.69689      0              823.88934      0              0              9.579208       9.7571186      0.2            93.465468    
      9300   0.19398287     0.0012245773   0.0012245773   0              0              530.92868      1313.738      -252.09604      0              264.532        0              0              9.5782416      9.7552907      0.2            93.438531    
      9400   0.21381565     0.001209355    0.001209355    0              0              469.60544      1059.2505     -120.18846      0              71.434205      0              0              9.5772752      9.7534087      0.2            93.411079    
      9500   0.22436938     0.0014035514   0.0014035514   0              0              935.41969      1763.7548      106.95619      0              366.33609      0              0              9.5763088      9.7461109      0.2            93.331767    
      9600   0.26003058     0.0012682686   0.0012682686   0              0              915.31281      1746.3308      84.119377      0              206.29636      0              0              9.5753423      9.7494922      0.2            93.354726    
      9700   0.23185219     0.0012113768   0.0012113768   0              0              1057.8778      2068.8948      46.657411      0              27.456494      0              0              9.5743759      9.7550445      0.2            93.398463    
      9800   0.17581482     0.0014760428   0.0014760428   0              0              882.37902      1700.2616      64.321467      0              766.48088      0              0              9.5734095      9.7538471      0.2            93.377572    
      9900   0.21346989     0.0015646536   0.0015646536   0              0              465.21306      833.12718      97.114978      0              810.66235      0              0              9.5724431      9.7640242      0.2            93.465566    
     10000   0.2007937      0.0013886575   0.0013886575   0              0              651.4032       1356.7868     -54.176694      0              579.89855      0              0              9.5714767      9.7594153      0.2            93.412016    
     10100   0.21877444     0.0012305121   0.0012305121   0              0              410.17359      831.43586     -11.247352      0              392.36488      0              0              9.5705102      9.7630704      0.2            93.437565    
     10200   0.18743507     0.0010417722   0.0010417722   0              0              715.37637      1322.181       108.37377      0              636.21321      0              0              9.5695438      9.762626       0.2            93.423878    
     10300   0.2124168      0.0011979398   0.0011979398   0              0              1144.9055      2251.9495      37.676133      0              656.1577       0              0              9.5685774      9.7708216      0.2            93.492863    
     10400   0.2474815      0.001398483    0.001398483    0              0              321.77645      508.8975       134.50799      0              1006.3202      0              0              9.567611       9.7662589      0.2            93.439766    
     10500   0.19589243     0.0014679549   0.0014679549   0              0              537.21808      981.81588      92.470635      0              244.65681      0              0              9.5666446      9.7599766      0.2            93.370228    
     10600   0.22744502     0.0013597958   0.0013597958   0              0              527.4998       1028.4695      26.392882      0              585.95071      0              0              9.5656782      9.7591121      0.2            93.352526    
     10700   0.17558611     0.0015285354   0.0015285354   0              0              1027.7996      1951.1131      104.2769       0              957.51011      0              0              9.5647117      9.747724       0.2            93.23417     
     10800   0.15011593     0.0012292795   0.0012292795   0              0              1148.6456      2172.627       124.47548      0              546.31286      0              0              9.5637453      9.7570719      0.2            93.314151    
     10900   0.19232591     0.0014415882   0.0014415882   0              0              1098.5853      2044.7374      152.25844      0              326.03662      0              0              9.5627789      9.7500055      0.2            93.237147    
     11000   0.21552235     0.0015671686   0.0015671686   0              0              828.26698      1446.085       210.28422      0              472.09942      0              0              9.5618125      9.755571       0.2            93.280941    
     11100   0.22210285     0.0015719496   0.0015719496   0              0              536.82436      812.54748      260.9315       0              134.83346      0              0              9.5608461      9.7632318      0.2            93.344757    
     11200   0.21560769     0.0014574584   0.0014574584   0              0              314.18685      456.10906      172.08006      0              560.335        0              0              9.5598796      9.7655969      0.2            93.357931    
     11300   0.17720372     0.0014435899   0.0014435899   0              0              501.1832       813.10503      189.07334      0              581.12766      0              0              9.5589132      9.7723006      0.2            93.412574    
     11400   0.21029288     0.0015317315   0.0015317315   0              0              835.15351      1745.2215     -75.090775      0              425.17164      0              0              9.5579468      9.7774586      0.2            93.452429    
     11500   0.1982212      0.0015735591   0.0015735591   0              0              612.04039      1267.5612     -43.667469      0              1052.7745      0              0              9.5569804      9.7766698      0.2            93.435442    
     11600   0.16094206     0.0013974301   0.0013974301   0              0              95.953479      361.69895     -169.9916       0              330.17202      0              0              9.556014       9.783159       0.2            93.488004    
     11700   0.16024994     0.0012514523   0.0012514523   0              0              462.10592      1160.7973     -236.73397      0              393.9571       0              0              9.5550476      9.7803024      0.2            93.451255    
     11800   0.19889605     0.0015168434   0.0015168434   0              0              911.23114      2182.044      -359.74056      0              482.64591      0              0              9.5540811      9.7846056      0.2            93.482916    
     11900   0.20623575     0.0017380533   0.0017380533   0              0              882.06118      2284.6775     -520.73682      0              552.9436       0              0              9.5531147      9.777531       0.2            93.405875    
     12000   0.26556306     0.0016590606   0.0016590606   0              0              1237.7796      3045.1851     -569.83366      0              4.4814108      0              0              9.5521483      9.7646405      0.2            93.273294    
     12100   0.22943215     0.0014350337   0.0014350337   0              0              987.03337      2554.8922     -580.99486      0              297.6008       0              0              9.5511819      9.7622758      0.2            93.241272    
     12200   0.21286869     0.0014473844   0.0014473844   0              0              709.75154      1854.3926     -435.07388      0              616.19045      0              0              9.5502155      9.7666538      0.2            93.273648    
     12300   0.21231698     0.0013458165   0.0013458165   0              0              291.46189      476.974        105.75372      0              878.85676      0              0              9.549249       9.7642739      0.2            93.241483    
     12400   0.17300755     0.0017167867   0.0017167867   0              0              391.70966      95.945745      687.27692      0              211.31924      0              0              9.5482826      9.7650925      0.2            93.239863    
     12500   0.22562849     0.0015928062   0.0015928062   0              0              1375.4983      1619.5553      1131.2472      0              324.42579      0              0              9.5473162      9.7533411      0.2            93.118232    
     12600   0.27249639     0.0013384326   0.0013384326   0              0              2249.0778      3089.7363      1408.2311      0              1365.7044      0              0              9.5463498      9.7442399      0.2            93.021923    
     12700   0.17291101     0.0014446248   0.0014446248   0              0              2141.4928      2835.0619      1447.728       0              428.91352      0              0              9.5453834      9.7445844      0.2            93.015794    
     12800   0.19410893     0.001495414    0.001495414    0              0              2218.2784      3217.6861      1218.6609      0              405.08765      0              0              9.5444169      9.7467175      0.2            93.026735    
     12900   0.22506106     0.0012520757   0.0012520757   0              0              1599.921       2276.5035      923.16644      0              390.71353      0              0              9.5434505      9.7451074      0.2            93.00195     
     13000   0.23913129     0.0014035538   0.0014035538   0              0              1204.9675      1938.4048      471.33655      0              546.89589      0              0              9.5424841      9.7595427      0.2            93.130281    
     13100   0.16964828     0.0016105564   0.0016105564   0              0              1125.0257      2214.1761      35.696526      0              408.0517       0              0              9.5415177      9.7607357      0.2            93.132232    
     13200   0.19627637     0.0014604194   0.0014604194   0              0              919.92525      2361.4523     -521.77084      0              600.62717      0              0              9.5405513      9.7698193      0.2            93.209462    
     13300   0.16261746     0.0015090851   0.0015090851   0              0              629.77975      2144.9532     -885.55689      0              1273.3679      0              0              9.5395849      9.7681946      0.2            93.184521    
     13400   0.23462617     0.0015343857   0.0015343857   0              0              466.81115      2014.6346     -1081.2268      0              542.37017      0              0              9.5386184      9.7680076      0.2            93.173297    
     13500   0.21692598     0.0017043818   0.0017043818   0              0              931.09694      2994.3462     -1132.3218      0              840.41552      0              0              9.537652       9.7761526      0.2            93.241542    
     13600   0.19829374     0.0016019093   0.0016019093   0              0             -123.90786      643.96275     -891.93422      0              182.75299      0              0              9.5366856      9.7726568      0.2            93.198756    
     13700   0.2210633      0.0016354599   0.0016354599   0              0             -168.26888      161.82596     -498.52977      0              451.02845      0              0              9.5357192      9.7740581      0.2            93.202673    
     13800   0.21588131     0.0013734526   0.0013734526   0              0              836.99806      1789.7454     -115.92498      0              762.3699       0              0              9.5347528      9.7787191      0.2            93.237669    
     13900   0.20414505     0.0015484249   0.0015484249   0              0              720.50177      1328.5598      112.29557      0              736.67738      0              0              9.5337863      9.7767422      0.2            93.209372    
     14000   0.25709334     0.001735215    0.001735215    0              0              1094.521       1851.9712      336.85892      0              413.04605      0              0              9.5328199      9.7611597      0.2            93.051378    
     14100   0.20506856     0.0015020956   0.0015020956   0              0              1245.4682      2101.3917      389.34968      0              1224.8376      0              0              9.5318535      9.7695103      0.2            93.121541    
     14200   0.20836402     0.0017228768   0.0017228768   0              0              998.49766      1565.469       431.34495      0              700.49492      0              0              9.5308871      9.77543        0.2            93.168519    
     14300   0.23092703     0.0015930146   0.0015930146   0              0              758.87157      1095.1965      422.3743       0              1019.9419      0              0              9.5299207      9.7763198      0.2            93.167552    
     14400   0.23196911     0.0017616042   0.0017616042   0              0              1557.9969      2774.7883      341.04177      0              462.46597      0              0              9.5289543      9.7778071      0.2            93.172277    
     14500   0.22977849     0.001771076    0.001771076    0              0              690.00332      1244.7841      135.0627       0              874.00395      0              0              9.5279878      9.7779729      0.2            93.164407    
     14600   0.21423053     0.0016111936   0.0016111936   0              0              1234.0138      2552.7665     -84.933318      0              1042.4631      0              0              9.5270214      9.7792271      0.2            93.166906    
     14700   0.1548381      0.0014770117   0.0014770117   0              0              596.27437      1358.3356     -166.00655      0              893.53459      0              0              9.526055       9.7787006      0.2            93.15244     
     14800   0.18413617     0.0015667416   0.0015667416   0              0              716.92361      1672.5326     -238.91275      0              1185.1368      0              0              9.5250886      9.7768361      0.2            93.12523     
     14900   0.21881253     0.0016204058   0.0016204058   0              0              807.70474      1926.5426     -311.31823      0              1144.329       0              0              9.5241222      9.7772492      0.2            93.119716    
     15000   0.2175926      0.0017501819   0.0017501819   0              0              1092.6502      2542.1161     -357.0181       0              859.34094      0              0              9.5231557      9.7811655      0.2            93.147562    
     15100   0.2031274      0.0016910984   0.0016910984   0              0              811.11935      1913.5251     -291.47139      0              1134.3522      0              0              9.5221893      9.7876286      0.2            93.199653    
     15200   0.21892364     0.0015493957   0.0015493957   0              0              748.34267      1744.9914     -248.49179      0              794.8691       0              0              9.5212229      9.7854556      0.2            93.169504    
     15300   0.21861288     0.0016379463   0.0016379463   0              0              998.94923      2220.3086     -222.57527      0              936.13849      0              0              9.5202565      9.7878768      0.2            93.183097    
     15400   0.17926059     0.0014727692   0.0014727692   0              0              325.33583      832.58808     -182.11166      0              967.75335      0              0              9.5192901      9.7880098      0.2            93.174904    
     15500   0.20471229     0.0016070301   0.0016070301   0              0              666.43701      1421.2551     -88.546197      0              608.00664      0              0              9.5183236      9.7857202      0.2            93.143652    
     15600   0.19776307     0.0015643437   0.0015643437   0              0              661.2103       1231.7812      90.46929       0              463.25884      0              0              9.5173572      9.7845325      0.2            93.122891    
     15700   0.21652648     0.0019393399   0.0019393399   0              0              813.84107      1468.8032      158.72369      0              371.1551       0              0              9.5163908      9.7885398      0.2            93.151571    
     15800   0.21125399     0.0016453636   0.0016453636   0              0              921.96936      1672.7009      171.03947      0              680.65267      0              0              9.5154244      9.7825891      0.2            93.085487    
     15900   0.22089388     0.0016579784   0.0016579784   0              0              1076.1528      1820.398       331.73505      0              460.49426      0              0              9.514458       9.7901094      0.2            93.147584    
     16000   0.24089493     0.0016610974   0.0016610974   0              0              1179.2895      2094.6497      263.77455      0              562.03984      0              0              9.5134916      9.7861935      0.2            93.100869    
     16100   0.16410359     0.0018214917   0.0018214917   0              0              1176.0675      2140.6289      211.35307      0              334.2538       0              0              9.5125251      9.7814246      0.2            93.046048    
     16200   0.26605359     0.0018626329   0.0018626329   0              0              932.35356      1804.5497      59.989129      0              683.21444      0              0              9.5115587      9.7895966      0.2            93.114323    
     16300   0.20171218     0.0018124182   0.0018124182   0              0              625.01359      1516.5957     -266.75473      0              667.89346      0              0              9.5105923      9.7936675      0.2            93.143579    
     16400   0.23965834     0.0018596708   0.0018596708   0              0              186.18493      907.21755     -535.00414      0              1051.4371      0              0              9.5096259      9.7973487      0.2            93.169121    
     16500   0.16446357     0.0016588941   0.0016588941   0              0              265.05502      1212.8854     -682.89931      0              546.09745      0              0              9.5086595      9.799156       0.2            93.176838    
     16600   0.23756047     0.0016723736   0.0016723736   0              0              95.990426      850.99253     -659.19307      0              874.11321      0              0              9.507693       9.808675       0.2            93.257871    
     16700   0.18818112     0.0018829284   0.0018829284   0              0              212.5972       957.50469     -532.48896      0              622.23389      0              0              9.5067266      9.8039256      0.2            93.203241    
     16800   0.15440873     0.002026374    0.002026374    0              0             -53.971516      81.063715     -189.20322      0              647.81831      0              0              9.5057602      9.8045086      0.2            93.199307    
     16900   0.20746336     0.0018567396   0.0018567396   0              0              1519.1861      2742.9493      295.24875      0              854.10463      0              0              9.5047938      9.7918892      0.2            93.069888    
     17000   0.16754027     0.0021207225   0.0021207225   0              0              1704.993       2567.0243      842.7952       0              1017.0588      0              0              9.5038274      9.8000778      0.2            93.138247    
     17100   0.25573524     0.0019621148   0.0019621148   0              0              1895.9659      2712.0885      1079.6603      0              420.58608      0              0              9.502861       9.8001068      0.2            93.129052    
     17200   0.21315093     0.001922363    0.001922363    0              0              2309.8867      3522.5712      1097.0435      0              790.38896      0              0              9.5018945      9.8035752      0.2            93.152538    
     17300   0.17624259     0.0019487516   0.0019487516   0              0              1397.2688      1914.4485      879.87522      0              224.59056      0              0              9.5009281      9.7999834      0.2            93.108938    
     17400   0.20777068     0.0018981601   0.0018981601   0              0              875.97963      1382.7381      369.02745      0              886.90449      0              0              9.4999617      9.8130135      0.2            93.223253    
     17500   0.21193027     0.0018951593   0.0018951593   0              0              916.72109      2107.1631     -273.9291       0              855.35798      0              0              9.4989953      9.8113876      0.2            93.198324    
     17600   0.27001257     0.0020208568   0.0020208568   0              0              830.91833      2515.9492     -854.29597      0              970.64625      0              0              9.4980289      9.8118472      0.2            93.193208    
     17700   0.25556583     0.0019496584   0.0019496584   0              0              749.86975      2887.4164     -1387.8477      0              242.15902      0              0              9.4970624      9.8151571      0.2            93.215159    
     17800   0.16616077     0.0021315653   0.0021315653   0              0              17.996731      1726.721      -1690.8989      0              1268.8542      0              0              9.496096       9.8215874      0.2            93.266737    
     17900   0.17310069     0.0020054077   0.0020054077   0              0             -275.20281      934.17196     -1484.74        0              658.29212      0              0              9.4951296      9.8114813      0.2            93.161286    
     18000   0.24916455     0.0019223766   0.0019223766   0              0              68.071944      1065.74       -929.79082      0              633.90167      0              0              9.4941632      9.8083993      0.2            93.122544    
     18100   0.20418674     0.0018623494   0.0018623494   0              0              1096.3961      2526.6932     -334.06105      0              1264.3045      0              0              9.4931968      9.811856       0.2            93.14588     
     18200   0.1705676      0.0018219706   0.0018219706   0              0              1622.543       2765.0165      479.90263      0              1088.1058      0              0              9.4922303      9.8084732      0.2            93.104287    
     18300   0.21000609     0.0017647489   0.0017647489   0              0              1477.8159      2028.3594      927.13552      0              1382.0572      0              0              9.4912639      9.7966783      0.2            92.982859    
     18400   0.17391005     0.0018642099   0.0018642099   0              0              1716.2955      2205.0946      1227.3118      0              239.99388      0              0              9.4902975      9.797884       0.2            92.984834    
     18500   0.24850756     0.0020203105   0.0020203105   0              0              1982.5536      2871.6296      1093.3133      0              760.2064       0              0              9.4893311      9.7937458      0.2            92.936096    
     18600   0.19220733     0.0019954819   0.0019954819   0              0              1631.5211      2463.9628      798.90785      0              638.00425      0              0              9.4883647      9.8150654      0.2            93.12892     
     18700   0.19970514     0.0019693957   0.0019693957   0              0              1190.9029      2059.9086      321.70377      0              886.88939      0              0              9.4873983      9.8119064      0.2            93.089463    
     18800   0.17923014     0.0021478036   0.0021478036   0              0              964.84635      2006.224      -76.695813      0              127.31335      0              0              9.4864318      9.8134317      0.2            93.094451    
     18900   0.21903611     0.00187099     0.00187099     0              0              1124.263       2699.9538     -451.61665      0              858.76417      0              0              9.4854654      9.812488       0.2            93.076015    
     19000   0.21454152     0.001935058    0.001935058    0              0              807.31579      2325.039      -710.611        0              720.96268      0              0              9.484499       9.8225932      0.2            93.162375    
     19100   0.15735072     0.0019494213   0.0019494213   0              0              649.07105      2060.7153     -762.74019      0              567.28194      0              0              9.4835326      9.8241277      0.2            93.167436    
     19200   0.23196928     0.0021965463   0.0021965463   0              0              674.207        1925.6829     -577.43602      0              357.38991      0              0              9.4825662      9.8115053      0.2            93.038248    
     19300   0.18877005     0.0021369878   0.0021369878   0              0              608.98978      1601.3756     -383.57741      0              321.43159      0              0              9.4815997      9.8169855      0.2            93.080727    
     19400   0.23756122     0.0020938121   0.0020938121   0              0              384.46975      881.1877      -112.43235      0              431.34679      0              0              9.4806333      9.8118408      0.2            93.022465    
     19500   0.19745077     0.0022650875   0.0022650875   0              0              862.68623      1464.5721      260.62676      0              877.10539      0              0              9.4796669      9.8189218      0.2            93.080108    
     19600   0.18342528     0.0020801947   0.0020801947   0              0              1356.0784      2160.1557      551.80404      0              878.34129      0              0              9.4787005      9.8078281      0.2            92.965465    
     19700   0.20395952     0.0020879298   0.0020879298   0              0              1634.9348      2581.3459      688.36929      0              899.28565      0              0              9.4777341      9.8103221      0.2            92.979624    
     19800   0.17891157     0.0021030166   0.0021030166   0              0              1516.6525      2421.2487      611.88852      0              1196.7802      0              0              9.4767677      9.8153097      0.2            93.017409    
     19900   0.19170401     0.0023224575   0.0023224575   0              0              1253.9884      2119.7132      388.11171      0              165.87311      0              0              9.4758012      9.81665        0.2            93.020624    
     20000   0.1959362      0.0022105636   0.0022105636   0              0              1482.6315      2805.5438      159.55768      0              577.55079      0              0              9.4748348      9.8234826      0.2            93.075875    
     20100   0.1875208      0.0021819724   0.0021819724   0              0              431.63788      962.12443     -99.011312      0              746.11507      0              0              9.4738684      9.8317245      0.2            93.144464    
     20200   0.22212913     0.0022099428   0.0022099428   0              0              632.11202      1627.7749     -363.74772      0              822.53181      0              0              9.472902       9.8352489      0.2            93.168349    
     20300   0.2552849      0.0025867995   0.0025867995   0              0              855.26149      2302.5145     -592.18033      0              525.83148      0              0              9.4719356      9.8416401      0.2            93.219381    
     20400   0.2601687      0.0023404396   0.0023404396   0              0              1054.0957      2660.0016     -551.95337      0              1055.2268      0              0              9.4709691      9.838809       0.2            93.183057    
     20500   0.23012279     0.002424777    0.002424777    0              0              989.27446      2458.7197     -480.35451      0              488.84372      0              0              9.4700027      9.8460415      0.2            93.242039    
     20600   0.17629936     0.0022042156   0.0022042156   0              0              1484.3106      3167.5648     -199.0827       0              987.12402      0              0              9.4690363      9.8458977      0.2            93.231162    
     20700   0.204494       0.002242598    0.002242598    0              0              1419.2782      2688.8247      149.57179      0              827.8528       0              0              9.4680699      9.8405941      0.2            93.171433    
     20800   0.17792107     0.0021946832   0.0021946832   0              0              1380.0579      2286.6272      473.31614      0              626.01292      0              0              9.4671035      9.8452403      0.2            93.205909    
     20900   0.20438311     0.0021411365   0.0021411365   0              0              1887.3326      3275.8731      498.60033      0              1249.3215      0              0              9.466137       9.8553093      0.2            93.291708    
     21000   0.20627465     0.0021020252   0.0021020252   0              0              1485.5539      2556.7689      414.15232      0              964.62828      0              0              9.4651706      9.8558981      0.2            93.287757    
     21100   0.15795672     0.0022528949   0.0022528949   0              0              1267.5873      2479.4231      55.574859      0              1185.9289      0              0              9.4642042      9.8575633      0.2            93.293992    
     21200   0.17480507     0.002632462    0.002632462    0              0              1045.4558      2431.9061     -341.20028      0              1614.9181      0              0              9.4632378      9.8661351      0.2            93.365582    
     21300   0.20865973     0.0025259424   0.0025259424   0              0              1444.4812      3409.9845     -521.19538      0              1005.116       0              0              9.4622714      9.8683024      0.2            93.376555    
     21400   0.19255404     0.0022673357   0.0022673357   0              0              1014.19        2549.2327     -521.00321      0              1459.4675      0              0              9.461305       9.8693326      0.2            93.376765    
     21500   0.21750954     0.002089338    0.002089338    0              0              1041.1118      2442.3991     -360.37481      0              1271.0304      0              0              9.4603385      9.8704172      0.2            93.377489    
     21600   0.21063429     0.0023732299   0.0023732299   0              0              926.64998      1916.0147     -62.869575      0              1101.7848      0              0              9.4593721      9.872545       0.2            93.388077    
     21700   0.20086631     0.0023477904   0.0023477904   0              0              1335.4663      2385.0489      285.70642      0              1283.7135      0              0              9.4584057      9.8734836      0.2            93.387413    
     21800   0.24036571     0.0023048738   0.0023048738   0              0              1332.9276      2140.4435      525.23771      0              1257.2724      0              0              9.4574393      9.8727427      0.2            93.370864    
     21900   0.19776854     0.0022413389   0.0022413389   0              0              1245.7287      1914.4488      576.84792      0              1058.0466      0              0              9.4564729      9.8728025      0.2            93.361889    
     22000   0.19976792     0.0027124147   0.0027124147   0              0              1457.3902      2721.1179      193.52042      0              1538.483       0              0              9.4555064      9.8764031      0.2            93.386393    
     22100   0.22174146     0.002459631    0.002459631    0              0              1162.7265      2496.708      -171.44522      0              1150.7471      0              0              9.45454        9.8745924      0.2            93.359729    
     22200   0.20556482     0.0026429566   0.0026429566   0              0              833.75879      1994.8954     -327.55547      0              645.6538       0              0              9.4535736      9.8638897      0.2            93.249007    
     22300   0.2210546      0.0024516689   0.0024516689   0              0              836.15618      1903.8355     -231.69982      0              923.43955      0              0              9.4526072      9.8769738      0.2            93.363153    
     22400   0.20885044     0.0024579896   0.0024579896   0              0              1189.9783      2523.3052     -143.55547      0              951.3998       0              0              9.4516408      9.8707823      0.2            93.295088    
     22500   0.2154643      0.002528425    0.002528425    0              0              539.524        1026.481       52.383361      0              804.27013      0              0              9.4506744      9.8762605      0.2            93.337322    
     22600   0.18817546     0.0023172133   0.0023172133   0              0              994.25862      1778.7321      209.63035      0              983.36398      0              0              9.4497079      9.8762048      0.2            93.327251    
     22700   0.22206642     0.0020852768   0.0020852768   0              0              1092.4563      1941.2599      243.45945      0              109.64066      0              0              9.4487415      9.8770075      0.2            93.32529     
     22800   0.20709532     0.0022511699   0.0022511699   0              0              992.10545      1883.6146      100.42913      0              977.24508      0              0              9.4477751      9.8847451      0.2            93.388848    
     22900   0.19347901     0.0023092522   0.0023092522   0              0              739.8139       1587.382      -107.93218      0              610.52673      0              0              9.4468087      9.8809354      0.2            93.343306    
     23000   0.19657973     0.0024137887   0.0024137887   0              0              793.53179      2070.6569     -483.77174      0              776.67841      0              0              9.4458423      9.8790745      0.2            93.316179    
     23100   0.17198575     0.0022161426   0.0022161426   0              0              687.34047      1932.1267     -557.64613      0              1036.5882      0              0              9.4448758      9.8858904      0.2            93.371008    
     23200   0.18466962     0.0023952044   0.0023952044   0              0              1193.4131      2679.3772     -292.70863      0              1049.283       0              0              9.4439094      9.8893784      0.2            93.394394    
     23300   0.2025873      0.0024358889   0.0024358889   0              0              1353.9327      2401.8497      305.83557      0              1174.5093      0              0              9.442943       9.889505       0.2            93.386032    
     23400   0.20923121     0.0025946915   0.0025946915   0              0              727.83895      927.27177      528.24589      0              1133.8312      0              0              9.4419766      9.8937542      0.2            93.416595    
     23500   0.19355591     0.0026210771   0.0026210771   0              0              1478.1356      2317.8277      638.27871      0              540.46678      0              0              9.4410102      9.896288       0.2            93.430956    
     23600   0.21656277     0.0024737474   0.0024737474   0              0              813.97582      1435.8631      191.93626      0              1101.7518      0              0              9.4400437      9.9020203      0.2            93.475505    
     23700   0.21283316     0.0024533945   0.0024533945   0              0              1170.2145      2735.556      -395.33122      0              814.62007      0              0              9.4390773      9.9015229      0.2            93.46124     
     23800   0.20957696     0.0023679521   0.0023679521   0              0              650.71965      2128.6755     -827.45         0              1162.8119      0              0              9.4381109      9.9025927      0.2            93.461768    
     23900   0.21078018     0.0023018842   0.0023018842   0              0              796.72695      2436.9485     -843.68331      0              1293.6877      0              0              9.4371445      9.9135076      0.2            93.555204    
     24000   0.20412515     0.002259282    0.002259282    0              0              939.44069      2074.025      -195.3134       0              1280.0314      0              0              9.4361781      9.9078938      0.2            93.49265     
     24100   0.22911719     0.0022931176   0.0022931176   0              0              1156.8993      1849.3954      464.22892      0              974.4605       0              0              9.4352117      9.907455       0.2            93.478935    
     24200   0.16863044     0.002348586    0.002348586    0              0              1636.2753      2426.2109      846.18604      0              1295.0407      0              0              9.4342452      9.8988751      0.2            93.388415    
     24300   0.21508434     0.0023753455   0.0023753455   0              0              1518.6336      2394.6875      642.42632      0              970.80331      0              0              9.4332788      9.8992911      0.2            93.382773    
     24400   0.16411838     0.002329285    0.002329285    0              0              1125.7962      2355.5817     -104.15789      0              1780.1319      0              0              9.4323124      9.9024924      0.2            93.403402    
     24500   0.19056318     0.002415413    0.002415413    0              0              479.91598      1710.8063     -751.11569      0              1030.3279      0              0              9.431346       9.9116288      0.2            93.480001    
     24600   0.2200066      0.002379981    0.002379981    0              0              671.65618      2302.0382     -958.89047      0              1300.3116      0              0              9.4303796      9.9049026      0.2            93.406991    
     24700   0.20572498     0.0024672408   0.0024672408   0              0              668.33521      1799.3252     -462.79529      0              1023.0195      0              0              9.4294131      9.9008471      0.2            93.359177    
     24800   0.20238085     0.0023267459   0.0023267459   0              0              1024.7552      1705.4348      343.87018      0              984.93749      0              0              9.4284467      9.9006269      0.2            93.347533    
     24900   0.25605785     0.0021800507   0.0021800507   0              0              1661.9495      2559.2407      764.51041      0              912.71098      0              0              9.4274803      9.896448       0.2            93.298568    
     25000   0.22077109     0.0022588146   0.0022588146   0              0              1479.0242      2142.9218      814.9637       0              1116.5375      0              0              9.4265139      9.8985127      0.2            93.308467    
     25100   0.18289909     0.002349446    0.002349446    0              0              1027.5871      1931.4836      123.5366       0              701.50649      0              0              9.4255475      9.9091462      0.2            93.399128    
     25200   0.24001446     0.002284907    0.002284907    0              0              674.47062      1990.3976     -641.66824      0              1161.3141      0              0              9.4245811      9.9090379      0.2            93.388531    
     25300   0.19034199     0.0024645636   0.0024645636   0              0              815.14134      2613.9793     -983.89384      0              720.69171      0              0              9.4236146      9.9152965      0.2            93.437933    
     25400   0.24422379     0.0023400724   0.0023400724   0              0              742.39459      2117.511      -632.87761      0              1043.3531      0              0              9.4226482      9.9109172      0.2            93.387086    
     25500   0.2088541      0.0023357992   0.0023357992   0              0              1289.9065      2451.7076      127.94054      0              629.22672      0              0              9.4216818      9.9115918      0.2            93.383864    
     25600   0.20989576     0.0023465332   0.0023465332   0              0              1376.9309      1937.022       816.68731      0              666.12297      0              0              9.4207154      9.9108387      0.2            93.367191    
     25700   0.18876122     0.0025221572   0.0025221572   0              0              1513.5431      2132.3249      894.57943      0              823.18573      0              0              9.419749       9.8948187      0.2            93.206708    
     25800   0.1814971      0.0022959377   0.0022959377   0              0              1195.6144      2229.6455      161.3826       0              1299.5813      0              0              9.4187825      9.9091357      0.2            93.331994    
     25900   0.22565991     0.002294024    0.002294024    0              0              183.35696      790.09441     -423.53009      0              208.94938      0              0              9.4178161      9.9201521      0.2            93.426168    
     26000   0.2134316      0.0023662582   0.0023662582   0              0              427.64546      1427.1338     -572.02072      0              929.46041      0              0              9.4168497      9.9119622      0.2            93.339458    
     26100   0.16527752     0.0021628725   0.0021628725   0              0              609.52396      1540.6304     -321.79998      0              1205.0137      0              0              9.4158833      9.906668       0.2            93.28003     
     26200   0.22885717     0.002461577    0.002461577    0              0              1023.0298      1799.8864      245.98348      0              1210.4644      0              0              9.4149169      9.9168722      0.2            93.366527    
     26300   0.19688919     0.0026229081   0.0026229081   0              0              1645.7366      2728.7733      562.53756      0              397.6507       0              0              9.4139504      9.9093799      0.2            93.286412    
     26400   0.19362332     0.0024118332   0.0024118332   0              0              747.18796      1006.5283      487.69122      0              602.82041      0              0              9.412984       9.9138414      0.2            93.31883     
     26500   0.22281733     0.0026829691   0.0026829691   0              0              1143.1126      2295.1065     -9.072352       0              1293.1603      0              0              9.4120176      9.9278994      0.2            93.441564    
     26600   0.22178104     0.0027310202   0.0027310202   0              0              940.36715      2329.837      -449.28223      0              1287.4662      0              0              9.4110512      9.9265214      0.2            93.419001    
     26700   0.23493364     0.0023945685   0.0023945685   0              0              1036.6154      2522.6733     -449.59685      0              1490.9939      0              0              9.4100848      9.9236949      0.2            93.38281     
     26800   0.25916999     0.0023512684   0.0023512684   0              0              1408.2263      3049.8907     -233.64541      0              817.46121      0              0              9.4091184      9.9115599      0.2            93.259041    
     26900   0.19014886     0.0022561072   0.0022561072   0              0              1638.6884      3158.3716      118.83901      0              1725.472       0              0              9.4081519      9.9064779      0.2            93.201649    
     27000   0.2197271      0.0024257218   0.0024257218   0              0              1401.0715      2407.8291      394.1101       0              933.93048      0              0              9.4071855      9.9099003      0.2            93.224271    
     27100   0.19417061     0.002876533    0.002876533    0              0              1876.0076      3418.1936      333.64537      0              310.69415      0              0              9.4062191      9.9157514      0.2            93.269731    
     27200   0.21750265     0.0025092497   0.0025092497   0              0              1477.3691      3109.8228     -155.26032      0              314.65598      0              0              9.4052527      9.9266726      0.2            93.362864    
     27300   0.24162904     0.0028428666   0.0028428666   0              0              1221.4514      2880.4436     -437.70526      0              469.49346      0              0              9.4042863      9.9282418      0.2            93.368028    
     27400   0.19071674     0.0026038123   0.0026038123   0              0              1294.8503      2841.1456     -251.59395      0              677.36249      0              0              9.4033198      9.9233739      0.2            93.312659    
     27500   0.17732663     0.0025822159   0.0025822159   0              0              1540.364       2842.8775      237.65104      0              162.08193      0              0              9.4023534      9.9208811      0.2            93.27963     
     27600   0.16010829     0.0026600751   0.0026600751   0              0              1593.9903      2645.2609      542.54728      0              23.269202      0              0              9.401387       9.9153537      0.2            93.218077    
     27700   0.22478429     0.002542452    0.002542452    0              0              1374.8273      2323.2971      426.16675      0              704.37791      0              0              9.4004206      9.9249185      0.2            93.298409    
     27800   0.20481236     0.0024463428   0.0024463428   0              0              963.51277      1990.1922     -63.350117      0              917.73205      0              0              9.3994542      9.9234912      0.2            93.2754      
     27900   0.17169632     0.0025610728   0.0025610728   0              0              1050.8311      2554.5251     -453.05205      0              964.09918      0              0              9.3984878      9.9334106      0.2            93.359038    
     28000   0.21176733     0.0025022772   0.0025022772   0              0              1066.778       2469.5944     -336.22401      0              178.9787       0              0              9.3975213      9.9326169      0.2            93.341979    
     28100   0.21405965     0.0026111537   0.0026111537   0              0              894.08364      1783.5791      4.4188366      0              1043.2178      0              0              9.3965549      9.9327772      0.2            93.333886    
     28200   0.23359627     0.0026707069   0.0026707069   0              0              1252.6776      2134.5036      370.65953      0              603.93743      0              0              9.3955885      9.9283326      0.2            93.282527    
[...]
     43200   0.22144833     0.0022326598   0.0022326598   0              0              334.53663      946.69564     -277.79025      0              586.60688      0              0              9.2506257      9.9202859      0.2            91.768852    
     43300   0.16276185     0.0023670154   0.0023670154   0              0              416.04471      1044.4872     -212.55699      0              1287.5664      0              0              9.2496593      9.9188712      0.2            91.746179    
     43400   0.18876926     0.0019711611   0.0019711611   0              0              678.52062      1204.5711      152.26176      0              1143.0858      0              0              9.2486929      9.9200375      0.2            91.74738     
     43500   0.22004359     0.0020662236   0.0020662236   0              0              1838.9633      3367.5914      310.12943      0              965.52367      0              0              9.2477265      9.917095       0.2            91.710581    
     43600   0.17716521     0.0022066594   0.0022066594   0              0              572.13994      1107.3344      36.74834       0              782.70958      0              0              9.24676        9.9204743      0.2            91.732245    
     43700   0.20492101     0.002070349    0.002070349    0              0              619.93153      1515.7699     -276.08827      0              1384.9984      0              0              9.2457936      9.9236272      0.2            91.751809    
     43800   0.23933751     0.0022528331   0.0022528331   0              0              325.70557      809.15105     -157.92823      0             -148.27958      0              0              9.2448272      9.9234996      0.2            91.741039    
     43900   0.17443464     0.0023116063   0.0023116063   0              0              661.86164      1226.4967      97.083099      0              309.04084      0              0              9.2438608      9.9158296      0.2            91.660548    
     44000   0.20866395     0.0022445492   0.0022445492   0              0              631.28665      1045.0287      217.36678      0              767.22466      0              0              9.2428944      9.9245685      0.2            91.731739    
     44100   0.24200782     0.0022576498   0.0022576498   0              0              686.07711      1438.4751     -66.514667      0              1131.8595      0              0              9.241928       9.9347671      0.2            91.816402    
     44200   0.18832407     0.0025448339   0.0025448339   0              0              496.85362      1213.7687     -220.24988      0              939.00813      0              0              9.2409615      9.9323221      0.2            91.784207    
     44300   0.19237909     0.0024514512   0.0024514512   0              0              1060.1855      2207.9677     -87.747864      0              889.67829      0              0              9.2399951      9.9283259      0.2            91.737683    
     44400   0.2284872      0.002415242    0.002415242    0              0              807.30231      1373.0184      241.3979       0              1446.0868      0              0              9.2390287      9.9215925      0.2            91.665878    
     44500   0.19380717     0.0024257737   0.0024257737   0              0              1531.9244      2671.1306      392.55095      0              990.85316      0              0              9.2380623      9.9184422      0.2            91.627187    
     44600   0.23488144     0.0023029508   0.0023029508   0              0              809.54052      1641.9105     -22.978723      0              444.38982      0              0              9.2370959      9.9299736      0.2            91.724118    
     44700   0.20893607     0.0024552635   0.0024552635   0              0              199.22716      1052.8066     -654.50922      0              872.60243      0              0              9.2361294      9.9297655      0.2            91.7126      
     44800   0.17606954     0.0023688023   0.0023688023   0              0              309.86256      804.72068     -185.18528      0              193.3409       0              0              9.235163       9.9243025      0.2            91.652551    
     44900   0.18402425     0.0023479264   0.0023479264   0              0              865.74912      1077.2692      654.0483       0              412.29911      0              0              9.2341966      9.9174849      0.2            91.580005    
     45000   0.21871141     0.0022622061   0.0022622061   0              0              1436.0339      2307.1397      564.7348       0              961.10448      0              0              9.2332302      9.9285359      0.2            91.672458    
     45100   0.1790313      0.0024548736   0.0024548736   0              0              129.99771      696.31508     -436.49791      0              1628.5964      0              0              9.2322638      9.9471467      0.2            91.834682    
     45200   0.19030571     0.0021601395   0.0021601395   0              0             -35.801075      832.87882     -904.67538      0              901.91662      0              0              9.2312973      9.9425692      0.2            91.782812    
     45300   0.17631834     0.0023129703   0.0023129703   0              0              212.94159      526.40081     -100.65786      0              413.43262      0              0              9.2303309      9.9260187      0.2            91.620438    
     45400   0.21843354     0.0024484835   0.0024484835   0              0              1410.4352      1920.5749      900.09143      0              1221.4981      0              0              9.2293645      9.9113848      0.2            91.475783    
     45500   0.22764975     0.0025493917   0.0025493917   0              0              1025.3882      1507.189       543.44276      0              940.79224      0              0              9.2283981      9.9197297      0.2            91.543215    
     45600   0.20005595     0.0024568178   0.0024568178   0              0              479.93737      1759.6224     -799.90046      0              869.19559      0              0              9.2274317      9.9280358      0.2            91.610272    
     45700   0.22144987     0.0023361502   0.0023361502   0              0             -121.96844      817.64581     -1061.7685      0              774.41027      0              0              9.2264653      9.9302449      0.2            91.62106     
     45800   0.24031238     0.0022696014   0.0022696014   0              0              843.56871      1457.3828      229.58149      0              911.17909      0              0              9.2254988      9.9240037      0.2            91.553885    
     45900   0.21412022     0.0023009052   0.0023009052   0              0              1386.6408      1527.7792      1245.3079      0              1034.3708      0              0              9.2245324      9.9123788      0.2            91.43706     
     46000   0.19363936     0.0024393812   0.0024393812   0              0              1039.9239      1445.0324      634.60782      0              815.68019      0              0              9.223566       9.9169221      0.2            91.469385    
     46100   0.19656784     0.0025074364   0.0025074364   0              0             -346.71986      184.90849     -878.52672      0              911.38656      0              0              9.2225996      9.9234595      0.2            91.520094    
     46200   0.20221221     0.0025920783   0.0025920783   0              0              131.63299      1438.0273     -1174.9429      0              1304.7577      0              0              9.2216332      9.9329297      0.2            91.597834    
     46300   0.23916835     0.0023180881   0.0023180881   0              0              611.2103       847.84464      374.4235       0              1125.364       0              0              9.2206667      9.9246028      0.2            91.511455    
     46400   0.19294525     0.0022080161   0.0022080161   0              0              1792.5023      2195.3315      1389.4879      0              584.5943       0              0              9.2197003      9.9262895      0.2            91.517414    
     46500   0.20407917     0.0020567806   0.0020567806   0              0              802.63176      1492.9253      112.18257      0              780.40123      0              0              9.2187339      9.9334716      0.2            91.574032    
     46600   0.25222931     0.0023760308   0.0023760308   0              0             -305.05809      730.59935     -1340.9026      0              1016.2148      0              0              9.2177675      9.9362658      0.2            91.590188    
     46700   0.21639365     0.0024040126   0.0024040126   0              0              167.16617      861.07212     -526.87127      0              266.07576      0              0              9.2168011      9.9368859      0.2            91.586301    
     46800   0.21507331     0.0023596333   0.0023596333   0              0              513.56704      123.62189      903.38184      0              528.78169      0              0              9.2158347      9.9224526      0.2            91.443683    
     46900   0.24087068     0.0023079195   0.0023079195   0              0              1416.7193      1931.5089      901.70278      0              1078.6876      0              0              9.2148682      9.9291074      0.2            91.495416    
     47000   0.24980364     0.0025160628   0.0025160628   0              0              570.05083      1434.1573     -294.23073      0              945.81771      0              0              9.2139018      9.9352999      0.2            91.542878    
     47100   0.16714289     0.0024193054   0.0024193054   0              0              448.39773      1932.3142     -1035.7145      0              926.00674      0              0              9.2129354      9.936724       0.2            91.546397    
     47200   0.19000986     0.0022058422   0.0022058422   0              0              1192.5122      2567.0661     -182.26799      0              933.96553      0              0              9.211969       9.9237082      0.2            91.416892    
     47300   0.24612377     0.0025414011   0.0025414011   0              0              1720.0555      2500.3373      939.57614      0              139.35044      0              0              9.2110026      9.9143933      0.2            91.321502    
     47400   0.17636335     0.0022233652   0.0022233652   0              0              1065.1209      1663.5087      466.56189      0              478.15921      0              0              9.2100361      9.9177516      0.2            91.342851    
     47500   0.23012506     0.0022545602   0.0022545602   0              0              175.8229       946.4698      -595.03683      0              147.79821      0              0              9.2090697      9.9245184      0.2            91.395582    
     47600   0.18451862     0.0024658487   0.0024658487   0              0             -115.00758      395.12162     -625.34979      0              647.55223      0              0              9.2081033      9.920883       0.2            91.352515    
     47700   0.1742194      0.0023691021   0.0023691021   0              0              1046.9907      1764.2878      329.49662      0              1091.2163      0              0              9.2071369      9.9173734      0.2            91.310614    
     47800   0.15580274     0.002337226    0.002337226    0              0              1715.8041      2766.1905      665.23155      0              713.1036       0              0              9.2061705      9.905293       0.2            91.189816    
     47900   0.19560859     0.0022672988   0.0022672988   0              0              1044.2913      2111.026      -22.611189      0              1167.7212      0              0              9.205204       9.9150155      0.2            91.269741    
     48000   0.15102297     0.002214376    0.002214376    0              0              847.0212       2366.0536     -672.15869      0              223.38717      0              0              9.2042376      9.9202245      0.2            91.308103    
     48100   0.22004979     0.0023732159   0.0023732159   0              0              287.64195      929.62226     -354.53775      0             -129.72932      0              0              9.2032712      9.9200492      0.2            91.296904    
     48200   0.14328869     0.0023810345   0.0023810345   0              0              1105.2044      1786.4609      423.72525      0              548.35912      0              0              9.2023048      9.9090912      0.2            91.186478    
     48300   0.23957557     0.0025916269   0.0025916269   0              0              1014.6975      1443.4907      585.71242      0              245.14668      0              0              9.2013384      9.8991615      0.2            91.085535    
     48400   0.17653359     0.0023228194   0.0023228194   0              0              153.95914      457.83925     -150.11953      0              352.63828      0              0              9.200372       9.9082425      0.2            91.159516    
     48500   0.22835845     0.0024490588   0.0024490588   0              0              492.42865      1477.8432     -493.13304      0              526.76578      0              0              9.1994055      9.902394       0.2            91.096139    
     48600   0.20858817     0.0025240541   0.0025240541   0              0              579.00415      1473.4609     -315.61376      0              1092.5422      0              0              9.1984391      9.9059399      0.2            91.119185    
     48700   0.1805532      0.0027070871   0.0027070871   0              0              1118.1394      1941.3954      294.71413      0              721.85992      0              0              9.1974727      9.904932       0.2            91.100342    
     48800   0.25357849     0.002554335    0.002554335    0              0              1348.8476      2114.2926      583.24955      0              701.71018      0              0              9.1965063      9.8978641      0.2            91.02577     
     48900   0.2239353      0.0025434532   0.0025434532   0              0              776.53754      1588.8407     -35.987421      0              181.61568      0              0              9.1955399      9.9081757      0.2            91.111024    
     49000   0.18438901     0.0024205298   0.0024205298   0              0              490.21642      1530.8348     -550.59318      0              914.25594      0              0              9.1945734      9.9210252      0.2            91.219595    
     49100   0.18980342     0.0024159638   0.0024159638   0              0              810.49252      1924.623      -303.83249      0              481.17808      0              0              9.193607       9.9174544      0.2            91.177178    
     49200   0.15617779     0.0023161187   0.0023161187   0              0              1751.6878      3086.8589      416.3423       0              103.4012       0              0              9.1926406      9.9128771      0.2            91.125517    
     49300   0.22153526     0.002398257    0.002398257    0              0              1322.7977      2261.4092      384.00937      0              218.34946      0              0              9.1916742      9.9219668      0.2            91.199486    
     49400   0.22456041     0.0027038565   0.0027038565   0              0              1051.5931      2440.2244     -337.20709      0              635.97508      0              0              9.1907078      9.9238123      0.2            91.206859    
     49500   0.23261963     0.0024113944   0.0024113944   0              0              231.18188      1173.0178     -710.8163       0              638.61893      0              0              9.1897414      9.9301526      0.2            91.255534    
     49600   0.21569667     0.0025342992   0.0025342992   0              0              477.09025      1007.3578     -53.341853      0              531.96662      0              0              9.1887749      9.9132943      0.2            91.091031    
     49700   0.21598755     0.0024258565   0.0024258565   0              0              1010.0973      1384.215       635.82054      0              724.35199      0              0              9.1878085      9.9108592      0.2            91.059076    
     49800   0.20310361     0.0026004763   0.0026004763   0              0              1177.7597      1743.6034      611.70721      0             -267.63488      0              0              9.1868421      9.9178109      0.2            91.113362    
     49900   0.21590502     0.0025421351   0.0025421351   0              0              748.19544      1708.0933     -211.88703      0              451.87895      0              0              9.1858757      9.9181401      0.2            91.106801    
     50000   0.23063408     0.002341992    0.002341992    0              0              115.20875      876.52562     -646.30101      0              411.9423       0              0              9.1849093      9.9181556      0.2            91.097359    
     50100   0.25196221     0.0022702456   0.0022702456   0              0              405.33435      1010.5253     -200.0302       0              757.91091      0              0              9.1839428      9.9032392      0.2            90.950783    
     50200   0.17545876     0.0028635358   0.0028635358   0              0              1308.8418      2053.9991      563.51553      0              191.36403      0              0              9.1829764      9.8979664      0.2            90.892792    
     50300   0.24842457     0.0024561989   0.0024561989   0              0              1002.8584      1496.2916      509.23218      0              342.70143      0              0              9.18201        9.8981676      0.2            90.885074    
     50400   0.20035953     0.0022926839   0.0022926839   0              0              389.87742      913.01683     -133.44499      0              122.46695      0              0              9.1810436      9.9071574      0.2            90.958044    
     50407   0.20328654     0.0022322274   0.0022322274   0              0              576.98096      993.68846      160.06239      0              19.849315      0              0              9.1809759      9.9070951      0.2            90.956801    
Loop time of 1.13623 on 1 procs for 50000 steps with 60 atoms

Performance: 38020.313 ns/day, 0.001 hours/ns, 44004.992 timesteps/s
98.6% CPU use with 1 MPI tasks x 1 OpenMP threads

MPI task timing breakdown:
Section |  min time  |  avg time  |  max time  |%varavg| %total
---------------------------------------------------------------
Pair    | 0          | 0          | 0          |   0.0 |  0.00
Bond    | 0.16547    | 0.16547    | 0.16547    |   0.0 | 14.56
Neigh   | 0          | 0          | 0          |   0.0 |  0.00
Comm    | 0.36682    | 0.36682    | 0.36682    |   0.0 | 32.28
Output  | 0.0067894  | 0.0067894  | 0.0067894  |   0.0 |  0.60
Modify  | 0.57051    | 0.57051    | 0.57051    |   0.0 | 50.21
Other   |            | 0.02665    |            |       |  2.35

Nlocal:             60 ave          60 max          60 min
Histogram: 1 0 0 0 0 0 0 0 0 0
Nghost:            498 ave         498 max         498 min
Histogram: 1 0 0 0 0 0 0 0 0 0
Neighs:              0 ave           0 max           0 min
Histogram: 1 0 0 0 0 0 0 0 0 0

Total # of neighbors = 0
Ave neighs/atom = 0
Ave special neighs/atom = 21.666667
Neighbor list builds = 0
Dangerous builds = 0


Total wall time: 0:00:01
