LAMMPS data file.

     60 atoms
    135 bonds
      0 angles
      0 dihedrals
      0 impropers
      1 atom types
    135 bond types
      0 angle types
      0 dihedral types
      0 improper types
  -4.832092   4.832092 xlo xhi
  -4.832092   4.832092 ylo yhi
  -0.100000   0.100000 zlo zhi

Masses # ['atom_id', 'mass']

1 10000.0

Atoms # ['atomID', 'moleculeID', 'atomType', 'charge', 'x', 'y', 'z']

     51      1      1   0.000000  -4.337198  -4.378231   0.000000
     76      1      1   0.000000  -3.748953   4.780601   0.000000
     12      1      1   0.000000  -2.613587   4.699488   0.000000
     62      1      1   0.000000  -2.255214  -3.979387   0.000000
     68      1      1   0.000000  -0.109850  -4.208226   0.000000
     39      1      1   0.000000   0.849329  -4.355375   0.000000
     27      1      1   0.000000   2.362738  -4.286159   0.000000
     65      1      1   0.000000   1.522003  -4.003074   0.000000
     24      1      1   0.000000   4.438702  -4.601714   0.000000
     11      1      1   0.000000  -3.282409  -3.623193   0.000000
     54      1      1   0.000000  -2.316263  -2.947451   0.000000
      2      1      1   0.000000  -1.181024  -3.667040   0.000000
     19      1      1   0.000000   0.264938  -3.156173   0.000000
      5      1      1   0.000000   1.714863  -3.062049   0.000000
      6      1      1   0.000000  -3.132079  -2.257069   0.000000
     56      1      1   0.000000  -1.932289  -2.151442   0.000000
     52      1      1   0.000000  -2.296620  -1.325832   0.000000
     17      1      1   0.000000  -0.739988  -2.173739   0.000000
     13      1      1   0.000000  -4.438514  -1.513269   0.000000
     34      1      1   0.000000  -3.217179  -0.911975   0.000000
     64      1      1   0.000000  -1.577996  -1.409193   0.000000
     25      1      1   0.000000   2.868955  -0.396774   0.000000
     70      1      1   0.000000   3.793879  -0.507662   0.000000
     37      1      1   0.000000  -4.204189  -0.126737   0.000000
     31      1      1   0.000000  -3.170241   0.321806   0.000000
     15      1      1   0.000000  -1.798537  -0.316087   0.000000
     40      1      1   0.000000   0.688255   0.329092   0.000000
     23      1      1   0.000000   1.754084  -0.127071   0.000000
     42      1      1   0.000000   4.470385  -0.558432   0.000000
     10      1      1   0.000000  -4.365099   1.114730   0.000000
     33      1      1   0.000000  -2.149460   1.001579   0.000000
      7      1      1   0.000000  -0.717462   0.723280   0.000000
     69      1      1   0.000000  -0.841038   1.845566   0.000000
     61      1      1   0.000000   1.572009   0.716726   0.000000
     14      1      1   0.000000   2.681836   0.887714   0.000000
      8      1      1   0.000000   3.972485   0.493268   0.000000
     67      1      1   0.000000  -2.573679   1.832789   0.000000
     30      1      1   0.000000  -1.605080   2.022962   0.000000
     45      1      1   0.000000   0.431857   1.253496   0.000000
     75      1      1   0.000000   0.974685   2.787070   0.000000
      4      1      1   0.000000   1.379307   1.770160   0.000000
     26      1      1   0.000000   2.559455   2.217124   0.000000
     36      1      1   0.000000   4.829252   3.085238   0.000000
     48      1      1   0.000000  -2.692168   2.651418   0.000000
     73      1      1   0.000000  -1.980357   2.822859   0.000000
     79      1      1   0.000000  -1.109495   2.756707   0.000000
      1      1      1   0.000000  -0.087405   2.639888   0.000000
     57      1      1   0.000000   0.782089   3.507925   0.000000
     29      1      1   0.000000   1.758591   3.221372   0.000000
      3      1      1   0.000000   2.888195   4.024744   0.000000
     21      1      1   0.000000   3.610949   2.850430   0.000000
     32      1      1   0.000000  -4.512787   4.233226   0.000000
     60      1      1   0.000000  -3.487848   4.000353   0.000000
     50      1      1   0.000000  -2.669900   3.521811   0.000000
     20      1      1   0.000000  -1.483788   3.836420   0.000000
     16      1      1   0.000000  -0.140635   4.323705   0.000000
     35      1      1   0.000000   1.595577   4.392868   0.000000
     59      1      1   0.000000   3.422157  -4.452019   0.000000
     80      1      1   0.000000   3.752615   4.604798   0.000000
     49      1      1   0.000000   4.060939   3.841621   0.000000

Bond Coeffs # ['bondID', 'bondCoeff', 'd']

      1   0.738565   1.163605
      2   1.478291   0.822470
      3   0.777128   1.134367
      4   0.788848   1.125909
      5   0.877912   1.067271
      6   0.877912   1.067271
      7   0.744005   1.159343
      8   0.553595   1.344015
      9   1.625411   0.784365
     10   0.871947   1.070915
     11   0.606098   1.284483
     12   0.909699   1.048459
     13   0.520451   1.386150
     14   1.476009   0.823105
     15   0.875517   1.068730
     16   0.909699   1.048459
     17   0.497524   1.417728
     18   1.191903   0.915967
     19   0.869794   1.072240
     20   0.719391   1.179010
     21   0.628620   1.261264
     22   0.662467   1.228620
     23   1.191903   0.915967
     24   0.473678   1.452977
     25   0.779456   1.132672
     26   0.779456   1.132672
     27   1.083748   0.960585
     28   0.444641   1.499669
     29   1.342022   0.863217
     30   0.512699   1.396589
     31   0.512699   1.396589
     32   1.227946   0.902423
     33   0.638898   1.251077
     34   1.910697   0.723443
     35   1.132424   0.939713
     36   0.719376   1.179023
     37   1.113535   0.947650
     38   0.858662   1.079167
     39   0.674686   1.217444
     40   1.280955   0.883554
     41   0.674686   1.217444
     42   0.465965   1.464951
     43   1.865439   0.732166
     44   0.834090   1.094948
     45   0.465965   1.464951
     46   0.843918   1.088554
     47   0.594296   1.297175
     48   0.638108   1.251851
     49   0.689345   1.204430
     50   0.784439   1.129069
     51   0.649605   1.240725
     52   0.663695   1.227484
     53   0.857863   1.079670
     54   0.857863   1.079670
     55   0.967342   1.016740
     56   1.275534   0.885430
     57   0.403993   1.573306
     58   1.319125   0.870677
     59   0.525932   1.378908
     60   0.539603   1.361328
     61   1.470202   0.824729
     62   1.470202   0.824729
     63   0.659233   1.231631
     64   0.716418   1.181454
     65   0.836413   1.093427
     66   0.836413   1.093427
     67   2.172784   0.678409
     68   0.655988   1.234673
     69   0.716418   1.181454
     70   0.760065   1.147029
     71   0.709792   1.186955
     72   0.785000   1.128666
     73   0.703195   1.192510
     74   0.746507   1.157399
     75   0.561925   1.334016
     76   0.561070   1.335031
     77   0.703405   1.192332
     78   0.771822   1.138260
     79   0.703405   1.192332
     80   1.270691   0.887115
     81   0.549039   1.349579
     82   0.489834   1.428813
     83   1.477186   0.822777
     84   0.593499   1.298046
     85   0.425208   1.533554
     86   0.834848   1.094451
     87   0.765770   1.142749
     88   0.947175   1.027507
     89   0.981636   1.009310
     90   0.412463   1.557067
     91   0.442476   1.503334
     92   0.550503   1.347783
     93   0.627933   1.261954
     94   0.846022   1.087199
     95   0.505720   1.406193
     96   0.801744   1.116817
     97   0.486283   1.434021
     98   1.280300   0.883780
     99   0.506316   1.405365
    100   1.086646   0.959303
    101   1.245132   0.896174
    102   0.799075   1.118681
    103   0.714808   1.182784
    104   1.796214   0.746141
    105   0.804170   1.115132
    106   0.521325   1.384987
    107   1.148274   0.933205
    108   0.944899   1.028744
    109   0.905199   1.051061
    110   0.528957   1.374959
    111   1.662748   0.775509
    112   1.662748   0.775509
    113   2.091622   0.691446
    114   0.922777   1.041002
    115   2.091622   0.691446
    116   1.026326   0.987091
    117   0.641408   1.248628
    118   0.624195   1.265727
    119   1.461576   0.827160
    120   0.641408   1.248628
    121   0.793052   1.122921
    122   0.664080   1.227127
    123   0.529410   1.374371
    124   1.073788   0.965030
    125   0.965559   1.017679
    126   0.494723   1.421735
    127   0.869658   1.072323
    128   0.798006   1.119430
    129   0.664855   1.226412
    130   0.537810   1.363595
    131   1.734286   0.759346
    132   1.152366   0.931547
    133   0.787253   1.127049
    134   0.860273   1.078157
    135   1.061934   0.970401

Bonds # ['ID', 'type', 'atom1', 'atom2']

         1         1        42         8
         2         2        56        64
         3         3        17        64
         4         4        52        15
         5         5        51        32
         6         6        32        51
         7         7        40        23
         8         8         3        35
         9         9        69        30
        10        10        61         4
        11        11        26        29
        12        12        62        12
        13        13        29         3
        14        14        80        49
        15        15        54         6
        16        16        12        62
        17        17        25         8
        18        18        51        24
        19        19        75         1
        20        20        11        54
        21        21        34        37
        22        22         1        57
        23        23        24        51
        24        24        19         5
        25        25        68        16
        26        26        16        68
        27        27        65         5
        28        28        15         7
        29        29        23        61
        30        30        39        16
        31        31        16        39
        32        32        56        52
        33        33         6        52
        34        34        52        64
        35        35        76        32
        36        36        12        50
        37        37        60        50
        38        38        45         4
        39        39        13        42
        40        40        30        73
        41        41        42        13
        42        42        10         8
        43        43        48        73
        44        44        69         1
        45        45         8        10
        46        46        21        49
        47        47        51        11
        48        48        37        10
        49        49         6        56
        50        50         7        69
        51        51        36        21
        52        52        26        21
        53        53        37        42
        54        54        42        37
        55        55        70         8
        56        56        30        79
        57        57        14         4
        58        58        48        50
        59        59         3        21
        60        60        13        34
        61        61        80        24
        62        62        24        80
        63        63        57        16
        64        64        39        35
        65        65        24        32
        66        66        32        24
        67        67        70        42
        68        68        34        31
        69        69        35        39
        70        70        25        23
        71        71         3        49
        72        72        73        20
        73        73        56        17
        74        74        33        30
        75        75        39        19
        76        76        14        26
        77        77        36        32
        78        78        76        12
        79        79        32        36
        80        80        27        65
        81        81        14         8
        82        82        20        16
        83        83        76        60
        84        84        25        14
        85        85         2        19
        86        86        75         4
        87        87        79        20
        88        88        24        59
        89        89        52        34
        90        90         2        17
        91        91         6        13
        92        92         6        34
        93        93         4        26
        94        94        62        11
        95        95        13        37
        96        96        68        19
        97        97        31        10
        98        98        54        56
        99        99        19        17
       100       100        40        45
       101       101        75        29
       102       102        62         2
       103       103        29        35
       104       104        75        57
       105       105        64        15
       106       106        27         5
       107       107        33        67
       108       108        79         1
       109       109        32        60
       110       110        23        14
       111       111        51        76
       112       112        76        51
       113       113        59        80
       114       114         3        80
       115       115        80        59
       116       116        67        30
       117       117        27        35
       118       118         7        45
       119       119        67        48
       120       120        35        27
       121       121        61        14
       122       122        50        20
       123       123        11         6
       124       124        40        61
       125       125        57        29
       126       126        12        20
       127       127        27        59
       128       128        12        60
       129       129        31        33
       130       130        15        33
       131       131        39        65
       132       132        25        70
       133       133        37        31
       134       134        36        49
       135       135        68        39
