LAMMPS data file via write_data, version 23 Jun 2022, timestep = 10000

80 atoms
4 atom types

-4.805794889747592 4.805794889747592 xlo xhi
-4.805794889747592 4.805794889747592 ylo yhi
-0.1 0.1 zlo zhi

Atoms # sphere

24 2 1.3 0.4551661356395083 -4.384324137010657 -3.760623342051642 0 0 0 0
41 3 1 1 4.573418112256736 -4.774131731382063 0 0 1 0
40 2 1.3 0.4551661356395083 -3.223458968531061 -4.054901528507646 0 0 0 0
11 1 1.6 0.2441406249999999 -1.7537877149694991 -3.9590203154731936 0 0 1 0
6 1 1.6 0.2441406249999999 0.6245338861316103 -4.31693695328227 0 0 0 0
29 2 1.3 0.4551661356395083 1.9542556339385682 -4.6986459132870255 0 0 0 0
60 3 1 1 3.9403460444089085 -3.95350930552817 0 -1 0 0
42 3 1 1 -4.418470064389548 -2.7007235066286355 0 0 0 0
30 2 1.3 0.4551661356395083 -3.435636862451249 -2.8577516511357928 0 1 0 0
80 4 0.7 2.915451895043732 -1.272957273305376 -2.950042742402819 0 1 1 0
22 2 1.3 0.4551661356395083 -0.5418219384666365 -3.5028422692361505 0 0 0 0
79 4 0.7 2.915451895043732 0.5573896346520089 -3.2338779154846953 0 0 0 0
21 2 1.3 0.4551661356395083 1.523835432456262 -3.6012696361686873 0 0 0 0
33 2 1.3 0.4551661356395083 2.7855951204087317 -3.7935514077608063 0 0 0 0
8 1 1.6 0.2441406249999999 3.9128193412890067 -2.686621302842618 0 0 0 0
37 2 1.3 0.4551661356395083 -4.7123801103380165 -1.7267286995521007 0 0 0 0
69 4 0.7 2.915451895043732 -3.905653784850771 -2.008420768050955 0 1 1 0
38 2 1.3 0.4551661356395083 -2.2415003493440513 -2.725584526513432 0 0 1 0
53 3 1 1 -1.1599304195210944 -2.19670030252951 0 0 0 0
59 3 1 1 -1.5385742476667268 -1.5940858679241674 0 0 0 0
2 1 1.6 0.2441406249999999 -0.13286168236625606 -2.278448808829073 0 0 0 0
9 1 1.6 0.2441406249999999 1.2915495139192572 -2.346899746854854 0 0 0 0
36 2 1.3 0.4551661356395083 2.593083658900798 -2.675554112151244 0 0 0 0
51 3 1 1 -4.462107550102287 -0.4709543653506092 0 1 0 0
55 3 1 1 -3.861966732506898 -1.1611154005457762 0 0 0 0
14 1 1.6 0.2441406249999999 -2.8142482072345185 -1.6176444952297002 0 0 0 0
39 2 1.3 0.4551661356395083 -0.5323248643770562 -0.9405953593677765 0 0 0 0
23 2 1.3 0.4551661356395083 0.6271202191291563 -1.0052419582169816 0 0 0 0
61 4 0.7 2.915451895043732 1.4697131133204122 -1.3708222476454122 0 0 0 0
46 3 1 1 1.6926612409125603 -0.6916553750492795 0 0 0 0
16 1 1.6 0.2441406249999999 2.5765872805492993 -1.4362680138846446 0 -1 0 0
57 3 1 1 3.18929887297554 -0.3649826393937676 0 0 0 0
28 2 1.3 0.4551661356395083 3.9718714163063407 -1.0402685161623388 0 -1 0 0
67 4 0.7 2.915451895043732 -3.3599984044818423 -0.4524096830460431 0 0 0 0
44 3 1 1 -2.6494317928362885 -0.2072902538003687 0 0 0 0
26 2 1.3 0.4551661356395083 -1.4760257433824466 -0.3417030812282196 0 0 0 0
78 4 0.7 2.915451895043732 -0.4846895190455891 -0.09699982027382958 0 0 0 0
35 2 1.3 0.4551661356395083 0.3568695525830572 0.05174863492349768 0 0 0 0
68 4 0.7 2.915451895043732 1.3230084224500054 -0.06494290788934265 0 0 1 0
63 4 0.7 2.915451895043732 1.2276681600568091 0.5836647652899822 0 0 -1 0
12 1 1.6 0.2441406249999999 2.3272984754543167 0.39233873120876606 0 0 0 0
75 4 0.7 2.915451895043732 3.329096288998386 0.6664754703355076 0 0 0 0
64 4 0.7 2.915451895043732 3.0389731735227006 1.224876005654548 0 0 0 0
4 1 1.6 0.2441406249999999 4.377983271205787 0.3562610907104897 0 0 0 0
20 1 1.6 0.2441406249999999 -3.7664814034954435 0.5146338050937507 0 0 0 0
31 2 1.3 0.4551661356395083 -2.3304912818114927 0.7498477339475595 0 0 0 0
32 2 1.3 0.4551661356395083 -1.0887505006538785 0.7685616158825646 0 0 0 0
73 4 0.7 2.915451895043732 -0.1747775818063726 0.9263577825125457 0 0 0 0
43 3 1 1 0.6236748352154367 1.021188213469224 0 0 -1 0
62 4 0.7 2.915451895043732 1.4761381445426665 1.0897543518601802 0 0 0 0
74 4 0.7 2.915451895043732 1.8235676801987406 1.4864826417013148 0 0 0 0
77 4 0.7 2.915451895043732 2.4155694256306806 1.3056573500431972 0 0 0 0
58 3 1 1 3.7983553359070132 1.4116610220488655 0 0 0 0
65 4 0.7 2.915451895043732 -3.9037541889031355 1.8145649953727103 0 0 0 0
10 1 1.6 0.2441406249999999 -2.8641856875774807 1.9594023488073153 0 0 0 0
48 3 1 1 -1.6379932531538324 1.6878092269960137 0 0 0 0
18 1 1.6 0.2441406249999999 -0.18845537341153484 1.9912870111749221 0 -1 0 0
47 3 1 1 0.9693003713546497 2.0095203132563997 0 0 -1 0
71 4 0.7 2.915451895043732 1.8160693774949266 2.125090657366182 0 -1 0 0
19 1 1.6 0.2441406249999999 2.826101444394671 2.3735004409312035 0 0 0 0
27 2 1.3 0.4551661356395083 4.140115397771487 2.4028217911454393 0 -1 0 0
25 2 1.3 0.4551661356395083 4.786761288459582 1.5597112045579422 0 0 0 0
56 3 1 1 -4.329241293931937 2.496347980352059 0 0 0 0
66 4 0.7 2.915451895043732 -3.6451919393940244 2.6807670974044795 0 0 0 0
54 3 1 1 -3.330938738833703 3.4627949455597182 0 0 0 0
45 3 1 1 -2.5476259561509433 3.1675394039216522 0 0 -1 0
5 1 1.6 0.2441406249999999 -1.2401225693786184 2.9461115441521066 0 0 -1 0
34 2 1.3 0.4551661356395083 0.125713653693019 3.256559049321453 0 0 -1 0
76 4 0.7 2.915451895043732 0.4438738169126992 4.199663314317451 0 0 0 0
72 4 0.7 2.915451895043732 -0.6195645685302571 3.722718747315211 0 0 -1 0
7 1 1.6 0.2441406249999999 1.5228126677062415 3.08037635212383 0 -1 0 0
70 4 0.7 2.915451895043732 3.788289996405471 3.230160604738094 0 -1 -1 0
50 3 1 1 3.118051526077574 3.462846889383222 0 0 -1 0
17 1 1.6 0.2441406249999999 4.802323739359079 3.603717150685192 0 -1 0 0
15 1 1.6 0.2441406249999999 -3.7964634124981735 4.567777376401509 0 0 0 0
13 1 1.6 0.2441406249999999 -2.2174276444699954 4.2426405386789465 0 0 0 0
3 1 1.6 0.2441406249999999 -0.792771648444945 4.751698530848628 0 0 -1 0
52 3 1 1 1.2780818670760157 4.251078815976111 0 0 -1 0
49 3 1 1 2.437384076507909 3.956301774701176 0 0 -1 0
1 1 1.6 0.2441406249999999 3.4543478860852534 4.629780872754996 0 -1 -1 0

Velocities

24 0.034667418907391334 -0.02352477158292636 0 0 0 0
41 0.04665656760762588 -0.11336168026421452 0 0 0 0
40 -0.1761074342039482 0.06853353582592125 0 0 0 0
11 0.18308220406158776 -0.04138675983610949 0 0 0 0
6 -0.059814478025173756 -0.15834306999594341 0 0 0 0
29 -0.02408389364266512 -0.02502638197482352 0 0 0 0
60 -0.19143788313334523 -0.021077674045065116 0 0 0 0
42 -0.16928330818898824 -0.013283447602962354 0 0 0 0
30 -0.053332122128184827 0.10763272321169919 0 0 0 0
80 -0.18495018513096806 0.17035811473287266 0 0 0 0
22 -0.005828616481828135 -0.11709945635810927 0 0 0 0
79 -0.07650653070731031 0.036678084562040685 0 0 0 0
21 0.11123347554404621 -0.0354219793549258 0 0 0 0
33 -0.15095432181563606 0.19151860557094455 0 0 0 0
8 0.10831881444857011 0.07735608319097337 0 0 0 0
37 0.007818548303764524 0.09078446868327318 0 0 0 0
69 -0.07837550735234387 0.11135383086702882 0 0 0 0
38 -0.09325913119708704 -0.02250212177326482 0 0 0 0
53 0.13717814679281012 0.2091718864147164 0 0 0 0
59 0.0792118723139058 0.06443223912600887 0 0 0 0
2 0.07334603491602266 -0.02794683460465483 0 0 0 0
9 0.02846376928692505 0.04019695499086203 0 0 0 0
36 -0.2029983223953765 -0.009174730047063965 0 0 0 0
51 -0.1560529115718372 -0.044793795652594774 0 0 0 0
55 0.039243805006555374 -0.09378919462021464 0 0 0 0
14 0.11241969285189418 -0.05481844089562827 0 0 0 0
39 0.03867281047805338 -0.25622395522047026 0 0 0 0
23 -0.07186547213125795 0.03367727345477231 0 0 0 0
61 0.12944341685018798 0.1334291036513934 0 0 0 0
46 0.10253132724083709 -0.12749541710835227 0 0 0 0
16 0.13719365485045745 0.030974698254930915 0 0 0 0
57 -0.08313848194595946 -0.028733782891108197 0 0 0 0
28 -0.03854112297420356 0.014613294860213063 0 0 0 0
67 0.08374133152374662 0.032816990045379545 0 0 0 0
44 -0.1451396721072686 -0.08354552964172415 0 0 0 0
26 -0.011330413867323459 -0.007648766761341975 0 0 0 0
78 -0.053909926777348606 0.027308467711823544 0 0 0 0
35 0.10534331610162308 0.036230908074967705 0 0 0 0
68 0.0014725202854769936 0.12911103747714164 0 0 0 0
63 -0.03972426471102606 -0.04966452798167314 0 0 0 0
12 0.19467386795651825 0.2042891371260135 0 0 0 0
75 0.059365812017265825 0.00578707573296885 0 0 0 0
64 -0.0944466981015815 0.10999244413823504 0 0 0 0
4 0.03740997654336627 -0.08747372784624256 0 0 0 0
20 0.08973135759711061 -0.0006391749063239688 0 0 0 0
31 0.053861828910711826 -0.2600244412294992 0 0 0 0
32 -0.01799499162234967 0.09261460414430306 0 0 0 0
73 0.051965336408384404 -0.1106122231572335 0 0 0 0
43 -0.15663943455432897 -0.028988034710604592 0 0 0 0
62 -0.12899030586769814 0.12612133921152002 0 0 0 0
74 -0.05003596574710894 0.2393189399094849 0 0 0 0
77 -0.1343965844160668 -0.042824055576981414 0 0 0 0
58 0.08250116850560656 -0.08594505545692405 0 0 0 0
65 0.13437128455486322 0.04625592478948473 0 0 0 0
10 0.15404330566203292 -0.06451087268607145 0 0 0 0
48 -0.07008628128741577 -0.03308099855632182 0 0 0 0
18 0.11245656790678123 -0.12472086733956096 0 0 0 0
47 0.018473394722112946 -0.07460313206818367 0 0 0 0
71 0.031031321832991704 0.16797215538577642 0 0 0 0
19 0.16458344789300347 -0.19636753867402465 0 0 0 0
27 0.08091473325611781 0.018005394265542197 0 0 0 0
25 0.08080258111696569 -0.0033127458664709794 0 0 0 0
56 0.1826513237503514 -0.03512880731211198 0 0 0 0
66 0.050791069910255636 0.002043946948541688 0 0 0 0
54 -0.24662700819096645 -0.09026498370437469 0 0 0 0
45 0.09134439976063037 -0.05598490839707879 0 0 0 0
5 -0.1414019316333393 0.22542923862516046 0 0 0 0
34 0.042397489525573144 0.07328937092993476 0 0 0 0
76 -0.15726632033696353 -0.12366257016569265 0 0 0 0
72 -0.14512131756528393 0.009410230040647874 0 0 0 0
7 0.039476574068461015 -0.08039502456857267 0 0 0 0
70 0.04487550724134326 0.09896485840633658 0 0 0 0
50 0.34520904865495244 -0.06390506272831685 0 0 0 0
17 -0.052926568714919596 0.1146786852390398 0 0 0 0
15 -0.0640243119047092 -0.16984530488764701 0 0 0 0
13 -0.2788269625491817 -0.08661408330217717 0 0 0 0
3 0.08210536531524013 0.019210782253071667 0 0 0 0
52 0.026272985444682335 -0.026215742034276093 0 0 0 0
49 -0.09912066675296068 0.022078916461156624 0 0 0 0
1 0.09319087380713902 0.018340329073683898 0 0 0 0
