LAMMPS data file.

     59 atoms
    125 bonds
      0 angles
      0 dihedrals
      0 impropers
      1 atom types
    125 bond types
      0 angle types
      0 dihedral types
      0 improper types
  -4.805795   4.805795 xlo xhi
  -4.805795   4.805795 ylo yhi
  -0.100000   0.100000 zlo zhi

Masses # ['atom_id', 'mass']

1 10000.0

Atoms # ['atomID', 'moleculeID', 'atomType', 'charge', 'x', 'y', 'z']

     24      1      1   0.000000  -4.384324  -3.760623   0.000000
     40      1      1   0.000000  -3.223459  -4.054902   0.000000
     11      1      1   0.000000  -1.753788  -3.959020   0.000000
      6      1      1   0.000000   0.624534  -4.316937   0.000000
     29      1      1   0.000000   1.954256  -4.698646   0.000000
     42      1      1   0.000000  -4.418470  -2.700724   0.000000
     30      1      1   0.000000  -3.435637  -2.857752   0.000000
     80      1      1   0.000000  -1.272957  -2.950043   0.000000
     22      1      1   0.000000  -0.541822  -3.502842   0.000000
     21      1      1   0.000000   1.523835  -3.601270   0.000000
     33      1      1   0.000000   2.785595  -3.793551   0.000000
      8      1      1   0.000000   3.912819  -2.686621   0.000000
     37      1      1   0.000000  -4.712380  -1.726729   0.000000
     69      1      1   0.000000  -3.905654  -2.008421   0.000000
     38      1      1   0.000000  -2.241500  -2.725585   0.000000
      9      1      1   0.000000   1.291550  -2.346900   0.000000
     36      1      1   0.000000   2.593084  -2.675554   0.000000
     55      1      1   0.000000  -3.861967  -1.161115   0.000000
     14      1      1   0.000000  -2.814248  -1.617644   0.000000
     23      1      1   0.000000   0.627120  -1.005242   0.000000
     61      1      1   0.000000   1.469713  -1.370822   0.000000
     46      1      1   0.000000   1.692661  -0.691655   0.000000
     16      1      1   0.000000   2.576587  -1.436268   0.000000
     35      1      1   0.000000   0.356870   0.051749   0.000000
     68      1      1   0.000000   1.323008  -0.064943   0.000000
     63      1      1   0.000000   1.227668   0.583665   0.000000
     12      1      1   0.000000   2.327298   0.392339   0.000000
     75      1      1   0.000000   3.329096   0.666475   0.000000
     64      1      1   0.000000   3.038973   1.224876   0.000000
      4      1      1   0.000000   4.377983   0.356261   0.000000
     43      1      1   0.000000   0.623675   1.021188   0.000000
     62      1      1   0.000000   1.476138   1.089754   0.000000
     74      1      1   0.000000   1.823568   1.486483   0.000000
     77      1      1   0.000000   2.415569   1.305657   0.000000
     58      1      1   0.000000   3.798355   1.411661   0.000000
     65      1      1   0.000000  -3.903754   1.814565   0.000000
     10      1      1   0.000000  -2.864186   1.959402   0.000000
     18      1      1   0.000000  -0.188455   1.991287   0.000000
     71      1      1   0.000000   1.816069   2.125091   0.000000
     19      1      1   0.000000   2.826101   2.373500   0.000000
     27      1      1   0.000000   4.140115   2.402822   0.000000
     25      1      1   0.000000   4.786761   1.559711   0.000000
     56      1      1   0.000000  -4.329241   2.496348   0.000000
     66      1      1   0.000000  -3.645192   2.680767   0.000000
     54      1      1   0.000000  -3.330939   3.462795   0.000000
     45      1      1   0.000000  -2.547626   3.167539   0.000000
      5      1      1   0.000000  -1.240123   2.946112   0.000000
     34      1      1   0.000000   0.125714   3.256559   0.000000
     76      1      1   0.000000   0.443874   4.199663   0.000000
     72      1      1   0.000000  -0.619565   3.722719   0.000000
      7      1      1   0.000000   1.522813   3.080376   0.000000
     70      1      1   0.000000   3.788290   3.230161   0.000000
     50      1      1   0.000000   3.118052   3.462847   0.000000
     17      1      1   0.000000   4.802324   3.603717   0.000000
     15      1      1   0.000000  -3.796463   4.567777   0.000000
     13      1      1   0.000000  -2.217428   4.242641   0.000000
      3      1      1   0.000000  -0.792772   4.751699   0.000000
     52      1      1   0.000000   1.278082   4.251079   0.000000
     49      1      1   0.000000   2.437384   3.956302   0.000000

Bond Coeffs # ['bondID', 'bondCoeff', 'd']

      1   0.890555   1.059667
      2   0.890555   1.059667
      3   0.504305   1.408164
      4   0.833612   1.095262
      5   1.011930   0.994088
      6   0.958661   1.021333
      7   1.548306   0.803659
      8   0.800491   1.117691
      9   0.909753   1.048427
     10   0.856304   1.080652
     11   0.821217   1.103497
     12   0.676504   1.215807
     13   0.619045   1.270981
     14   0.501969   1.411437
     15   0.764044   1.144039
     16   1.055920   0.973160
     17   1.407811   0.842806
     18   0.697249   1.197584
     19   0.918442   1.043456
     20   0.434112   1.517746
     21   0.434112   1.517746
     22   1.992294   0.708473
     23   1.986640   0.709480
     24   0.811926   1.109793
     25   0.811926   1.109793
     26   0.757046   1.149314
     27   0.403133   1.574983
     28   0.790593   1.124666
     29   0.574111   1.319782
     30   1.094897   0.955682
     31   1.094897   0.955682
     32   0.695556   1.199041
     33   3.595821   0.527352
     34   1.414816   0.840717
     35   0.765619   1.142862
     36   1.009470   0.995298
     37   0.719685   1.178769
     38   1.797802   0.745811
     39   0.765533   1.142926
     40   0.765533   1.142926
     41   1.187729   0.917574
     42   1.294089   0.879059
     43   1.116974   0.946190
     44   0.786219   1.127790
     45   0.527883   1.376357
     46   0.885750   1.062538
     47   1.015775   0.992204
     48   1.888889   0.727607
     49   0.527883   1.376357
     50   1.116974   0.946190
     51   0.659556   1.231329
     52   0.659556   1.231329
     53   0.835843   1.093799
     54   1.009416   0.995325
     55   0.748630   1.155757
     56   0.926999   1.038629
     57   0.642851   1.247225
     58   2.609850   0.619002
     59   2.451723   0.638652
     60   0.633791   1.256108
     61   0.531726   1.371375
     62   0.436913   1.512873
     63   0.578874   1.314341
     64   0.777014   1.134451
     65   1.389207   0.848431
     66   3.146000   0.563794
     67   1.431544   0.835791
     68   2.525364   0.629271
     69   1.185379   0.918483
     70   0.989121   1.005484
     71   0.495615   1.420455
     72   1.635190   0.782017
     73   0.623563   1.266367
     74   0.614477   1.275696
     75   0.825858   1.100392
     76   0.761357   1.146056
     77   0.761357   1.146056
     78   1.011678   0.994212
     79   0.870642   1.071717
     80   0.870642   1.071717
     81   0.588368   1.303693
     82   1.001136   0.999432
     83   1.957049   0.714824
     84   1.061257   0.970710
     85   0.494282   1.422370
     86   0.884691   1.063173
     87   0.453955   1.484204
     88   0.453955   1.484204
     89   0.810560   1.110727
     90   0.511462   1.398278
     91   1.190269   0.916595
     92   2.530634   0.628616
     93   0.454910   1.482645
     94   0.519753   1.387080
     95   0.576329   1.317240
     96   0.576329   1.317240
     97   0.889242   1.060450
     98   0.907704   1.049610
     99   0.813369   1.108807
    100   0.596317   1.294975
    101   1.237209   0.899039
    102   1.369567   0.854493
    103   0.613870   1.276327
    104   0.568431   1.326359
    105   1.427033   0.837111
    106   0.924324   1.040131
    107   0.650998   1.239396
    108   0.554937   1.342388
    109   1.001432   0.999285
    110   0.609991   1.280378
    111   0.609991   1.280378
    112   0.689732   1.204092
    113   0.686488   1.206934
    114   0.509714   1.400673
    115   2.326763   0.655577
    116   0.686488   1.206934
    117   0.624747   1.265167
    118   0.840149   1.090992
    119   0.966138   1.017374
    120   0.522504   1.383424
    121   0.699087   1.196009
    122   0.641106   1.248922
    123   0.802702   1.116151
    124   0.692794   1.201428
    125   0.662111   1.228951

Bonds # ['ID', 'type', 'atom1', 'atom2']

         1         1        25        56
         2         2        56        25
         3         3        34         7
         4         4        12        64
         5         5         5        72
         6         6        37        55
         7         7        65        56
         8         8        11        80
         9         9        58        27
        10        10        70        17
        11        11        68        12
        12        12        40        30
        13        13         4        25
        14        14        24        15
        15        15        77        19
        16        16        35        68
        17        17        66        54
        18        18        24        40
        19        19        72         3
        20        20         6         3
        21        21         3         6
        22        22        56        66
        23        23        70        50
        24        24         6        76
        25        25        76         6
        26        26         6        21
        27        27         9        16
        28        28        45        13
        29        29         8        36
        30        30        65        25
        31        31        25        65
        32        32        54        15
        33        33        62        74
        34        34        50        49
        35        35        55        14
        36        36        42        30
        37        37        29        21
        38        38        63        43
        39        39        15        40
        40        40        40        15
        41        41        12        77
        42        42        34        72
        43        43        29        52
        44        44        19        50
        45        45         8        37
        46        46        27        25
        47        47         9        61
        48        48        46        68
        49        49        37         8
        50        50        52        29
        51        51         6        52
        52        52        52         6
        53        53        75         4
        54        54        34        76
        55        55        46        16
        56        56        12        75
        57        57        38        14
        58        58        74        77
        59        59        74        71
        60        60        46        12
        61        61        27        17
        62        62        13         3
        63        63        19        27
        64        64        33        36
        65        65        69        55
        66        66        63        62
        67        67        76        52
        68        68        75        64
        69        69        23        61
        70        70        35        43
        71        71        18         5
        72        72        64        58
        73        73         7        49
        74        74        21         9
        75        75        12        62
        76        76        27        56
        77        77        56        27
        78        78        80        38
        79        79        29        49
        80        80        49        29
        81        81        18        34
        82        82        58        25
        83        83        61        46
        84        84        30        69
        85        85         6        22
        86        86        10        66
        87        87        11        13
        88        88        13        11
        89        89        23        46
        90        90        15        17
        91        91        80        22
        92        92        64        77
        93        93        19         7
        94        94        30        14
        95        95        11         3
        96        96         3        11
        97        97        24        42
        98        98        65        10
        99        99        61        16
       100       100        11        22
       101       101        27        70
       102       102        37        69
       103       103        21        33
       104       104        11        38
       105       105        54        45
       106       106        71        19
       107       107        36        16
       108       108         9        36
       109       109        71         7
       110       110         8        42
       111       111        42         8
       112       112         4        58
       113       113        56        17
       114       114         5        34
       115       115        68        63
       116       116        17        56
       117       117        43        18
       118       118        23        35
       119       119        42        37
       120       120         6        29
       121       121         7        52
       122       122        10        45
       123       123        63        12
       124       124        30        38
       125       125        29        33
