ITEM: TIMESTEP
0
ITEM: NUMBER OF ATOMS
80
ITEM: BOX BOUNDS pp pp pp
-1.0000000000000000e+01 1.0000000000000000e+01
-1.0000000000000000e+01 1.0000000000000000e+01
-1.0000000000000001e-01 1.0000000000000001e-01
ITEM: ATOMS id type xs ys zs
2 1 0.29577 0.00781226 0.5
47 3 0.430776 0.051234 0.5
5 1 0.732079 0.0496883 0.5
60 3 0.178145 0.0870824 0.5
3 1 0.404955 0.0756854 0.5
1 1 0.0735484 0.127769 0.5
40 2 0.154585 0.108157 0.5
14 1 0.161369 0.126219 0.5
45 3 0.256805 0.114584 0.5
59 3 0.376756 0.135588 0.5
34 2 0.443574 0.144146 0.5
29 2 0.679903 0.130989 0.5
33 2 0.819429 0.142237 0.5
50 3 0.934321 0.140079 0.5
70 4 0.0573676 0.177168 0.5
75 4 0.0940195 0.186513 0.5
79 4 0.106751 0.169639 0.5
39 2 0.212958 0.177471 0.5
9 1 0.366704 0.200144 0.5
24 2 0.360991 0.182419 0.5
6 1 0.45393 0.207522 0.5
52 3 0.59048 0.204921 0.5
63 4 0.741367 0.159889 0.5
8 1 0.885297 0.183703 0.5
30 2 0.956041 0.185287 0.5
42 3 0.212069 0.250042 0.5
43 3 0.233429 0.245287 0.5
19 1 0.538421 0.23948 0.5
4 1 0.710194 0.238148 0.5
72 4 0.788018 0.221911 0.5
37 2 0.0234588 0.272589 0.5
53 3 0.110031 0.286649 0.5
66 4 0.107116 0.297702 0.5
26 2 0.234801 0.30213 0.5
61 4 0.70508 0.283459 0.5
49 3 0.985381 0.295011 0.5
16 1 0.0131692 0.334379 0.5
12 1 0.65808 0.349391 0.5
22 2 0.809207 0.349433 0.5
57 3 0.814085 0.325094 0.5
36 2 0.856032 0.328029 0.5
20 1 0.0548231 0.412439 0.5
23 2 0.507073 0.378209 0.5
21 2 0.813195 0.376306 0.5
44 3 0.138303 0.45061 0.5
32 2 0.196075 0.439255 0.5
55 3 0.254503 0.435297 0.5
64 4 0.356131 0.500708 0.5
67 4 0.31835 0.514617 0.5
74 4 0.829625 0.512629 0.5
78 4 0.352267 0.550421 0.5
35 2 0.389037 0.548126 0.5
41 3 0.451451 0.540863 0.5
51 3 0.730027 0.561031 0.5
80 4 0.839861 0.544021 0.5
17 1 0.0968422 0.627624 0.5
65 4 0.137537 0.584059 0.5
54 3 0.431286 0.631838 0.5
56 3 0.487455 0.647935 0.5
11 1 0.603716 0.658667 0.5
25 2 0.627455 0.634058 0.5
28 2 0.0918497 0.718004 0.5
10 1 0.211146 0.73241 0.5
48 3 0.491803 0.73151 0.5
69 4 0.976123 0.702501 0.5
18 1 0.0700743 0.738092 0.5
38 2 0.383457 0.757668 0.5
76 4 0.532919 0.774762 0.5
71 4 0.11619 0.810238 0.5
27 2 0.175334 0.837162 0.5
73 4 0.993148 0.836925 0.5
15 1 0.0688927 0.879001 0.5
46 3 0.220674 0.863674 0.5
77 4 0.419697 0.842328 0.5
58 3 0.777287 0.868514 0.5
62 4 0.893192 0.869862 0.5
31 2 0.927879 0.867284 0.5
13 1 0.138985 0.926165 0.5
68 4 0.139581 0.930307 0.5
7 1 0.0304024 0.973036 0.5
ITEM: TIMESTEP
10
ITEM: NUMBER OF ATOMS
80
ITEM: BOX BOUNDS pp pp pp
-9.2431149333570559e+00 9.2431149333570559e+00
-9.2431149333570559e+00 9.2431149333570559e+00
-1.0000000000000001e-01 1.0000000000000001e-01
ITEM: ATOMS id type xs ys zs
2 1 0.29577 0.00781226 0.5
47 3 0.430856 0.0511582 0.5
5 1 0.732079 0.0496883 0.5
60 3 0.178251 0.08694 0.5
3 1 0.404875 0.07576 0.5
1 1 0.0735445 0.127733 0.5
40 2 0.154443 0.108038 0.5
14 1 0.161402 0.126479 0.5
45 3 0.256805 0.114584 0.5
59 3 0.376766 0.135556 0.5
34 2 0.443568 0.144113 0.5
29 2 0.679903 0.130989 0.5
33 2 0.819429 0.142237 0.5
50 3 0.93431 0.140051 0.5
70 4 0.0573604 0.17719 0.5
75 4 0.0939881 0.186555 0.5
79 4 0.106794 0.169611 0.5
39 2 0.21296 0.177474 0.5
9 1 0.366765 0.200336 0.5
24 2 0.36092 0.18226 0.5
6 1 0.453936 0.207555 0.5
52 3 0.590491 0.204914 0.5
63 4 0.741367 0.159889 0.5
8 1 0.885285 0.183704 0.5
30 2 0.956064 0.185314 0.5
42 3 0.211965 0.250059 0.5
43 3 0.233531 0.245258 0.5
19 1 0.53841 0.239487 0.5
4 1 0.7102 0.238102 0.5
72 4 0.788018 0.221911 0.5
37 2 0.0235095 0.272524 0.5
53 3 0.11006 0.286537 0.5
66 4 0.107087 0.297813 0.5
26 2 0.234803 0.302141 0.5
61 4 0.705075 0.283505 0.5
49 3 0.985299 0.294985 0.5
16 1 0.0131998 0.334471 0.5
12 1 0.65808 0.349391 0.5
22 2 0.809115 0.349435 0.5
57 3 0.81405 0.324945 0.5
36 2 0.856142 0.328008 0.5
20 1 0.0548231 0.412439 0.5
23 2 0.507073 0.378209 0.5
21 2 0.813212 0.376475 0.5
44 3 0.138302 0.45061 0.5
32 2 0.196075 0.439255 0.5
55 3 0.254504 0.435297 0.5
64 4 0.356131 0.500708 0.5
67 4 0.31835 0.514617 0.5
74 4 0.829623 0.512621 0.5
78 4 0.352217 0.550424 0.5
35 2 0.389087 0.548123 0.5
41 3 0.451451 0.540863 0.5
51 3 0.730027 0.561031 0.5
80 4 0.839864 0.544029 0.5
17 1 0.096842 0.627624 0.5
65 4 0.137537 0.584059 0.5
54 3 0.431286 0.631838 0.5
56 3 0.487455 0.647935 0.5
11 1 0.603617 0.65877 0.5
25 2 0.627554 0.633956 0.5
28 2 0.0919669 0.717896 0.5
10 1 0.211146 0.73241 0.5
48 3 0.491803 0.73151 0.5
69 4 0.976123 0.702501 0.5
18 1 0.0699571 0.7382 0.5
38 2 0.383457 0.757668 0.5
76 4 0.532919 0.774762 0.5
71 4 0.11619 0.810238 0.5
27 2 0.175316 0.837152 0.5
73 4 0.993148 0.836925 0.5
15 1 0.0688926 0.879001 0.5
46 3 0.220692 0.863684 0.5
77 4 0.419697 0.842328 0.5
58 3 0.777287 0.868514 0.5
62 4 0.893134 0.869867 0.5
31 2 0.927937 0.86728 0.5
13 1 0.138957 0.92597 0.5
68 4 0.139608 0.930502 0.5
7 1 0.0304024 0.973036 0.5
ITEM: TIMESTEP
20
ITEM: NUMBER OF ATOMS
80
ITEM: BOX BOUNDS pp pp pp
-8.3194709833797376e+00 8.3194709833797376e+00
-8.3194709833797376e+00 8.3194709833797376e+00
-1.0000000000000001e-01 1.0000000000000001e-01
ITEM: ATOMS id type xs ys zs
2 1 0.29577 0.00781226 0.5
47 3 0.431149 0.050881 0.5
5 1 0.732079 0.0496883 0.5
60 3 0.17864 0.0864144 0.5
3 1 0.404592 0.0759961 0.5
1 1 0.0735103 0.127554 0.5
40 2 0.153933 0.10762 0.5
14 1 0.161497 0.127386 0.5
45 3 0.256805 0.114584 0.5
59 3 0.376802 0.135417 0.5
34 2 0.44355 0.143974 0.5
29 2 0.679903 0.130989 0.5
33 2 0.819417 0.14223 0.5
50 3 0.934283 0.139909 0.5
70 4 0.0573217 0.17729 0.5
75 4 0.0938801 0.186718 0.5
79 4 0.106966 0.169527 0.5
39 2 0.212995 0.177509 0.5
9 1 0.366967 0.201046 0.5
24 2 0.360658 0.181721 0.5
6 1 0.453967 0.207704 0.5
52 3 0.590554 0.204873 0.5
63 4 0.741367 0.159889 0.5
8 1 0.885197 0.183735 0.5
30 2 0.956191 0.185432 0.5
42 3 0.211578 0.250098 0.5
43 3 0.233898 0.245129 0.5
19 1 0.53835 0.239529 0.5
4 1 0.71022 0.237919 0.5
72 4 0.788018 0.221911 0.5
37 2 0.0237109 0.272255 0.5
53 3 0.110164 0.286143 0.5
66 4 0.106983 0.298207 0.5
26 2 0.234824 0.302231 0.5
61 4 0.705054 0.283688 0.5
49 3 0.984982 0.294883 0.5
16 1 0.0133125 0.334835 0.5
12 1 0.65808 0.349391 0.5
22 2 0.808763 0.34945 0.5
57 3 0.813912 0.324386 0.5
36 2 0.85659 0.327902 0.5
20 1 0.0548265 0.412445 0.5
23 2 0.507073 0.378209 0.5
21 2 0.813254 0.377125 0.5
44 3 0.138275 0.450615 0.5
32 2 0.196072 0.439252 0.5
55 3 0.254534 0.435295 0.5
64 4 0.356132 0.500708 0.5
67 4 0.31835 0.514617 0.5
74 4 0.829608 0.512575 0.5
78 4 0.352022 0.550436 0.5
35 2 0.389275 0.548112 0.5
41 3 0.451458 0.540862 0.5
51 3 0.730027 0.561031 0.5
80 4 0.839879 0.544075 0.5
17 1 0.096827 0.62764 0.5
65 4 0.137552 0.584042 0.5
54 3 0.431286 0.631838 0.5
56 3 0.487455 0.647935 0.5
11 1 0.603259 0.659141 0.5
25 2 0.627912 0.633584 0.5
28 2 0.0923871 0.717508 0.5
10 1 0.211146 0.73241 0.5
48 3 0.491803 0.73151 0.5
69 4 0.976123 0.702501 0.5
18 1 0.0695368 0.738588 0.5
38 2 0.383457 0.757668 0.5
76 4 0.532919 0.774762 0.5
71 4 0.11619 0.810238 0.5
27 2 0.175229 0.837101 0.5
73 4 0.993148 0.836925 0.5
15 1 0.0688738 0.878989 0.5
46 3 0.220779 0.863735 0.5
77 4 0.419697 0.842328 0.5
58 3 0.777287 0.868514 0.5
62 4 0.892915 0.869883 0.5
31 2 0.928156 0.867264 0.5
13 1 0.138878 0.925301 0.5
68 4 0.139706 0.931183 0.5
7 1 0.0304024 0.973036 0.5
ITEM: TIMESTEP
30
ITEM: NUMBER OF ATOMS
80
ITEM: BOX BOUNDS pp pp pp
-7.6373027941508180e+00 7.6373027941508180e+00
-7.6373027941508180e+00 7.6373027941508180e+00
-1.0000000000000001e-01 1.0000000000000001e-01
ITEM: ATOMS id type xs ys zs
2 1 0.29577 0.00781226 0.5
47 3 0.431728 0.050333 0.5
5 1 0.732079 0.0496883 0.5
60 3 0.179414 0.0853705 0.5
3 1 0.404031 0.0763537 0.5
1 1 0.0733288 0.127092 0.5
40 2 0.152965 0.106826 0.5
14 1 0.161677 0.12909 0.5
45 3 0.256805 0.114584 0.5
59 3 0.376852 0.135103 0.5
34 2 0.443548 0.143698 0.5
29 2 0.679903 0.130989 0.5
33 2 0.819345 0.142184 0.5
50 3 0.934258 0.139552 0.5
70 4 0.0572055 0.177522 0.5
75 4 0.0937035 0.18709 0.5
79 4 0.107329 0.169399 0.5
39 2 0.213119 0.177626 0.5
9 1 0.367287 0.202459 0.5
24 2 0.360137 0.180736 0.5
6 1 0.454055 0.208038 0.5
52 3 0.590726 0.204758 0.5
63 4 0.741367 0.159889 0.5
8 1 0.884961 0.183868 0.5
30 2 0.956524 0.185702 0.5
42 3 0.210803 0.250123 0.5
43 3 0.234612 0.244827 0.5
19 1 0.538224 0.23966 0.5
4 1 0.710265 0.237527 0.5
72 4 0.788018 0.221911 0.5
37 2 0.0241392 0.271665 0.5
53 3 0.110363 0.285389 0.5
66 4 0.106784 0.298961 0.5
26 2 0.234886 0.302512 0.5
61 4 0.70501 0.28408 0.5
49 3 0.984317 0.294675 0.5
16 1 0.0135169 0.335573 0.5
12 1 0.65808 0.349391 0.5
22 2 0.808038 0.349496 0.5
57 3 0.813616 0.323254 0.5
36 2 0.857563 0.327641 0.5
20 1 0.0548589 0.412505 0.5
23 2 0.507073 0.378209 0.5
21 2 0.813302 0.378471 0.5
44 3 0.138169 0.450636 0.5
32 2 0.196065 0.439238 0.5
55 3 0.254648 0.435287 0.5
64 4 0.356135 0.500688 0.5
67 4 0.318336 0.514622 0.5
74 4 0.829569 0.512456 0.5
78 4 0.351618 0.550462 0.5
35 2 0.389633 0.548108 0.5
41 3 0.451515 0.540856 0.5
51 3 0.730027 0.561031 0.5
80 4 0.839917 0.544194 0.5
17 1 0.0967612 0.627707 0.5
65 4 0.137618 0.583972 0.5
54 3 0.431272 0.631834 0.5
56 3 0.487469 0.647939 0.5
11 1 0.602558 0.659867 0.5
25 2 0.628613 0.632858 0.5
28 2 0.0932022 0.716759 0.5
10 1 0.211146 0.73241 0.5
48 3 0.491803 0.73151 0.5
69 4 0.976123 0.702501 0.5
18 1 0.0687216 0.73934 0.5
38 2 0.383457 0.757668 0.5
76 4 0.532919 0.774762 0.5
71 4 0.11619 0.810238 0.5
27 2 0.17502 0.836979 0.5
73 4 0.993148 0.836925 0.5
15 1 0.0687757 0.878923 0.5
46 3 0.220988 0.863857 0.5
77 4 0.419697 0.842328 0.5
58 3 0.777287 0.868514 0.5
62 4 0.892466 0.869916 0.5
31 2 0.928605 0.867231 0.5
13 1 0.138793 0.924076 0.5
68 4 0.13989 0.932474 0.5
7 1 0.0304022 0.973037 0.5
ITEM: TIMESTEP
40
ITEM: NUMBER OF ATOMS
80
ITEM: BOX BOUNDS pp pp pp
-7.1600741418523315e+00 7.1600741418523315e+00
-7.1600741418523315e+00 7.1600741418523315e+00
-1.0000000000000001e-01 1.0000000000000001e-01
ITEM: ATOMS id type xs ys zs
2 1 0.29577 0.00781226 0.5
47 3 0.432654 0.0494584 0.5
5 1 0.732081 0.0496855 0.5
60 3 0.180654 0.0837074 0.5
3 1 0.403127 0.0767658 0.5
1 1 0.0728351 0.126217 0.5
40 2 0.151503 0.105582 0.5
14 1 0.162007 0.131665 0.5
45 3 0.256806 0.114582 0.5
59 3 0.376876 0.134559 0.5
34 2 0.443633 0.143273 0.5
29 2 0.679901 0.130991 0.5
33 2 0.819155 0.142064 0.5
50 3 0.934255 0.138886 0.5
70 4 0.0569636 0.177932 0.5
75 4 0.0934774 0.187756 0.5
79 4 0.10791 0.169266 0.5
39 2 0.21338 0.177834 0.5
9 1 0.367676 0.204723 0.5
24 2 0.359298 0.17927 0.5
6 1 0.454222 0.208613 0.5
52 3 0.59106 0.204537 0.5
63 4 0.741368 0.159889 0.5
8 1 0.88452 0.184177 0.5
30 2 0.957159 0.186179 0.5
42 3 0.209552 0.250123 0.5
43 3 0.235747 0.244313 0.5
19 1 0.538042 0.23994 0.5
4 1 0.710339 0.236863 0.5
72 4 0.788018 0.221911 0.5
37 2 0.0248596 0.270653 0.5
53 3 0.110673 0.284215 0.5
66 4 0.106474 0.300135 0.5
26 2 0.235012 0.303083 0.5
61 4 0.704935 0.284744 0.5
49 3 0.983209 0.294331 0.5
16 1 0.0138072 0.336746 0.5
12 1 0.65808 0.349391 0.5
22 2 0.80684 0.349588 0.5
57 3 0.813121 0.321419 0.5
36 2 0.859214 0.327173 0.5
20 1 0.0549566 0.412688 0.5
23 2 0.507073 0.378209 0.5
21 2 0.813345 0.380683 0.5
44 3 0.137928 0.450684 0.5
32 2 0.196053 0.439208 0.5
55 3 0.2549 0.43527 0.5
64 4 0.356145 0.500607 0.5
67 4 0.318283 0.514642 0.5
74 4 0.829496 0.512232 0.5
78 4 0.350947 0.550503 0.5
35 2 0.390188 0.548146 0.5
41 3 0.451674 0.540837 0.5
51 3 0.730027 0.561031 0.5
80 4 0.839991 0.544418 0.5
17 1 0.0966094 0.627827 0.5
65 4 0.137772 0.583808 0.5
54 3 0.431208 0.631816 0.5
56 3 0.487533 0.647957 0.5
11 1 0.60145 0.661016 0.5
25 2 0.629721 0.631709 0.5
28 2 0.0944822 0.715622 0.5
10 1 0.211146 0.73241 0.5
48 3 0.491803 0.73151 0.5
69 4 0.976123 0.702501 0.5
18 1 0.06744 0.740522 0.5
38 2 0.383457 0.757668 0.5
76 4 0.532919 0.774762 0.5
71 4 0.116182 0.810234 0.5
27 2 0.17465 0.836747 0.5
73 4 0.993148 0.836925 0.5
15 1 0.068539 0.87874 0.5
46 3 0.221371 0.864081 0.5
77 4 0.419697 0.842328 0.5
58 3 0.777287 0.868514 0.5
62 4 0.89173 0.869971 0.5
31 2 0.929341 0.867176 0.5
13 1 0.138757 0.922258 0.5
68 4 0.140167 0.934463 0.5
7 1 0.030393 0.973059 0.5
ITEM: TIMESTEP
50
ITEM: NUMBER OF ATOMS
80
ITEM: BOX BOUNDS pp pp pp
-6.8390753166836555e+00 6.8390753166836555e+00
-6.8390753166836555e+00 6.8390753166836555e+00
-1.0000000000000001e-01 1.0000000000000001e-01
ITEM: ATOMS id type xs ys zs
2 1 0.29577 0.00781226 0.5
47 3 0.433955 0.0482356 0.5
5 1 0.7321 0.0496551 0.5
60 3 0.182393 0.0813993 0.5
3 1 0.401844 0.077151 0.5
1 1 0.0718947 0.124845 0.5
40 2 0.14956 0.103859 0.5
14 1 0.162541 0.135087 0.5
45 3 0.256822 0.114559 0.5
59 3 0.376833 0.133762 0.5
34 2 0.443887 0.14269 0.5
29 2 0.679868 0.131015 0.5
33 2 0.818801 0.141838 0.5
50 3 0.934289 0.137851 0.5
70 4 0.0565622 0.17855 0.5
75 4 0.0932239 0.188769 0.5
79 4 0.108698 0.16917 0.5
39 2 0.213811 0.178116 0.5
9 1 0.368061 0.207908 0.5
24 2 0.358094 0.177338 0.5
6 1 0.454492 0.209459 0.5
52 3 0.591594 0.204181 0.5
63 4 0.741381 0.159895 0.5
8 1 0.88384 0.184721 0.5
30 2 0.958158 0.186896 0.5
42 3 0.207784 0.250106 0.5
43 3 0.237341 0.243588 0.5
19 1 0.537828 0.240415 0.5
4 1 0.710438 0.235896 0.5
72 4 0.788029 0.221909 0.5
37 2 0.0259062 0.269167 0.5
53 3 0.111097 0.282606 0.5
66 4 0.10605 0.301744 0.5
26 2 0.235218 0.304013 0.5
61 4 0.70483 0.285708 0.5
49 3 0.981608 0.293839 0.5
16 1 0.0141658 0.338361 0.5
12 1 0.658076 0.349397 0.5
22 2 0.805112 0.34973 0.5
57 3 0.812406 0.31883 0.5
36 2 0.861614 0.326475 0.5
20 1 0.0551483 0.413049 0.5
23 2 0.507073 0.378209 0.5
21 2 0.813388 0.383827 0.5
44 3 0.137516 0.450767 0.5
32 2 0.196034 0.439155 0.5
55 3 0.255335 0.435241 0.5
64 4 0.356166 0.50043 0.5
67 4 0.318163 0.514681 0.5
74 4 0.829381 0.511879 0.5
78 4 0.349983 0.550567 0.5
35 2 0.390942 0.548257 0.5
41 3 0.451983 0.540801 0.5
51 3 0.730027 0.561031 0.5
80 4 0.840106 0.544771 0.5
17 1 0.096344 0.627968 0.5
65 4 0.138041 0.583519 0.5
54 3 0.431058 0.631773 0.5
56 3 0.487683 0.648 0.5
11 1 0.599911 0.662611 0.5
25 2 0.63126 0.630114 0.5
28 2 0.0962498 0.714135 0.5
10 1 0.211146 0.73241 0.5
48 3 0.491801 0.731508 0.5
69 4 0.976123 0.702501 0.5
18 1 0.0656683 0.742156 0.5
38 2 0.383457 0.757668 0.5
76 4 0.532921 0.774764 0.5
71 4 0.116136 0.810213 0.5
27 2 0.174135 0.836355 0.5
73 4 0.99315 0.836924 0.5
15 1 0.0681237 0.878361 0.5
46 3 0.221961 0.864426 0.5
77 4 0.419697 0.842328 0.5
58 3 0.777287 0.868514 0.5
62 4 0.890678 0.870049 0.5
31 2 0.93039 0.867099 0.5
13 1 0.138815 0.919908 0.5
68 4 0.140533 0.93717 0.5
7 1 0.0303563 0.97315 0.5
ITEM: TIMESTEP
60
ITEM: NUMBER OF ATOMS
80
ITEM: BOX BOUNDS pp pp pp
-6.6183986884908057e+00 6.6183986884908057e+00
-6.6183986884908057e+00 6.6183986884908057e+00
-1.0000000000000001e-01 1.0000000000000001e-01
ITEM: ATOMS id type xs ys zs
2 1 0.29577 0.00781226 0.5
47 3 0.435636 0.0466663 0.5
5 1 0.732157 0.0495672 0.5
60 3 0.184627 0.0784729 0.5
3 1 0.40017 0.0774304 0.5
1 1 0.0704195 0.122939 0.5
40 2 0.147176 0.101651 0.5
14 1 0.163312 0.139281 0.5
45 3 0.256868 0.114491 0.5
59 3 0.376696 0.132717 0.5
34 2 0.444389 0.14194 0.5
29 2 0.679765 0.131081 0.5
33 2 0.818253 0.141484 0.5
50 3 0.934369 0.136416 0.5
70 4 0.0559836 0.179385 0.5
75 4 0.0929612 0.190147 0.5
79 4 0.109663 0.169141 0.5
39 2 0.214432 0.178463 0.5
9 1 0.368376 0.212019 0.5
24 2 0.356481 0.174985 0.5
6 1 0.454884 0.210587 0.5
52 3 0.592349 0.203677 0.5
63 4 0.741433 0.159903 0.5
8 1 0.882911 0.185538 0.5
30 2 0.959556 0.187867 0.5
42 3 0.205491 0.250087 0.5
43 3 0.239403 0.242667 0.5
19 1 0.537606 0.241119 0.5
4 1 0.710531 0.23463 0.5
72 4 0.788076 0.2219 0.5
37 2 0.0272876 0.267194 0.5
53 3 0.111633 0.280575 0.5
66 4 0.105514 0.303776 0.5
26 2 0.235511 0.305336 0.5
61 4 0.70471 0.286961 0.5
49 3 0.979502 0.293193 0.5
16 1 0.0145698 0.340391 0.5
12 1 0.65805 0.349432 0.5
22 2 0.802834 0.349924 0.5
57 3 0.811477 0.315496 0.5
36 2 0.864765 0.325557 0.5
20 1 0.055436 0.413624 0.5
23 2 0.507073 0.378209 0.5
21 2 0.813444 0.387886 0.5
44 3 0.136928 0.450905 0.5
32 2 0.19601 0.439076 0.5
55 3 0.25598 0.435198 0.5
64 4 0.356202 0.500128 0.5
67 4 0.317949 0.514733 0.5
74 4 0.82922 0.511385 0.5
78 4 0.348727 0.55067 0.5
35 2 0.391884 0.548463 0.5
41 3 0.452475 0.540742 0.5
51 3 0.730027 0.561031 0.5
80 4 0.840267 0.545265 0.5
17 1 0.0959446 0.628101 0.5
65 4 0.138445 0.583088 0.5
54 3 0.4308 0.631699 0.5
56 3 0.487941 0.648074 0.5
11 1 0.597946 0.664648 0.5
25 2 0.633225 0.628077 0.5
28 2 0.0985006 0.712356 0.5
10 1 0.211146 0.73241 0.5
48 3 0.491788 0.731494 0.5
69 4 0.976123 0.702501 0.5
18 1 0.0634121 0.744232 0.5
38 2 0.383457 0.757668 0.5
76 4 0.532935 0.774778 0.5
71 4 0.11603 0.810159 0.5
27 2 0.173506 0.835756 0.5
73 4 0.993174 0.836912 0.5
15 1 0.0674962 0.877733 0.5
46 3 0.222774 0.864902 0.5
77 4 0.419697 0.842328 0.5
58 3 0.777287 0.868514 0.5
62 4 0.889305 0.870151 0.5
31 2 0.931739 0.867009 0.5
13 1 0.139002 0.917118 0.5
68 4 0.140976 0.94057 0.5
7 1 0.0302777 0.973346 0.5
ITEM: TIMESTEP
70
ITEM: NUMBER OF ATOMS
80
ITEM: BOX BOUNDS pp pp pp
-6.4788548603375959e+00 6.4788548603375959e+00
-6.4788548603375959e+00 6.4788548603375959e+00
-1.0000000000000001e-01 1.0000000000000001e-01
ITEM: ATOMS id type xs ys zs
2 1 0.29577 0.00781226 0.5
47 3 0.437683 0.0447731 0.5
5 1 0.732264 0.0494002 0.5
60 3 0.18732 0.0750009 0.5
3 1 0.398118 0.0775164 0.5
1 1 0.0683724 0.12051 0.5
40 2 0.144415 0.0989793 0.5
14 1 0.164318 0.14413 0.5
45 3 0.256965 0.114359 0.5
59 3 0.376454 0.131462 0.5
34 2 0.445188 0.141029 0.5
29 2 0.679558 0.131192 0.5
33 2 0.817492 0.140987 0.5
50 3 0.934501 0.134584 0.5
70 4 0.0552263 0.180433 0.5
75 4 0.0926991 0.191881 0.5
79 4 0.110758 0.169193 0.5
39 2 0.215269 0.17886 0.5
9 1 0.368576 0.216994 0.5
24 2 0.354438 0.172297 0.5
6 1 0.455398 0.211984 0.5
52 3 0.593332 0.203018 0.5
63 4 0.741552 0.159894 0.5
8 1 0.881743 0.18665 0.5
30 2 0.961353 0.189085 0.5
42 3 0.202696 0.250083 0.5
43 3 0.241918 0.241582 0.5
19 1 0.537401 0.242067 0.5
4 1 0.710586 0.233114 0.5
72 4 0.788182 0.221882 0.5
37 2 0.0289783 0.264756 0.5
53 3 0.112282 0.278158 0.5
66 4 0.104876 0.306194 0.5
26 2 0.235891 0.307049 0.5
61 4 0.704595 0.288474 0.5
49 3 0.976913 0.292397 0.5
16 1 0.0149924 0.342772 0.5
12 1 0.657985 0.349518 0.5
22 2 0.800023 0.350163 0.5
57 3 0.810355 0.311481 0.5
36 2 0.868602 0.324454 0.5
20 1 0.0558118 0.414434 0.5
23 2 0.507073 0.378209 0.5
21 2 0.81354 0.392765 0.5
44 3 0.136178 0.451112 0.5
32 2 0.19598 0.438968 0.5
55 3 0.256848 0.43514 0.5
64 4 0.356255 0.49968 0.5
67 4 0.317619 0.514789 0.5
74 4 0.829012 0.510749 0.5
78 4 0.347197 0.550832 0.5
35 2 0.392991 0.548779 0.5
41 3 0.453175 0.540657 0.5
51 3 0.730027 0.561031 0.5
80 4 0.840474 0.545901 0.5
17 1 0.0953973 0.62819 0.5
65 4 0.138991 0.582505 0.5
54 3 0.430419 0.63159 0.5
56 3 0.488322 0.648183 0.5
11 1 0.595585 0.667096 0.5
25 2 0.635586 0.625629 0.5
28 2 0.101206 0.710362 0.5
10 1 0.211147 0.732408 0.5
48 3 0.491752 0.731457 0.5
69 4 0.976123 0.702501 0.5
18 1 0.0606952 0.746705 0.5
38 2 0.383457 0.757668 0.5
76 4 0.53297 0.774815 0.5
71 4 0.115863 0.810059 0.5
27 2 0.1728 0.834919 0.5
73 4 0.993231 0.83687 0.5
15 1 0.0666367 0.876846 0.5
46 3 0.223813 0.865509 0.5
77 4 0.419697 0.842328 0.5
58 3 0.777287 0.868514 0.5
62 4 0.887623 0.870276 0.5
31 2 0.93335 0.866918 0.5
13 1 0.139343 0.913999 0.5
68 4 0.141481 0.944605 0.5
7 1 0.0301484 0.973672 0.5
ITEM: TIMESTEP
80
ITEM: NUMBER OF ATOMS
80
ITEM: BOX BOUNDS pp pp pp
-6.4098467994993182e+00 6.4098467994993182e+00
-6.4098467994993182e+00 6.4098467994993182e+00
-1.0000000000000001e-01 1.0000000000000001e-01
ITEM: ATOMS id type xs ys zs
2 1 0.295768 0.00781055 0.5
47 3 0.44006 0.0426011 0.5
5 1 0.732429 0.049143 0.5
60 3 0.190401 0.0711002 0.5
3 1 0.395734 0.0773219 0.5
1 1 0.0657744 0.117624 0.5
40 2 0.141368 0.0958945 0.5
14 1 0.165531 0.149471 0.5
45 3 0.257129 0.114146 0.5
59 3 0.376111 0.13006 0.5
34 2 0.446289 0.139985 0.5
29 2 0.679224 0.13133 0.5
33 2 0.816519 0.14034 0.5
50 3 0.93468 0.13239 0.5
70 4 0.0543051 0.181671 0.5
75 4 0.0924333 0.193936 0.5
79 4 0.111922 0.169324 0.5
39 2 0.216341 0.179293 0.5
9 1 0.368637 0.222695 0.5
24 2 0.351982 0.169397 0.5
6 1 0.456007 0.21361 0.5
52 3 0.594529 0.20221 0.5
63 4 0.741754 0.159852 0.5
8 1 0.880371 0.188051 0.5
30 2 0.963517 0.190523 0.5
42 3 0.199459 0.250109 0.5
43 3 0.244836 0.240379 0.5
19 1 0.537243 0.243261 0.5
4 1 0.710582 0.231423 0.5
72 4 0.788363 0.221853 0.5
37 2 0.0309185 0.261915 0.5
53 3 0.113046 0.275421 0.5
66 4 0.104153 0.308938 0.5
26 2 0.236347 0.309113 0.5
61 4 0.704501 0.290199 0.5
49 3 0.973901 0.291467 0.5
16 1 0.0154036 0.345413 0.5
12 1 0.657869 0.349674 0.5
22 2 0.79674 0.350433 0.5
57 3 0.809086 0.306914 0.5
36 2 0.87299 0.323226 0.5
20 1 0.0562655 0.415482 0.5
23 2 0.507073 0.378209 0.5
21 2 0.813704 0.398289 0.5
44 3 0.135291 0.451398 0.5
32 2 0.195945 0.43883 0.5
55 3 0.257938 0.435069 0.5
64 4 0.356328 0.499083 0.5
67 4 0.317165 0.514838 0.5
74 4 0.828761 0.509979 0.5
78 4 0.345429 0.551062 0.5
35 2 0.394224 0.54921 0.5
41 3 0.454091 0.540543 0.5
51 3 0.730027 0.561031 0.5
80 4 0.840725 0.546671 0.5
17 1 0.0946949 0.628206 0.5
65 4 0.139678 0.581775 0.5
54 3 0.429913 0.631445 0.5
56 3 0.488828 0.648329 0.5
11 1 0.592885 0.669896 0.5
25 2 0.638286 0.62283 0.5
28 2 0.104308 0.708239 0.5
10 1 0.211157 0.732391 0.5
48 3 0.491688 0.731389 0.5
69 4 0.976123 0.702501 0.5
18 1 0.0575706 0.749503 0.5
38 2 0.383457 0.757668 0.5
76 4 0.533035 0.774883 0.5
71 4 0.11564 0.809906 0.5
27 2 0.172058 0.833841 0.5
73 4 0.993322 0.836778 0.5
15 1 0.0655469 0.875718 0.5
46 3 0.225078 0.866231 0.5
77 4 0.419697 0.842328 0.5
58 3 0.777287 0.868514 0.5
62 4 0.88567 0.870421 0.5
31 2 0.935167 0.866841 0.5
13 1 0.139838 0.910683 0.5
68 4 0.14203 0.949175 0.5
7 1 0.0299661 0.974138 0.5
ITEM: TIMESTEP
90
ITEM: NUMBER OF ATOMS
80
ITEM: BOX BOUNDS pp pp pp
-6.3989315118212664e+00 6.3989315118212664e+00
-6.3989315118212664e+00 6.3989315118212664e+00
-1.0000000000000001e-01 1.0000000000000001e-01
ITEM: ATOMS id type xs ys zs
2 1 0.295748 0.00779704 0.5
47 3 0.44271 0.0402106 0.5
5 1 0.732653 0.0487951 0.5
60 3 0.193774 0.0669176 0.5
3 1 0.393094 0.0767939 0.5
1 1 0.0627027 0.114399 0.5
40 2 0.138144 0.0924732 0.5
14 1 0.166894 0.155112 0.5
45 3 0.257362 0.113848 0.5
59 3 0.375689 0.128602 0.5
34 2 0.447656 0.138847 0.5
29 2 0.678754 0.131477 0.5
33 2 0.815356 0.139547 0.5
50 3 0.934898 0.1299 0.5
70 4 0.0532472 0.18306 0.5
75 4 0.0921562 0.196243 0.5
79 4 0.113083 0.169513 0.5
39 2 0.217663 0.179743 0.5
9 1 0.368555 0.22893 0.5
24 2 0.349167 0.166413 0.5
6 1 0.456667 0.215407 0.5
52 3 0.595914 0.201268 0.5
63 4 0.742044 0.159765 0.5
8 1 0.878848 0.189717 0.5
30 2 0.965974 0.192122 0.5
42 3 0.19587 0.250177 0.5
43 3 0.248085 0.239116 0.5
19 1 0.537157 0.244683 0.5
4 1 0.710508 0.229639 0.5
72 4 0.788623 0.221814 0.5
37 2 0.0330452 0.258777 0.5
53 3 0.113919 0.272447 0.5
66 4 0.103364 0.311925 0.5
26 2 0.236865 0.31146 0.5
61 4 0.704444 0.292078 0.5
49 3 0.970556 0.290424 0.5
16 1 0.0157728 0.348199 0.5
12 1 0.657691 0.349907 0.5
22 2 0.793086 0.350721 0.5
57 3 0.807725 0.30195 0.5
36 2 0.877748 0.321944 0.5
20 1 0.056785 0.416763 0.5
23 2 0.507073 0.378209 0.5
21 2 0.813961 0.404248 0.5
44 3 0.134297 0.451768 0.5
32 2 0.195908 0.438663 0.5
55 3 0.25923 0.434984 0.5
64 4 0.356419 0.498355 0.5
67 4 0.31659 0.514872 0.5
74 4 0.828473 0.509095 0.5
78 4 0.343474 0.551359 0.5
35 2 0.395536 0.549748 0.5
41 3 0.455217 0.540399 0.5
51 3 0.730027 0.561031 0.5
80 4 0.841013 0.547555 0.5
17 1 0.093837 0.628123 0.5
65 4 0.140494 0.580911 0.5
54 3 0.429291 0.631268 0.5
56 3 0.489451 0.648507 0.5
11 1 0.589923 0.672966 0.5
25 2 0.641248 0.619759 0.5
28 2 0.107714 0.706074 0.5
10 1 0.211202 0.732351 0.5
48 3 0.491593 0.731289 0.5
69 4 0.976123 0.702501 0.5
18 1 0.0541174 0.752536 0.5
38 2 0.383457 0.757668 0.5
76 4 0.533129 0.774983 0.5
71 4 0.115366 0.809698 0.5
27 2 0.171319 0.832535 0.5
73 4 0.993444 0.83662 0.5
15 1 0.0642423 0.874384 0.5
46 3 0.226553 0.867044 0.5
77 4 0.419697 0.842328 0.5
58 3 0.777287 0.868514 0.5
62 4 0.883498 0.870582 0.5
31 2 0.937125 0.866787 0.5
13 1 0.140474 0.907305 0.5
68 4 0.142607 0.954152 0.5
7 1 0.0297346 0.97474 0.5
ITEM: TIMESTEP
100
ITEM: NUMBER OF ATOMS
80
ITEM: BOX BOUNDS pp pp pp
-6.4296866243902953e+00 6.4296866243902953e+00
-6.4296866243902953e+00 6.4296866243902953e+00
-1.0000000000000001e-01 1.0000000000000001e-01
ITEM: ATOMS id type xs ys zs
2 1 0.295697 0.00776114 0.5
47 3 0.44557 0.0376664 0.5
5 1 0.732931 0.0483652 0.5
60 3 0.197331 0.0626069 0.5
3 1 0.390279 0.0759086 0.5
1 1 0.0592734 0.110984 0.5
40 2 0.134856 0.0888041 0.5
14 1 0.168329 0.160847 0.5
45 3 0.257653 0.11347 0.5
59 3 0.375224 0.127179 0.5
34 2 0.449245 0.13764 0.5
29 2 0.678155 0.131617 0.5
33 2 0.814037 0.138615 0.5
50 3 0.935146 0.127198 0.5
70 4 0.0520869 0.184549 0.5
75 4 0.0918608 0.198717 0.5
79 4 0.114171 0.169726 0.5
39 2 0.219245 0.18019 0.5
9 1 0.368328 0.235505 0.5
24 2 0.346051 0.163455 0.5
6 1 0.457344 0.217314 0.5
52 3 0.59745 0.200214 0.5
63 4 0.742411 0.159623 0.5
8 1 0.877233 0.191607 0.5
30 2 0.968628 0.19381 0.5
42 3 0.192039 0.250309 0.5
43 3 0.251577 0.237851 0.5
19 1 0.537168 0.246309 0.5
4 1 0.710359 0.227831 0.5
72 4 0.788959 0.221767 0.5
37 2 0.0352937 0.255469 0.5
53 3 0.114887 0.269324 0.5
66 4 0.102534 0.315071 0.5
26 2 0.237425 0.314002 0.5
61 4 0.704436 0.294054 0.5
49 3 0.966985 0.289293 0.5
16 1 0.0160724 0.351011 0.5
12 1 0.657447 0.350222 0.5
22 2 0.78918 0.351008 0.5
57 3 0.806335 0.296716 0.5
36 2 0.882681 0.32067 0.5
20 1 0.0573581 0.418256 0.5
23 2 0.507073 0.378209 0.5
21 2 0.814325 0.410469 0.5
44 3 0.133231 0.452221 0.5
32 2 0.19587 0.438468 0.5
55 3 0.260697 0.43489 0.5
64 4 0.356528 0.497524 0.5
67 4 0.315906 0.514886 0.5
74 4 0.828156 0.508122 0.5
78 4 0.341385 0.551715 0.5
35 2 0.396875 0.550374 0.5
41 3 0.456538 0.540224 0.5
51 3 0.730027 0.561031 0.5
80 4 0.841331 0.548528 0.5
17 1 0.0928284 0.627926 0.5
65 4 0.141419 0.579937 0.5
54 3 0.428573 0.631073 0.5
56 3 0.490174 0.648714 0.5
11 1 0.586785 0.676219 0.5
25 2 0.644386 0.616506 0.5
28 2 0.111325 0.703946 0.5
10 1 0.211303 0.732289 0.5
48 3 0.49147 0.73116 0.5
69 4 0.976123 0.702501 0.5
18 1 0.050426 0.755701 0.5
38 2 0.383457 0.757668 0.5
76 4 0.533252 0.775112 0.5
71 4 0.115041 0.809433 0.5
27 2 0.170622 0.831019 0.5
73 4 0.993594 0.836387 0.5
15 1 0.0627492 0.872909 0.5
46 3 0.228205 0.867924 0.5
77 4 0.419697 0.842328 0.5
58 3 0.777287 0.868514 0.5
62 4 0.881167 0.870754 0.5
31 2 0.939157 0.866769 0.5
13 1 0.141232 0.903983 0.5
68 4 0.143196 0.959406 0.5
7 1 0.029462 0.975461 0.5
ITEM: TIMESTEP
110
ITEM: NUMBER OF ATOMS
80
ITEM: BOX BOUNDS pp pp pp
-6.4801207516094106e+00 6.4801207516094106e+00
-6.4801207516094106e+00 6.4801207516094106e+00
-1.0000000000000001e-01 1.0000000000000001e-01
ITEM: ATOMS id type xs ys zs
2 1 0.295604 0.00769445 0.5
47 3 0.448583 0.0350247 0.5
5 1 0.733254 0.0478665 0.5
60 3 0.200979 0.0582883 0.5
3 1 0.387363 0.0746625 0.5
1 1 0.0556069 0.107517 0.5
40 2 0.131602 0.0849701 0.5
14 1 0.169735 0.166487 0.5
45 3 0.257984 0.113023 0.5
59 3 0.374757 0.125846 0.5
34 2 0.451018 0.136377 0.5
29 2 0.677443 0.131736 0.5
33 2 0.812597 0.137557 0.5
50 3 0.935411 0.124368 0.5
70 4 0.0508607 0.186062 0.5
75 4 0.0915496 0.201296 0.5
79 4 0.11513 0.169923 0.5
39 2 0.221092 0.180616 0.5
9 1 0.367956 0.242281 0.5
24 2 0.342673 0.160609 0.5
6 1 0.458005 0.21928 0.5
52 3 0.599103 0.199069 0.5
63 4 0.742841 0.159424 0.5
8 1 0.875587 0.193673 0.5
30 2 0.971386 0.195522 0.5
42 3 0.188084 0.250546 0.5
43 3 0.255228 0.236637 0.5
19 1 0.537296 0.248109 0.5
4 1 0.710138 0.226057 0.5
72 4 0.789363 0.221716 0.5
37 2 0.0375985 0.252134 0.5
53 3 0.115932 0.266129 0.5
66 4 0.101681 0.318299 0.5
26 2 0.238008 0.316652 0.5
61 4 0.704485 0.296074 0.5
49 3 0.963292 0.288097 0.5
16 1 0.0162794 0.353742 0.5
12 1 0.657135 0.350617 0.5
22 2 0.785141 0.351279 0.5
57 3 0.804968 0.291323 0.5
36 2 0.887624 0.319426 0.5
20 1 0.0579741 0.419945 0.5
23 2 0.507073 0.378209 0.5
21 2 0.81478 0.416837 0.5
44 3 0.132121 0.452756 0.5
32 2 0.195834 0.438249 0.5
55 3 0.262312 0.434788 0.5
64 4 0.356653 0.496615 0.5
67 4 0.315129 0.514872 0.5
74 4 0.827817 0.507085 0.5
78 4 0.339209 0.552123 0.5
35 2 0.398193 0.551064 0.5
41 3 0.458035 0.540018 0.5
51 3 0.730027 0.561031 0.5
80 4 0.841669 0.549565 0.5
17 1 0.0916752 0.627604 0.5
65 4 0.142434 0.578875 0.5
54 3 0.427782 0.630872 0.5
56 3 0.490971 0.648943 0.5
11 1 0.583553 0.679576 0.5
25 2 0.647623 0.613151 0.5
28 2 0.115056 0.701913 0.5
10 1 0.211476 0.732206 0.5
48 3 0.491323 0.731005 0.5
69 4 0.976123 0.702501 0.5
18 1 0.0465805 0.758901 0.5
38 2 0.383457 0.757668 0.5
76 4 0.533399 0.775267 0.5
71 4 0.114665 0.809113 0.5
27 2 0.169999 0.829313 0.5
73 4 0.993765 0.836069 0.5
15 1 0.061099 0.871363 0.5
46 3 0.23 0.868853 0.5
77 4 0.419697 0.842328 0.5
58 3 0.777287 0.868514 0.5
62 4 0.878734 0.870932 0.5
31 2 0.941204 0.866792 0.5
13 1 0.142096 0.900807 0.5
68 4 0.143784 0.964821 0.5
7 1 0.0291581 0.976281 0.5
ITEM: TIMESTEP
120
ITEM: NUMBER OF ATOMS
80
ITEM: BOX BOUNDS pp pp pp
-6.5262245324126837e+00 6.5262245324126837e+00
-6.5262245324126837e+00 6.5262245324126837e+00
-1.0000000000000001e-01 1.0000000000000001e-01
ITEM: ATOMS id type xs ys zs
2 1 0.295457 0.00758907 0.5
47 3 0.451704 0.0323228 0.5
5 1 0.733614 0.0473124 0.5
60 3 0.204662 0.054002 0.5
3 1 0.384403 0.0730615 0.5
1 1 0.0517755 0.104086 0.5
40 2 0.128457 0.0810333 0.5
14 1 0.171029 0.17195 0.5
45 3 0.258349 0.112512 0.5
59 3 0.374332 0.12463 0.5
34 2 0.45294 0.13506 0.5
29 2 0.676635 0.131823 0.5
33 2 0.811067 0.136383 0.5
50 3 0.935683 0.121483 0.5
70 4 0.0495948 0.187529 0.5
75 4 0.0912463 0.203933 0.5
79 4 0.115915 0.170065 0.5
39 2 0.223208 0.181007 0.5
9 1 0.36744 0.249174 0.5
24 2 0.339057 0.157934 0.5
6 1 0.458623 0.221267 0.5
52 3 0.600844 0.197852 0.5
63 4 0.74332 0.159164 0.5
8 1 0.873958 0.195875 0.5
30 2 0.97417 0.197206 0.5
42 3 0.18412 0.25092 0.5
43 3 0.258971 0.23552 0.5
19 1 0.537558 0.250062 0.5
4 1 0.70985 0.224356 0.5
72 4 0.789824 0.221662 0.5
37 2 0.0398948 0.248906 0.5
53 3 0.11702 0.262925 0.5
66 4 0.100821 0.321551 0.5
26 2 0.238595 0.319339 0.5
61 4 0.704597 0.298103 0.5
49 3 0.959594 0.286835 0.5
16 1 0.016376 0.356308 0.5
12 1 0.656755 0.351091 0.5
22 2 0.781032 0.351537 0.5
57 3 0.803663 0.285843 0.5