ITEM: TIMESTEP
250
ITEM: NUMBER OF ATOMS
63
ITEM: BOX BOUNDS pp pp pp
-4.7912012949423035e+00 4.7912012949423035e+00
-4.7911454983148607e+00 4.7911454983148607e+00
-1.0000000000000001e-01 1.0000000000000001e-01
ITEM: ATOMS id type xs ys zs
52 1 0.126307 0.117861 0.500138
7 1 0.229681 0.0572025 0.499996
53 1 0.350213 0.0400788 0.499826
68 1 0.421863 0.0273584 0.500442
35 1 0.435838 0.119778 0.499855
37 1 0.501837 0.988727 0.500048
39 1 0.735548 0.0496248 0.499879
2 1 0.883047 0.0390941 0.499472
36 1 0.00751215 0.123982 0.499719
28 1 0.0907552 0.203137 0.499726
4 1 0.240398 0.213816 0.50047
44 1 0.331569 0.143444 0.499846
32 1 0.0166155 0.28871 0.499787
41 1 0.125843 0.283851 0.499926
49 1 0.236208 0.325128 0.500102
71 1 0.313531 0.320995 0.500063
10 1 0.401361 0.251153 0.500266
25 1 0.0347475 0.42476 0.49977
45 1 0.149355 0.36762 0.499484
80 1 0.301469 0.386587 0.499337
79 1 0.236839 0.39928 0.500338
30 1 0.376988 0.4001 0.500213
17 1 0.715959 0.445681 0.499592
26 1 0.91905 0.353231 0.500088
24 1 0.0459057 0.534457 0.500096
19 1 0.172664 0.482713 0.500402
50 1 0.288465 0.472278 0.500007
9 1 0.40597 0.529888 0.499283
8 1 0.568305 0.522291 0.500321
46 1 0.842802 0.444275 0.499694
23 1 0.912817 0.529762 0.499661
65 1 0.935539 0.441293 0.499596
11 1 0.149285 0.633516 0.500292
27 1 0.275175 0.575579 0.499973
34 1 0.498583 0.642418 0.499827
40 1 0.62181 0.651915 0.500395
60 1 0.716232 0.57762 0.500329
54 1 0.727425 0.679631 0.500186
59 1 0.799468 0.52456 0.499934
6 1 0.997691 0.651966 0.500355
77 1 0.258006 0.657267 0.500429
66 1 0.249156 0.727627 0.500162
64 1 0.191761 0.742659 0.499574
1 1 0.361815 0.698814 0.501055
47 1 0.504596 0.74853 0.500144
51 1 0.610111 0.763303 0.500764
3 1 0.712134 0.813242 0.500012
15 1 0.836669 0.648433 0.499654
13 1 0.0784205 0.771356 0.500263
18 1 0.289835 0.833215 0.499789
20 1 0.433522 0.850513 0.500279
76 1 0.554179 0.811141 0.499507
22 1 0.909875 0.768657 0.499667
75 1 0.0874952 0.889101 0.500041
5 1 0.0659198 0.999794 0.499994
29 1 0.184117 0.921591 0.499922
42 1 0.304468 0.956373 0.500143
43 1 0.388207 0.957696 0.49972
38 1 0.584092 0.901996 0.499593
58 1 0.662826 0.96371 0.500067
21 1 0.773816 0.940639 0.499698
33 1 0.878634 0.896192 0.500261
70 1 0.957277 0.959115 0.500265
ITEM: TIMESTEP
500
ITEM: NUMBER OF ATOMS
63
ITEM: BOX BOUNDS pp pp pp
-4.7900034694642333e+00 4.7900034694642333e+00
-4.7911758257725250e+00 4.7911758257725250e+00
-1.0000000000000001e-01 1.0000000000000001e-01
ITEM: ATOMS id type xs ys zs
52 1 0.125988 0.11765 0.500043
7 1 0.230324 0.0582733 0.501146
53 1 0.350402 0.0404995 0.500566
68 1 0.422095 0.0274811 0.500216
35 1 0.436413 0.119858 0.500004
37 1 0.502101 0.988895 0.500826
39 1 0.735202 0.0499724 0.500664
2 1 0.882905 0.0390622 0.500278
36 1 0.00745249 0.123709 0.500415
28 1 0.0905542 0.20315 0.500039
4 1 0.24058 0.214691 0.49934
44 1 0.33178 0.144534 0.501735
32 1 0.0171376 0.289743 0.499055
41 1 0.126435 0.283476 0.50095
49 1 0.235783 0.325396 0.500218
71 1 0.31332 0.32098 0.49965
10 1 0.401563 0.251534 0.500517
25 1 0.0343501 0.425218 0.500045
45 1 0.149063 0.36775 0.49823
80 1 0.300917 0.386685 0.499248
79 1 0.236444 0.399331 0.498132
30 1 0.376625 0.400518 0.50195
17 1 0.716973 0.445386 0.501582
26 1 0.919017 0.354003 0.500608
24 1 0.0458792 0.534999 0.501637
19 1 0.172609 0.482869 0.499732
50 1 0.288308 0.472519 0.501054
9 1 0.406243 0.530019 0.500239
8 1 0.569013 0.5221 0.499754
46 1 0.843429 0.445458 0.500467
23 1 0.912785 0.530669 0.501514
65 1 0.935743 0.442116 0.500282
11 1 0.149909 0.634264 0.500342
27 1 0.275208 0.575133 0.499402
34 1 0.498976 0.642373 0.499733
40 1 0.622278 0.651832 0.499393
60 1 0.715717 0.577646 0.500324
54 1 0.727395 0.679301 0.499009
59 1 0.799432 0.525306 0.499939
6 1 0.997592 0.652403 0.500301
77 1 0.258513 0.657313 0.500883
66 1 0.24952 0.727846 0.50054
64 1 0.192387 0.743608 0.500736
1 1 0.362292 0.699032 0.499893
47 1 0.504206 0.748406 0.500111
51 1 0.60927 0.763428 0.501077
3 1 0.71142 0.813538 0.497459
15 1 0.836476 0.649014 0.499003
13 1 0.0783589 0.771446 0.500132
18 1 0.290588 0.83411 0.499739
20 1 0.434054 0.85095 0.500387
76 1 0.553574 0.810954 0.499888
22 1 0.909838 0.768878 0.498742
75 1 0.0882491 0.888858 0.500343
5 1 0.0658386 0.999506 0.500648
29 1 0.185086 0.922729 0.499901
42 1 0.304671 0.957174 0.500567
43 1 0.388529 0.957924 0.500093
38 1 0.583979 0.902116 0.499698
58 1 0.661877 0.964532 0.501268
21 1 0.772573 0.941214 0.498364
33 1 0.876977 0.896088 0.501576
70 1 0.956738 0.958661 0.49956
ITEM: TIMESTEP
750
ITEM: NUMBER OF ATOMS
63
ITEM: BOX BOUNDS pp pp pp
-4.7888056439861630e+00 4.7888056439861630e+00
-4.7900600287765522e+00 4.7900600287765522e+00
-1.0000000000000001e-01 1.0000000000000001e-01
ITEM: ATOMS id type xs ys zs
52 1 0.127421 0.118766 0.502868
7 1 0.230551 0.0572153 0.501746
53 1 0.350568 0.0405031 0.502446
68 1 0.422546 0.0282653 0.500083
35 1 0.436798 0.120073 0.500714
37 1 0.502824 0.989823 0.498341
39 1 0.73484 0.0506134 0.500821
2 1 0.882329 0.0399354 0.500091
36 1 0.0080981 0.124003 0.499941
28 1 0.0911143 0.203536 0.498652
4 1 0.241432 0.214263 0.497926
44 1 0.332721 0.143725 0.501677
32 1 0.0171038 0.289283 0.497591
41 1 0.126167 0.284054 0.501411
49 1 0.237077 0.32585 0.501587
71 1 0.314155 0.321598 0.498792
10 1 0.402334 0.251976 0.500898
25 1 0.0349506 0.425162 0.499055
45 1 0.149795 0.368332 0.497568
80 1 0.301977 0.387108 0.498204
79 1 0.237306 0.399699 0.499629
30 1 0.377642 0.400206 0.503019
17 1 0.717377 0.445296 0.501188
26 1 0.919075 0.353239 0.501784
24 1 0.0464377 0.534784 0.500394
19 1 0.17321 0.483238 0.501473
50 1 0.289401 0.473037 0.501573
9 1 0.406787 0.529629 0.499552
8 1 0.569688 0.52209 0.501915
46 1 0.843491 0.444678 0.500311
23 1 0.913483 0.529878 0.50182
65 1 0.935882 0.441276 0.499952
11 1 0.149326 0.634473 0.498035
27 1 0.275915 0.576242 0.499987
34 1 0.499299 0.641857 0.499592
40 1 0.622072 0.651869 0.499767
60 1 0.716149 0.57665 0.501086
54 1 0.727455 0.679305 0.501194
59 1 0.800489 0.524988 0.501
6 1 0.998184 0.652484 0.499337
77 1 0.258587 0.657958 0.501617
66 1 0.249317 0.728458 0.499304
64 1 0.191555 0.743767 0.501519
1 1 0.362542 0.699121 0.498635
47 1 0.50548 0.748086 0.500095
51 1 0.608847 0.763529 0.501146
3 1 0.710816 0.812958 0.497084
15 1 0.837622 0.648855 0.497528
13 1 0.0781261 0.771828 0.501195
18 1 0.291346 0.833753 0.500844
20 1 0.435065 0.851186 0.502487
76 1 0.553607 0.811646 0.500354
22 1 0.910356 0.769796 0.498087
75 1 0.0876554 0.88887 0.499797
5 1 0.0653017 0.999539 0.500256
29 1 0.184644 0.921555 0.501275
42 1 0.304993 0.956624 0.502368
43 1 0.38892 0.958493 0.4967
38 1 0.583695 0.90209 0.498868
58 1 0.661715 0.96515 0.502127
21 1 0.772584 0.941143 0.498511
33 1 0.877516 0.897081 0.501634
70 1 0.956275 0.959805 0.499081
ITEM: TIMESTEP
1000
ITEM: NUMBER OF ATOMS
63
ITEM: BOX BOUNDS pp pp pp
-4.7876078185080919e+00 4.7876078185080919e+00
-4.7949583982283004e+00 4.7949583982283004e+00
-1.0000000000000001e-01 1.0000000000000001e-01
ITEM: ATOMS id type xs ys zs
52 1 0.126815 0.117686 0.503178
7 1 0.230153 0.0580035 0.501869
53 1 0.35067 0.0406254 0.502667
68 1 0.422701 0.0282824 0.49864
35 1 0.436561 0.120583 0.502063
37 1 0.502544 0.989747 0.498724
39 1 0.735566 0.0503272 0.501041
2 1 0.883024 0.0387415 0.500332
36 1 0.00766581 0.123642 0.500362
28 1 0.0909702 0.20277 0.497427
4 1 0.240773 0.21496 0.499151
44 1 0.332105 0.144797 0.50108
32 1 0.017022 0.288447 0.498132
41 1 0.125943 0.28366 0.501423
49 1 0.237529 0.3264 0.502103
71 1 0.314726 0.32162 0.49847
10 1 0.402245 0.251677 0.501021
25 1 0.0354849 0.426139 0.498496
45 1 0.15043 0.367571 0.496925
80 1 0.302651 0.387464 0.498287
79 1 0.237904 0.40039 0.501473
30 1 0.378119 0.400778 0.502009
17 1 0.716847 0.445913 0.502377
26 1 0.919693 0.353402 0.501335
24 1 0.0464361 0.534748 0.501997
19 1 0.173647 0.483081 0.501233
50 1 0.289132 0.472906 0.499892
9 1 0.406657 0.530154 0.501321
8 1 0.56919 0.521987 0.503584
46 1 0.843697 0.44477 0.500081
23 1 0.913472 0.52977 0.502058
65 1 0.936146 0.441305 0.50033
11 1 0.149984 0.6338 0.498283
27 1 0.276007 0.576128 0.499327
34 1 0.499462 0.642565 0.499938
40 1 0.622087 0.651761 0.499942
60 1 0.71663 0.577443 0.501128
54 1 0.727914 0.679418 0.498563
59 1 0.800186 0.52467 0.499464
6 1 0.998663 0.652224 0.498855
77 1 0.258703 0.657729 0.501242
66 1 0.250237 0.727844 0.497082
64 1 0.192596 0.742297 0.499435
1 1 0.362844 0.699256 0.4996
47 1 0.504715 0.748878 0.499488
51 1 0.609616 0.7632 0.502768
3 1 0.712024 0.812961 0.49682
15 1 0.837491 0.648246 0.496567
13 1 0.0790958 0.771383 0.500935
18 1 0.291263 0.833936 0.501111
20 1 0.434871 0.851607 0.502388
76 1 0.554191 0.811355 0.49937
22 1 0.910689 0.769008 0.497125
75 1 0.0879974 0.888443 0.500134
5 1 0.065145 0.998538 0.501002
29 1 0.184973 0.922195 0.502044
42 1 0.304768 0.956956 0.501638
43 1 0.389084 0.958563 0.49546
38 1 0.58421 0.90248 0.498377
58 1 0.662213 0.965426 0.503202
21 1 0.773093 0.941348 0.501382
33 1 0.87686 0.895948 0.502475
70 1 0.956213 0.957673 0.500231
ITEM: TIMESTEP
1250
ITEM: NUMBER OF ATOMS
63
ITEM: BOX BOUNDS pp pp pp
-4.7864099930300217e+00 4.7864099930300217e+00
-4.7890445618007202e+00 4.7890445618007202e+00
-1.0000000000000001e-01 1.0000000000000001e-01
ITEM: ATOMS id type xs ys zs
52 1 0.126555 0.117488 0.503485
7 1 0.230726 0.0582566 0.50189
53 1 0.350983 0.0404722 0.503363
68 1 0.423239 0.0278507 0.49591
35 1 0.437091 0.120553 0.504194
37 1 0.503086 0.9897 0.498144
39 1 0.735501 0.0512811 0.500144
2 1 0.883462 0.0383952 0.501365
36 1 0.00762591 0.124391 0.50124
28 1 0.0919951 0.202893 0.499053
4 1 0.242084 0.215131 0.497672
44 1 0.332543 0.14484 0.501204
32 1 0.0173652 0.288473 0.499054
41 1 0.126943 0.28398 0.502421
49 1 0.237045 0.326542 0.503277
71 1 0.314356 0.320465 0.501545
10 1 0.403202 0.251864 0.500847
25 1 0.0343938 0.424898 0.499473
45 1 0.148822 0.368079 0.495988
80 1 0.301976 0.386177 0.499512
79 1 0.237471 0.400208 0.500888
30 1 0.377093 0.400343 0.501237
17 1 0.716325 0.444998 0.503694
26 1 0.919451 0.353179 0.501456
24 1 0.0458006 0.534419 0.502489
19 1 0.172722 0.482769 0.500508
50 1 0.288454 0.472222 0.498542
9 1 0.40572 0.529599 0.500201
8 1 0.5694 0.522599 0.503428
46 1 0.843124 0.444036 0.499315
23 1 0.912719 0.5298 0.502152
65 1 0.935018 0.441228 0.499003
11 1 0.1495 0.633687 0.49804
27 1 0.275015 0.575534 0.499377
34 1 0.499566 0.64267 0.501116
40 1 0.62276 0.652301 0.499382
60 1 0.71594 0.577365 0.503344
54 1 0.728043 0.679259 0.499071
59 1 0.799592 0.523997 0.499059
6 1 0.997798 0.652056 0.499477
77 1 0.25871 0.657578 0.501534
66 1 0.250098 0.728007 0.498972
64 1 0.192618 0.742454 0.498853
1 1 0.363079 0.698583 0.499421
47 1 0.505256 0.749019 0.499539
51 1 0.609642 0.764119 0.502377
3 1 0.712103 0.813107 0.496297
15 1 0.837165 0.648137 0.493988
13 1 0.0787127 0.771812 0.5024
18 1 0.291099 0.833627 0.500551
20 1 0.435079 0.851705 0.503709
76 1 0.554006 0.812405 0.500112
22 1 0.910646 0.768638 0.49526
75 1 0.0882821 0.889243 0.500282
5 1 0.0655539 0.999694 0.500985
29 1 0.184659 0.921938 0.501935
42 1 0.304956 0.95707 0.500779
43 1 0.389054 0.958222 0.494819
38 1 0.584727 0.902463 0.5006
58 1 0.661419 0.966756 0.503946
21 1 0.772264 0.941641 0.501904
33 1 0.876434 0.895656 0.501037
70 1 0.956612 0.957821 0.499487
ITEM: TIMESTEP
1500
ITEM: NUMBER OF ATOMS
63
ITEM: BOX BOUNDS pp pp pp
-4.7852121675519506e+00 4.7852121675519506e+00
-4.7925341245057709e+00 4.7925341245057709e+00
-1.0000000000000001e-01 1.0000000000000001e-01
ITEM: ATOMS id type xs ys zs
52 1 0.126614 0.117994 0.505101
7 1 0.23074 0.0583067 0.501652
53 1 0.351148 0.0409021 0.502183
68 1 0.4235 0.0284071 0.494619
35 1 0.43731 0.121084 0.502804
37 1 0.503214 0.98891 0.498369
39 1 0.736641 0.0516863 0.499208
2 1 0.883454 0.0378404 0.501662
36 1 0.00703488 0.123845 0.501586
28 1 0.091144 0.20301 0.500505
4 1 0.241207 0.214203 0.498064
44 1 0.332974 0.14421 0.501091
32 1 0.0165775 0.288491 0.499779
41 1 0.126687 0.283379 0.504384
49 1 0.235884 0.325249 0.503348
71 1 0.313274 0.320876 0.502267
10 1 0.40204 0.251774 0.500632
25 1 0.0344157 0.425506 0.499837
45 1 0.148836 0.36724 0.494101
80 1 0.30182 0.386752 0.499137
79 1 0.237511 0.399005 0.501436
30 1 0.377341 0.400076 0.502265
17 1 0.715855 0.445539 0.504487
26 1 0.918453 0.352055 0.500949
24 1 0.0456621 0.534484 0.502276
19 1 0.172839 0.481819 0.502209
50 1 0.28865 0.472349 0.497474
9 1 0.405784 0.53031 0.500705
8 1 0.568386 0.522481 0.503882
46 1 0.843226 0.443912 0.497961
23 1 0.912958 0.5289 0.503059
65 1 0.934684 0.440609 0.497608
11 1 0.149254 0.632999 0.500823
27 1 0.275056 0.57591 0.498119
34 1 0.498714 0.642164 0.502316
40 1 0.622132 0.652199 0.500689
60 1 0.716075 0.578107 0.504395
54 1 0.727621 0.680356 0.500669
59 1 0.799581 0.524188 0.498182
6 1 0.997681 0.651881 0.499464
77 1 0.258237 0.657776 0.503104
66 1 0.249162 0.728287 0.498192
64 1 0.191241 0.741841 0.497262
1 1 0.362017 0.699871 0.500721
47 1 0.504747 0.748604 0.500482
51 1 0.610204 0.764177 0.502121
3 1 0.7127 0.813686 0.495827
15 1 0.836804 0.647517 0.495358
13 1 0.0781579 0.771048 0.500751
18 1 0.290139 0.834186 0.501839
20 1 0.434344 0.851203 0.503173
76 1 0.554008 0.811381 0.500831
22 1 0.909988 0.768433 0.496723
75 1 0.0889355 0.888046 0.501508
5 1 0.0642772 0.998701 0.502446
29 1 0.184687 0.922917 0.501411
42 1 0.305096 0.957302 0.502046
43 1 0.389492 0.958761 0.496322
38 1 0.586448 0.902121 0.50092
58 1 0.66171 0.968092 0.504983
21 1 0.772096 0.942051 0.501148
33 1 0.876052 0.895532 0.501388
70 1 0.955867 0.956335 0.499327
ITEM: TIMESTEP
1750
ITEM: NUMBER OF ATOMS
63
ITEM: BOX BOUNDS pp pp pp
-4.7840143420738803e+00 4.7840143420738803e+00
-4.7907886159091451e+00 4.7907886159091451e+00
-1.0000000000000001e-01 1.0000000000000001e-01
ITEM: ATOMS id type xs ys zs
52 1 0.127428 0.116923 0.504936
7 1 0.231862 0.0576201 0.50066
53 1 0.351756 0.0403608 0.501499
68 1 0.423997 0.0275865 0.4938
35 1 0.437456 0.120249 0.502072
37 1 0.504047 0.989424 0.499322
39 1 0.73671 0.0528485 0.500554
2 1 0.883511 0.0389826 0.501466
36 1 0.00745662 0.123666 0.502698
28 1 0.0914743 0.201974 0.500164
4 1 0.241178 0.21411 0.496037
44 1 0.333399 0.144061 0.501039
32 1 0.0161361 0.286743 0.499119
41 1 0.126062 0.283332 0.504605
49 1 0.235892 0.325275 0.504321
71 1 0.313975 0.321097 0.49984
10 1 0.402923 0.252035 0.500876
25 1 0.0344118 0.424936 0.50018
45 1 0.148274 0.367353 0.49297
80 1 0.302089 0.386757 0.498158
79 1 0.23683 0.399425 0.501985
30 1 0.377268 0.400614 0.502878
17 1 0.715857 0.445827 0.502695
26 1 0.9195 0.352546 0.50102
24 1 0.0461432 0.534768 0.501299
19 1 0.172642 0.482347 0.502792
50 1 0.288698 0.472639 0.49737
9 1 0.406013 0.530579 0.500218
8 1 0.569181 0.523095 0.504734
46 1 0.843139 0.443855 0.497509
23 1 0.912967 0.529674 0.503527
65 1 0.935065 0.440795 0.495574
11 1 0.14864 0.633547 0.501903
27 1 0.274307 0.57603 0.495369
34 1 0.49923 0.643239 0.501682
40 1 0.622058 0.652427 0.500567
60 1 0.716756 0.578141 0.506842
54 1 0.727869 0.680082 0.500775
59 1 0.799886 0.524272 0.497618
6 1 0.997525 0.652022 0.500632
77 1 0.257375 0.657749 0.502085
66 1 0.248364 0.728065 0.498984
64 1 0.190796 0.742297 0.496838
1 1 0.36166 0.699073 0.498219
47 1 0.504796 0.749268 0.501164
51 1 0.610676 0.763906 0.5031
3 1 0.713666 0.813148 0.49741
15 1 0.836435 0.647562 0.495929
13 1 0.0777855 0.771832 0.499043
18 1 0.289708 0.833764 0.502173
20 1 0.432823 0.850355 0.50197
76 1 0.554519 0.812079 0.501348
22 1 0.909158 0.768947 0.498469
75 1 0.0876036 0.888978 0.50268
5 1 0.0656035 0.999292 0.501138
29 1 0.184353 0.922696 0.500212
42 1 0.306216 0.956607 0.503398
43 1 0.390154 0.95813 0.496389
38 1 0.586131 0.902658 0.499749
58 1 0.661849 0.96831 0.503
21 1 0.772397 0.942502 0.503039
33 1 0.876465 0.896459 0.501754
70 1 0.956748 0.958248 0.499381
ITEM: TIMESTEP
2000
ITEM: NUMBER OF ATOMS
63
ITEM: BOX BOUNDS pp pp pp
-4.7828165165958092e+00 4.7828165165958092e+00
-4.7877434724214467e+00 4.7877434724214467e+00
-1.0000000000000001e-01 1.0000000000000001e-01
ITEM: ATOMS id type xs ys zs
52 1 0.126573 0.117244 0.504265
7 1 0.230976 0.0572807 0.498054
53 1 0.351983 0.0406436 0.503308
68 1 0.423994 0.0280955 0.49323
35 1 0.437516 0.120861 0.500967
37 1 0.503563 0.989421 0.499331
39 1 0.735678 0.0526591 0.499759
2 1 0.883374 0.0395608 0.500402
36 1 0.00737876 0.124629 0.50385
28 1 0.091917 0.202952 0.498943
4 1 0.241004 0.214035 0.49616
44 1 0.333233 0.144051 0.501785
32 1 0.0154037 0.286569 0.49859
41 1 0.12582 0.284034 0.503521
49 1 0.235953 0.32566 0.503987
71 1 0.313057 0.32057 0.498863
10 1 0.401802 0.252247 0.502178
25 1 0.0350942 0.424771 0.501938
45 1 0.149344 0.367988 0.492563
80 1 0.301006 0.386761 0.497769
79 1 0.236429 0.399714 0.501204
30 1 0.376822 0.400295 0.501543
17 1 0.716342 0.445306 0.501372
26 1 0.919069 0.352952 0.501141
24 1 0.046046 0.534833 0.500006
19 1 0.172562 0.483385 0.502968
50 1 0.288259 0.47253 0.496766
9 1 0.406323 0.528938 0.50226
8 1 0.568591 0.522534 0.506129
46 1 0.842951 0.444037 0.498408
23 1 0.912914 0.52966 0.503431
65 1 0.935584 0.441189 0.4956
11 1 0.149594 0.63422 0.502458
27 1 0.275432 0.575561 0.496071
34 1 0.498336 0.642751 0.501546
40 1 0.621965 0.652341 0.501075
60 1 0.715904 0.577941 0.506794
54 1 0.72742 0.680087 0.498635
59 1 0.799805 0.524233 0.496838
6 1 0.997409 0.652071 0.501121
77 1 0.258232 0.657447 0.502643
66 1 0.248458 0.727517 0.499725
64 1 0.191313 0.743663 0.496678
1 1 0.361623 0.69963 0.497659
47 1 0.504933 0.74846 0.498773
51 1 0.610533 0.76368 0.503725
3 1 0.71208 0.814383 0.497406
15 1 0.836602 0.648018 0.497292
13 1 0.0779336 0.771392 0.498893
18 1 0.289582 0.833472 0.504272
20 1 0.43327 0.849787 0.501906
76 1 0.55479 0.811732 0.499701
22 1 0.909371 0.769354 0.49925
75 1 0.0868874 0.889258 0.502288
5 1 0.0649961 1.00018 0.499322
29 1 0.183363 0.921524 0.499539
42 1 0.30635 0.956695 0.504408
43 1 0.390258 0.958634 0.496386
38 1 0.586081 0.902885 0.499157
58 1 0.661666 0.967991 0.501463
21 1 0.772284 0.942965 0.500452
33 1 0.876779 0.896386 0.502362
70 1 0.956524 0.958761 0.497468
ITEM: TIMESTEP
2250
ITEM: NUMBER OF ATOMS
63
ITEM: BOX BOUNDS pp pp pp
-4.7816186911177390e+00 4.7816186911177390e+00
-4.7878096166745419e+00 4.7878096166745419e+00
-1.0000000000000001e-01 1.0000000000000001e-01
ITEM: ATOMS id type xs ys zs
52 1 0.126352 0.116509 0.503617
7 1 0.230547 0.0572416 0.498087
53 1 0.35144 0.0399774 0.502837
68 1 0.423128 0.0273266 0.49593
35 1 0.437401 0.120069 0.502377
37 1 0.503583 0.990012 0.501559
39 1 0.735914 0.0524062 0.498261
2 1 0.883221 0.0394387 0.500859
36 1 0.00706199 0.124529 0.502279
28 1 0.0913708 0.201836 0.498815
4 1 0.241047 0.213267 0.494512
44 1 0.332575 0.143027 0.503616
32 1 0.0164845 0.286914 0.498401
41 1 0.126071 0.282899 0.504799
49 1 0.23643 0.324755 0.504578
71 1 0.313623 0.321079 0.498078
10 1 0.401709 0.251138 0.500706
25 1 0.0338212 0.424969 0.501419
45 1 0.148963 0.367114 0.494093
80 1 0.300971 0.386912 0.498093
79 1 0.23634 0.398937 0.502399
30 1 0.377261 0.399449 0.501059
17 1 0.715865 0.445094 0.501547
26 1 0.918909 0.35246 0.501983
24 1 0.0456555 0.534245 0.499917
19 1 0.17296 0.482363 0.503576
50 1 0.289532 0.472128 0.495313
9 1 0.406463 0.529002 0.503971
8 1 0.569313 0.522347 0.505062
46 1 0.843115 0.444324 0.500649
23 1 0.912527 0.529946 0.503327
65 1 0.934305 0.440629 0.497133
11 1 0.149526 0.633432 0.502102
27 1 0.276037 0.57555 0.496006
34 1 0.49832 0.642601 0.498293
40 1 0.622038 0.652879 0.499119
60 1 0.716274 0.578172 0.508269
54 1 0.727576 0.680504 0.498663
59 1 0.799244 0.52434 0.496355
6 1 0.998089 0.652526 0.500594
77 1 0.258099 0.657529 0.502448
66 1 0.248631 0.727893 0.496637
64 1 0.191442 0.74345 0.499416
1 1 0.361736 0.69935 0.49756
47 1 0.505915 0.748574 0.499385
51 1 0.609277 0.763878 0.504444
3 1 0.711546 0.813473 0.496374
15 1 0.836458 0.647758 0.496834
13 1 0.0786135 0.771507 0.497703
18 1 0.289899 0.833536 0.503673
20 1 0.43391 0.850011 0.500425
76 1 0.554206 0.812061 0.500335
22 1 0.909147 0.768027 0.500157
75 1 0.0862282 0.889334 0.500995
5 1 0.0655098 1.00074 0.498889
29 1 0.183428 0.92179 0.499593
42 1 0.306126 0.956413 0.504486
43 1 0.389791 0.957542 0.497386
38 1 0.585529 0.902937 0.499122
58 1 0.660929 0.968404 0.501406
21 1 0.77249 0.942724 0.499831
33 1 0.877083 0.896349 0.503889
70 1 0.956671 0.958809 0.498125
ITEM: TIMESTEP
2500
ITEM: NUMBER OF ATOMS
63
ITEM: BOX BOUNDS pp pp pp
-4.7804208656396687e+00 4.7804208656396687e+00
-4.7917818630178610e+00 4.7917818630178610e+00
-1.0000000000000001e-01 1.0000000000000001e-01
ITEM: ATOMS id type xs ys zs
52 1 0.125597 0.115711 0.503448
7 1 0.23025 0.0562073 0.498356
53 1 0.351143 0.0394703 0.502956
68 1 0.423233 0.0275906 0.496102
35 1 0.436304 0.11948 0.502342
37 1 0.503863 0.989919 0.501455
39 1 0.736241 0.0524178 0.498274
2 1 0.883417 0.038685 0.501424
36 1 0.00634006 0.124518 0.502753
28 1 0.0908036 0.201862 0.49998
4 1 0.240811 0.212944 0.495004
44 1 0.331811 0.143554 0.503751
32 1 0.0158719 0.287322 0.499615
41 1 0.125586 0.283291 0.505253
49 1 0.235808 0.324317 0.50441
71 1 0.313433 0.320413 0.499571
10 1 0.40154 0.25097 0.500608
25 1 0.0338549 0.424981 0.501487
45 1 0.148782 0.367262 0.49397
80 1 0.301412 0.386443 0.496838
79 1 0.236537 0.398679 0.501873
30 1 0.377228 0.399909 0.501534
17 1 0.715372 0.445899 0.505332
26 1 0.918037 0.35232 0.500593
24 1 0.0463131 0.53436 0.502268
19 1 0.172626 0.4824 0.503208
50 1 0.288845 0.472283 0.495413
9 1 0.406084 0.529972 0.50518
8 1 0.56894 0.523047 0.504767
46 1 0.842657 0.444316 0.500959
23 1 0.912489 0.529598 0.502682
65 1 0.934109 0.440204 0.497494
11 1 0.149544 0.634143 0.503796
27 1 0.275391 0.574911 0.496117
34 1 0.49872 0.642227 0.497935
40 1 0.621889 0.652576 0.499343
60 1 0.716526 0.578387 0.507525
54 1 0.727349 0.680283 0.496859
59 1 0.799369 0.524564 0.497472
6 1 0.997515 0.652018 0.500012
77 1 0.25841 0.656786 0.500954
66 1 0.248177 0.727185 0.493708
64 1 0.190978 0.743305 0.500262
1 1 0.361715 0.698833 0.49916
47 1 0.506204 0.748742 0.500018
51 1 0.609962 0.764267 0.5049
3 1 0.712274 0.814016 0.494368
15 1 0.836666 0.64823 0.497665
13 1 0.0771185 0.771533 0.496671
18 1 0.28887 0.833121 0.504835
20 1 0.433015 0.849193 0.500674
76 1 0.554961 0.812486 0.500385
22 1 0.909845 0.76891 0.501679
75 1 0.0861897 0.889608 0.500491
5 1 0.0648859 1.00023 0.497019
29 1 0.182982 0.921206 0.497526
42 1 0.306048 0.956094 0.504321
43 1 0.390058 0.957712 0.495336
38 1 0.585503 0.903294 0.500114
58 1 0.661074 0.968505 0.501159
21 1 0.771836 0.942863 0.499386
33 1 0.876301 0.895995 0.503389
70 1 0.956681 0.957663 0.498203
ITEM: TIMESTEP
2750
ITEM: NUMBER OF ATOMS
63
ITEM: BOX BOUNDS pp pp pp
-4.7792230401615976e+00 4.7792230401615976e+00
-4.7915211858628348e+00 4.7915211858628348e+00
-1.0000000000000001e-01 1.0000000000000001e-01
ITEM: ATOMS id type xs ys zs
52 1 0.125861 0.116589 0.502988
7 1 0.230003 0.0564655 0.499306
53 1 0.350852 0.0400397 0.505008
68 1 0.423072 0.0276378 0.496179
35 1 0.437136 0.119846 0.502037
37 1 0.503414 0.989427 0.500157
39 1 0.736577 0.0515481 0.497529
2 1 0.884361 0.0378198 0.501257
36 1 0.0064337 0.125658 0.50352
28 1 0.091696 0.202619 0.498743
4 1 0.241051 0.212875 0.494425
44 1 0.332141 0.142193 0.504315
32 1 0.0164104 0.287681 0.500771
41 1 0.126484 0.283276 0.502465
49 1 0.2356 0.324229 0.504068
71 1 0.313363 0.320684 0.49824
10 1 0.401299 0.250887 0.501049
25 1 0.0339229 0.424892 0.500509
45 1 0.148751 0.367067 0.492382
80 1 0.301061 0.386502 0.497047
79 1 0.236099 0.39806 0.499536
30 1 0.376861 0.399826 0.50221
17 1 0.715368 0.446106 0.505769
26 1 0.919009 0.352732 0.503754
24 1 0.0453285 0.53477 0.502906
19 1 0.172237 0.482244 0.501427
50 1 0.288481 0.471989 0.494562
9 1 0.405514 0.530216 0.505185
8 1 0.567335 0.522394 0.504179
46 1 0.84208 0.443677 0.49991
23 1 0.912345 0.529379 0.501177
65 1 0.934605 0.4408 0.498446
11 1 0.148347 0.63417 0.504602
27 1 0.27461 0.575278 0.496206
34 1 0.497732 0.642548 0.498033
40 1 0.620958 0.651692 0.498981
60 1 0.716845 0.57839 0.50777
54 1 0.726456 0.680405 0.49765
59 1 0.799509 0.523784 0.497009
6 1 0.997396 0.651934 0.499458
77 1 0.257928 0.657104 0.499394
66 1 0.247833 0.727124 0.492067
64 1 0.190721 0.742979 0.499657
1 1 0.361613 0.700167 0.499282
47 1 0.504799 0.748527 0.499139
51 1 0.609484 0.763261 0.504034
3 1 0.711362 0.813521 0.495099
15 1 0.835634 0.647929 0.498079
13 1 0.0770574 0.77196 0.496248
18 1 0.287278 0.833056 0.504715
20 1 0.430866 0.849028 0.500247
76 1 0.554268 0.811806 0.501255
22 1 0.908752 0.768235 0.501772
75 1 0.0836106 0.889786 0.500773
5 1 0.0638129 1.00082 0.497889
29 1 0.181135 0.921432 0.495943
42 1 0.305486 0.956242 0.504135
43 1 0.389693 0.957843 0.496113
38 1 0.584971 0.90268 0.501085
58 1 0.662164 0.966872 0.501742
21 1 0.77261 0.941829 0.498621
33 1 0.876027 0.895058 0.501721
70 1 0.956428 0.955912 0.497427
ITEM: TIMESTEP
3000
ITEM: NUMBER OF ATOMS
63
ITEM: BOX BOUNDS pp pp pp
-4.7780252146835274e+00 4.7780252146835274e+00
-4.7885404565548608e+00 4.7885404565548608e+00
-1.0000000000000001e-01 1.0000000000000001e-01
ITEM: ATOMS id type xs ys zs
52 1 0.124815 0.116524 0.504868
7 1 0.229736 0.0568414 0.498891
53 1 0.350566 0.0404533 0.504354
68 1 0.423049 0.0281959 0.495632
35 1 0.436713 0.120691 0.502323
37 1 0.503022 0.99 0.499991
39 1 0.736694 0.0516889 0.496441
2 1 0.883858 0.0379218 0.499898
36 1 0.00580947 0.125835 0.504686
28 1 0.0906591 0.202829 0.499364
4 1 0.240404 0.213843 0.495469
44 1 0.332076 0.143385 0.503752
32 1 0.0162439 0.288106 0.502522
41 1 0.125916 0.283553 0.500699
49 1 0.236058 0.325341 0.5041
71 1 0.313541 0.321061 0.499571
10 1 0.401602 0.252288 0.501826
25 1 0.0348112 0.423957 0.501372
45 1 0.148749 0.367427 0.492958
80 1 0.300579 0.386591 0.497677
79 1 0.235664 0.399515 0.499384
30 1 0.376409 0.400446 0.501472
17 1 0.71502 0.446158 0.506622
26 1 0.918564 0.352697 0.503948
24 1 0.0452641 0.533896 0.503199
19 1 0.171468 0.482972 0.502101
50 1 0.287262 0.472611 0.492809
9 1 0.405023 0.530537 0.506136
8 1 0.567108 0.522672 0.504016
46 1 0.842249 0.443703 0.50101
23 1 0.911867 0.529178 0.49941
65 1 0.935563 0.440672 0.499105
11 1 0.148003 0.633593 0.503238
27 1 0.27438 0.575644 0.495641
34 1 0.497842 0.643027 0.497711
40 1 0.621249 0.651695 0.498604
60 1 0.715959 0.578107 0.509767
54 1 0.72636 0.680522 0.498988
59 1 0.79879 0.523801 0.498012
6 1 0.997144 0.651963 0.499161
77 1 0.257169 0.657297 0.500918
66 1 0.248099 0.727478 0.492209
64 1 0.190711 0.74268 0.499357
1 1 0.360882 0.69971 0.499493
47 1 0.505361 0.748934 0.50031
51 1 0.608904 0.763037 0.505508
3 1 0.710211 0.814153 0.494884
15 1 0.83583 0.647769 0.497665
13 1 0.0773283 0.77196 0.494065
18 1 0.286123 0.83417 0.506153
20 1 0.430084 0.849533 0.498199
76 1 0.554327 0.812214 0.501592
22 1 0.908264 0.767986 0.502299
75 1 0.0834806 0.889948 0.501687
5 1 0.0634677 1.00105 0.497132
29 1 0.180957 0.921848 0.496036
42 1 0.305282 0.956806 0.505609
43 1 0.389374 0.958575 0.495541
38 1 0.58444 0.903403 0.500726
58 1 0.661861 0.966838 0.503044
21 1 0.772365 0.941742 0.500097
33 1 0.875714 0.894891 0.503737
70 1 0.956058 0.956332 0.499421
ITEM: TIMESTEP
3250
ITEM: NUMBER OF ATOMS
63
ITEM: BOX BOUNDS pp pp pp
-4.7768273892054562e+00 4.7768273892054562e+00
-4.7872888952215931e+00 4.7872888952215931e+00
-1.0000000000000001e-01 1.0000000000000001e-01
ITEM: ATOMS id type xs ys zs
52 1 0.124657 0.11573 0.506805
7 1 0.229678 0.0573006 0.500176
53 1 0.350498 0.0405532 0.502814
68 1 0.422415 0.0281995 0.497815
35 1 0.438538 0.11985 0.502205
37 1 0.50348 0.99102 0.500286
39 1 0.736094 0.0523708 0.495652
2 1 0.883908 0.0377246 0.498387
36 1 0.00572218 0.125327 0.503442
28 1 0.0912572 0.202481 0.499796
4 1 0.241366 0.213073 0.496295
44 1 0.33337 0.141705 0.504359
32 1 0.0177169 0.28905 0.502904
41 1 0.126861 0.283081 0.500398
49 1 0.236158 0.324028 0.502204
71 1 0.313537 0.320917 0.500407
10 1 0.402121 0.251293 0.502163
25 1 0.0347233 0.423069 0.501456
45 1 0.149006 0.367147 0.493157
80 1 0.301489 0.386581 0.497765
79 1 0.236671 0.398388 0.497984
30 1 0.377671 0.399864 0.500058
17 1 0.71375 0.445575 0.506033
26 1 0.918335 0.352144 0.501982
24 1 0.0446352 0.532855 0.501559
19 1 0.1723 0.482002 0.500716
50 1 0.28821 0.471882 0.493039
9 1 0.405061 0.530511 0.506661
8 1 0.566787 0.522677 0.503873
46 1 0.841723 0.443294 0.500131
23 1 0.911603 0.528692 0.495844
65 1 0.935472 0.440165 0.499223
11 1 0.147865 0.633276 0.503442
27 1 0.274742 0.575463 0.496517
34 1 0.498067 0.642862 0.496876
40 1 0.621034 0.652203 0.499836
60 1 0.715497 0.57784 0.508791
54 1 0.726994 0.680506 0.500654
59 1 0.798445 0.523411 0.497356
6 1 0.997193 0.651062 0.498216
77 1 0.256803 0.657449 0.500787
66 1 0.247709 0.727617 0.489265
64 1 0.190612 0.742485 0.500273
1 1 0.360645 0.699858 0.501433
47 1 0.504221 0.749159 0.499569
51 1 0.608788 0.76389 0.505986
3 1 0.710921 0.814133 0.497059
15 1 0.836122 0.648097 0.499056
13 1 0.0768295 0.771483 0.493215
18 1 0.287304 0.833773 0.506921
20 1 0.431282 0.850201 0.497965
76 1 0.553089 0.812762 0.503343
22 1 0.910488 0.768105 0.501594
75 1 0.0843968 0.889228 0.501572
5 1 0.0633878 1.00075 0.497154
29 1 0.181439 0.921952 0.494624
42 1 0.305139 0.956868 0.504981
43 1 0.389626 0.958446 0.49526
38 1 0.584915 0.902849 0.501206
58 1 0.661473 0.967389 0.501704
21 1 0.771879 0.942256 0.50069
33 1 0.875769 0.895 0.501648
70 1 0.95633 0.956047 0.499076
ITEM: TIMESTEP
3500
ITEM: NUMBER OF ATOMS
63
ITEM: BOX BOUNDS pp pp pp
-4.7756295637273860e+00 4.7756295637273860e+00
-4.7891929845807617e+00 4.7891929845807617e+00
-1.0000000000000001e-01 1.0000000000000001e-01
ITEM: ATOMS id type xs ys zs
52 1 0.125153 0.116225 0.5071
7 1 0.230131 0.0573212 0.498488
53 1 0.350856 0.0407618 0.504959
68 1 0.422938 0.0277603 0.498185
35 1 0.437568 0.120046 0.504154
37 1 0.503237 0.989681 0.497666
39 1 0.735872 0.0514122 0.495987
2 1 0.883306 0.0374738 0.498446
36 1 0.00632506 0.124725 0.504505
28 1 0.0906793 0.202922 0.499565
4 1 0.240779 0.213735 0.495598
44 1 0.332549 0.142901 0.506978
32 1 0.0164904 0.289106 0.503022
41 1 0.126126 0.283598 0.499008
49 1 0.235548 0.324494 0.499523
71 1 0.313185 0.321099 0.501039
10 1 0.401637 0.251441 0.502261
25 1 0.0350819 0.422662 0.501402
45 1 0.148583 0.367502 0.492586