LAMMPS (23 Jun 2022 - Update 4)
  using 1 OpenMP thread(s) per MPI task
# Compute elastic constant tensor for a crystal
#
# Written by Aidan Thompson (Sandia, athomps@sandia.gov)
#
#  This script uses the following three include files.
#
#   init.mod      (must be modified for different crystal structures)
# 	       	  Define units, deformation parameters and initial
#		  configuration of the atoms and simulation cell.
#
#
#   potential.mod    (must be modified for different pair styles)
# 		     Define pair style and other attributes
#		     not stored in restart file
#
#
#   displace.mod    (displace.mod should not need to be modified)
# 		    Perform positive and negative box displacements
# 		    in direction ${dir} and size ${up}.
# 		    It uses the resultant changes
#		    in stress to compute one
# 		    row of the elastic stiffness tensor
#
#		    Inputs variables:
#		    	   dir = the Voigt deformation component
#		    		    (1,2,3,4,5,6)
#		    Global constants:
#       	    	   up = the deformation magnitude (strain units)
#       		   cfac = conversion from LAMMPS pressure units to
#               	   output units for elastic constants
#
#
#  To run this on a different system, it should only be necessary to
#  modify the files init.mod and potential.mod. In order to calculate
#  the elastic constants correctly, care must be taken to specify
#  the correct units in init.mod (units, cfac and cunits). It is also
#  important to verify that the minimization of energy w.r.t atom
#  positions in the deformed cell is fully converged.
#  One indication of this is that the elastic constants are insensitive
#  to the choice of the variable ${up} in init.mod. Another is to check
#  the final max and two-norm forces reported in the log file. If you know
#  that minimization is not required, you can set maxiter = 0.0 in
#  init.mod.
#



variable dt equal 0.01
variable strain equal 0.05
variable srate equal 1e-4
variable M equal 1000 # averaging time for properties
variable strainsteps equal ${strain}/${dt}/${srate}
variable strainsteps equal 0.05/${dt}/${srate}
variable strainsteps equal 0.05/0.01/${srate}
variable strainsteps equal 0.05/0.01/0.0001


dimension 2
include init.mod
# NOTE: This script can be modified for different atomic structures,
# units, etc. See in.elastic for more info.
#

# Define the finite deformation size. Try several values of this
# variable to verify that results do not depend on it.
variable up equal 1.0e-1

# Define the amount of random jiggle for atoms
# This prevents atoms from staying on saddle points
variable atomjiggle equal 1.0e-6

# Uncomment one of these blocks, depending on what units
# you are using in LAMMPS and for output

# metal units, elastic constants in eV/A^3
#units		metal
#variable cfac equal 6.2414e-7
#variable cunits string eV/A^3

# Choose potential
# metal units, elastic constants in GPa
units		metal
atom_style	full
#pair_style      lj/cut 1.0
#pair_style      yukawa 1.0 2.0
#pair_modify     mix arithmetic
bond_style      harmonic
angle_style     harmonic
dihedral_style  zero
special_bonds   amber
variable cfac equal 1.0e-4
variable cunits string GPa
boundary	p p p

# Need to set mass to something, just to satisfy LAMMPS
#mass 1 1.0e-20
read_data network.lmp
Reading data file ...
  orthogonal box = (-4.791302 -4.791302 -0.1) to (4.791302 4.791302 0.1)
  1 by 1 by 1 MPI processor grid
WARNING: Atom style in data file differs from currently defined atom style (src/read_data.cpp:538)
  reading atoms ...
  63 atoms
WARNING: Bond style in data file differs from currently defined bond style (src/read_data.cpp:630)
  scanning bonds ...
  5 = max bonds/atom
  reading bonds ...
  148 bonds
Finding 1-2 1-3 1-4 neighbors ...
  special bond factors lj:    0        0        0.5     
  special bond factors coul:  0        0        0.8333333333333334
     8 = max # of 1-2 neighbors
    38 = max # of 1-3 neighbors
   210 = max # of 1-4 neighbors
    34 = max # of special neighbors
  special bonds CPU = 0.000 seconds
  read_data CPU = 0.003 seconds

# real units, elastic constants in GPa
#units		real
#variable cfac equal 1.01325e-4
#variable cunits string GPa

# Define minimization parameters
variable etol equal 0.0
variable ftol equal 5.0e-10
variable maxiter equal 100000
variable maxeval equal 20000
variable dmax equal 1.0e-2


include potential.mod
# NOTE: This script can be modified for different pair styles
# See in.elastic for more info.

# Setup neighbor style
neighbor 3.0 nsq
neigh_modify once no every 1 delay 0 check yes
comm_modify cutoff 2.0

# Setup minimization style
min_style	     cg
min_modify	     dmax ${dmax} line quadratic
min_modify	     dmax 0.01 line quadratic

timestep	0.001


# Setup output
thermo		500
thermo_style custom step temp pe ebond eangle edihed press pxx pyy pzz pxy pxz pyz lx ly lz vol
thermo_modify norm no


#change_box all triclinic
comm_modify mode single cutoff 10.0 vel yes
atom_modify sort 0 0



# Compute initial state

#dump rela all atom 1 traj_relax.lmpstrj
fix 3 all box/relax x 0 y 0 # xy 0  #MS comment: relax if the network is periodic
minimize ${etol} ${ftol} ${maxiter} ${maxeval}
minimize 0 ${ftol} ${maxiter} ${maxeval}
minimize 0 5e-10 ${maxiter} ${maxeval}
minimize 0 5e-10 100000 ${maxeval}
minimize 0 5e-10 100000 20000
Neighbor list info ...
  update every 1 steps, delay 0 steps, check yes
  max neighbors/atom: 2000, page size: 100000
  master list distance cutoff = 0
  ghost atom cutoff = 10
  0 neighbor lists, perpetual/occasional/extra = 0 0 0
WARNING: Inconsistent image flags (src/domain.cpp:819)
Per MPI rank memory allocation (min/avg/max) = 9.094 | 9.094 | 9.094 Mbytes
   Step          Temp          PotEng         E_bond        E_angle        E_dihed         Press           Pxx            Pyy            Pzz            Pxy            Pxz            Pyz             Lx             Ly             Lz           Volume    
         0   0              3.5835672e-11  3.5835672e-11  0              0             -0.23775566    -0.1195852     -0.35592612     0             -0.043331213    0              0              9.582604       9.582604       0.2            91.826299    
       229   0              1.1686564e-13  1.1686564e-13  0              0              3.410031e-06   3.4810466e-06  3.3390153e-06  0             -0.0036687244   0              0              9.5826038      9.5826027      0.2            91.826285    
Loop time of 0.0153534 on 1 procs for 229 steps with 63 atoms

100.0% CPU use with 1 MPI tasks x 1 OpenMP threads

Minimization stats:
  Stopping criterion = force tolerance
  Energy initial, next-to-last, final = 
    3.5835672105415e-11 1.16865658687773e-13 1.16865639236762e-13
  Force two-norm initial, final = 3.2378581e-05 4.8591428e-10
  Force max component initial, final = 2.0399362e-05 1.9951085e-10
  Final line search alpha, max atom move = 1 1.9951085e-10
  Iterations, force evaluations = 229 458

MPI task timing breakdown:
Section |  min time  |  avg time  |  max time  |%varavg| %total
---------------------------------------------------------------
Pair    | 0          | 0          | 0          |   0.0 |  0.00
Bond    | 0.0022295  | 0.0022295  | 0.0022295  |   0.0 | 14.52
Neigh   | 0          | 0          | 0          |   0.0 |  0.00
Comm    | 0.0046802  | 0.0046802  | 0.0046802  |   0.0 | 30.48
Output  | 0          | 0          | 0          |   0.0 |  0.00
Modify  | 0          | 0          | 0          |   0.0 |  0.00
Other   |            | 0.008444   |            |       | 55.00

Nlocal:             63 ave          63 max          63 min
Histogram: 1 0 0 0 0 0 0 0 0 0
Nghost:            544 ave         544 max         544 min
Histogram: 1 0 0 0 0 0 0 0 0 0
Neighs:              0 ave           0 max           0 min
Histogram: 1 0 0 0 0 0 0 0 0 0

Total # of neighbors = 0
Ave neighs/atom = 0
Ave special neighs/atom = 25.015873
Neighbor list builds = 0
Dangerous builds = 0
#dump rela all atom 1 traj_relax.lmpstrj
thermo 100
unfix 3

fix 2d all enforce2d



#dump dump0 all xyz 1000000 cfg0.xyz
#dump_modify dump0 format line "%d %20.10g %20.10g %20.10g"
#minimize ${etol} ${ftol} ${maxiter} ${maxeval}

#undump rela

#write_restart restart.equil

# These formulas define the derivatives w.r.t. strain components
# Constants uses $, variables use v_


timestep        ${dt}
timestep        0.01
variable nsteps equal round(${strainsteps})
variable nsteps equal round(50000)

fix             4 all nve
fix             5 all langevin 0.1 0.1 1 904297
#fix		6 all press/berendsen y  0.0 0.0 1 x 0.0 0.0 10
fix             6 all nph y 0.0 0.0 10 ptemp 0.1 # x 0.0 0.0 10

# For PLUMED2
# fix 22 all plumed plumedfile plumed.dat outfile plumed.out

#fix             6 all nph x 0.0 0.0 10
fix     	9 all deform 1 x erate -${srate} units box remap x
fix     	9 all deform 1 x erate -0.0001 units box remap x

#fix     8 all deform 1 xy erate ${srate} units box remap x



#fix    10 all ave/time

dump 1 all atom 250 deform_dump.lammpstrj


#To avoid flying ice cube phenomenon:
#fix 21 all momentum 100 linear 1 1 1 angular


run  ${nsteps}
run  50000
WARNING: One or more atoms are time integrated more than once (src/modify.cpp:292)
WARNING: Inconsistent image flags (src/domain.cpp:819)
Per MPI rank memory allocation (min/avg/max) = 7.969 | 7.969 | 7.969 Mbytes
   Step          Temp          PotEng         E_bond        E_angle        E_dihed         Press           Pxx            Pyy            Pzz            Pxy            Pxz            Pyz             Lx             Ly             Lz           Volume    
       229   0              1.1686564e-13  1.1686564e-13  0              0              3.410031e-06   3.4810466e-06  3.3390153e-06  0             -0.0036687244   0              0              9.5826038      9.5826027      0.2            91.826285    
       300   0.18909714     0.00062983636  0.00062983636  0              0              326.99105      713.08012     -59.275545      0              25.914858      0              0              9.5819235      9.5849621      0.2            91.842373    
       400   0.1678939      0.00079927134  0.00079927134  0              0             -104.51325     -204.92892     -4.2869729      0              110.83302      0              0              9.5809652      9.5823747      0.2            91.808398    
       500   0.18791084     0.00096763023  0.00096763023  0              0              374.74215      630.27668      119.0213       0             -115.09417      0              0              9.5800069      9.5823517      0.2            91.798995    
       600   0.17560767     0.001123094    0.001123094    0              0             -479.65913     -749.799       -209.65455      0             -375.436        0              0              9.5790487      9.5831263      0.2            91.797233    
       700   0.23063037     0.00095886634  0.00095886634  0              0             -235.83221     -632.39009      160.52466      0              448.67088      0              0              9.5780904      9.5747696      0.2            91.708009    
       800   0.22151057     0.0010677995   0.0010677995   0              0             -234.8168      -343.54768     -126.3114       0              367.50597      0              0              9.5771322      9.5770016      0.2            91.72021     
       900   0.21008066     0.00093045656  0.00093045656  0              0             -44.09835      -156.17839      67.742645      0              65.271477      0              0              9.5761739      9.5831403      0.2            91.769818    
      1000   0.17508726     0.00081651981  0.00081651981  0              0              293.63781      558.92042      28.139832      0             -146.41471      0              0              9.5752156      9.5899168      0.2            91.825521    
      1100   0.16496874     0.00095144295  0.00095144295  0              0              646.79272      1213.5121      79.875441      0             -332.82765      0              0              9.5742574      9.5787739      0.2            91.709646    
      1200   0.1905964      0.0011284844   0.0011284844   0              0              167.90156      328.61091      7.0327484      0             -329.98566      0              0              9.5732991      9.5755327      0.2            91.669439    
      1300   0.19144864     0.0011540418   0.0011540418   0              0             -154.3678      -413.04043      104.13509      0             -450.74113      0              0              9.5723409      9.5812348      0.2            91.714846    
      1400   0.18582578     0.00093037956  0.00093037956  0              0             -45.665382     -17.182083     -74.336969      0              20.370062      0              0              9.5713826      9.5788701      0.2            91.683031    
      1500   0.18971536     0.0011651209   0.0011651209   0              0              122.76251      54.091717      191.25366      0              181.76903      0              0              9.5704243      9.5850682      0.2            91.73317     
      1600   0.21979066     0.00093654112  0.00093654112  0              0             -258.84834     -485.50751     -32.380164      0              385.68651      0              0              9.5694661      9.5849221      0.2            91.722587    
      1700   0.20260814     0.0011285376   0.0011285376   0              0              57.381476     -10.586904      125.16004      0              378.62673      0              0              9.5685078      9.5835475      0.2            91.700249    
      1800   0.18168058     0.0010689761   0.0010689761   0              0              356.51803      966.45105     -253.59348      0              260.15635      0              0              9.5675496      9.5803099      0.2            91.66009     
      1900   0.22354927     0.0010267694   0.0010267694   0              0              535.54432      841.33972      229.52897      0              53.053509      0              0              9.5665913      9.5754372      0.2            91.604294    
      2000   0.20779464     0.0011582224   0.0011582224   0              0              905.83597      1896.4818     -84.998428      0             -229.5295       0              0              9.565633       9.5754869      0.2            91.595594    
      2100   0.16103347     0.0010499194   0.0010499194   0              0              290.12903      542.69995      37.355678      0              468.46537      0              0              9.5646748      9.5763464      0.2            91.594638    
      2200   0.19173162     0.0010734826   0.0010734826   0              0              291.51634      560.1111       22.727113      0              510.99064      0              0              9.5637165      9.5772534      0.2            91.594136    
      2300   0.21820547     0.001037696    0.001037696    0              0             -96.527181     -23.312901     -169.90525      0              400.10717      0              0              9.5627583      9.57361        0.2            91.550118    
      2400   0.25020479     0.0011621655   0.0011621655   0              0              475.6249       658.71522      292.33097      0              612.76343      0              0              9.5618         9.5714777      0.2            91.520555    
      2500   0.26363228     0.0011772693   0.0011772693   0              0              188.6986       741.35742     -364.16524      0              703.50068      0              0              9.5608417      9.5835637      0.2            91.626936    
      2600   0.23434365     0.0012646922   0.0012646922   0              0              973.91987      1433.7814      513.8694       0              441.84717      0              0              9.5598835      9.5747801      0.2            91.533782    
      2700   0.16774887     0.0011406801   0.0011406801   0              0             -197.06106      163.82524     -558.13438      0              123.41456      0              0              9.5589252      9.5840663      0.2            91.613373    
      2800   0.20410307     0.0010596951   0.0010596951   0              0              1495.8106      2395.3484      596.08292      0              53.512387      0              0              9.557967       9.5758446      0.2            91.525606    
      2900   0.18121207     0.0011626564   0.0011626564   0              0              730.46276      2087.3951     -626.64478      0              163.34829      0              0              9.5570087      9.5848156      0.2            91.602166    
      3000   0.17732881     0.0011898551   0.0011898551   0              0              1663.7095      2797.2263      529.99804      0             -389.83005      0              0              9.5560504      9.5770809      0.2            91.519068    
      3100   0.19059902     0.0011625483   0.0011625483   0              0             -111.02593      243.34176     -465.56809      0             -193.38986      0              0              9.5550922      9.5793264      0.2            91.531346    
      3200   0.20755009     0.0013112448   0.0013112448   0              0              1011.3415      1845.5711      176.94895      0             -298.5223       0              0              9.5541339      9.5699206      0.2            91.432303    
      3300   0.25977264     0.0011986495   0.0011986495   0              0              884.46352      1577.8481      190.86835      0             -106.66665      0              0              9.5531756      9.5711268      0.2            91.434655    
      3400   0.210001       0.0011139551   0.0011139551   0              0              879.05776      2124.8846     -366.97434      0             -1121.9548      0              0              9.5522174      9.5785792      0.2            91.496671    
      3500   0.22066547     0.0010736127   0.0010736127   0              0              1702.93        2650.5283      755.14724      0              181.37754      0              0              9.5512591      9.578386       0.2            91.485646    
      3600   0.2230762      0.0010934753   0.0010934753   0              0              625.49191      2174.6738     -923.87286      0             -583.32516      0              0              9.5503009      9.5848746      0.2            91.538436    
      3700   0.17771775     0.0011856198   0.0011856198   0              0              1211.0134      1448.399       973.42996      0             -16.296002      0              0              9.5493426      9.5789397      0.2            91.472577    
      3800   0.17420493     0.0012086057   0.0012086057   0              0             -231.6873       630.78632     -1094.3413      0             -208.25196      0              0              9.5483843      9.5857653      0.2            91.528571    
      3900   0.23343133     0.0010757452   0.0010757452   0              0              1277.1294      1697.8901      856.15691      0             -385.37374      0              0              9.5474261      9.5770584      0.2            91.436257    
      4000   0.20092483     0.0013908541   0.0013908541   0              0              443.57332      1571.152      -684.1855       0              297.10785      0              0              9.5464678      9.5820209      0.2            91.474454    
      4100   0.20644168     0.0014666133   0.0014666133   0              0              1263.6983      1871.059       656.14969      0             -342.6394       0              0              9.5455096      9.5819259      0.2            91.464366    
      4200   0.22197608     0.0013749452   0.0013749452   0              0              1163.4279      2682.0389     -355.36733      0             -208.93319      0              0              9.5445513      9.5850699      0.2            91.485192    
      4300   0.19888191     0.0012195724   0.0012195724   0              0              775.02183      1460.617       89.207307      0             -456.83969      0              0              9.543593       9.577924       0.2            91.407809    
      4400   0.19653415     0.0012654452   0.0012654452   0              0              1307.7597      2355.8724      259.48085      0             -429.62857      0              0              9.5426348      9.5816286      0.2            91.433982    
      4500   0.1898409      0.0011431149   0.0011431149   0              0              905.23507      2259.4129     -449.13414      0             -725.17102      0              0              9.5416765      9.5891985      0.2            91.49703     
      4600   0.22854065     0.0011057404   0.0011057404   0              0              1825.4074      2975.1316      675.45308      0             -217.77802      0              0              9.5407183      9.5847095      0.2            91.445013    
      4700   0.23717344     0.0012660677   0.0012660677   0              0              573.9891       1992.0465     -844.24566      0             -411.37295      0              0              9.53976        9.5930129      0.2            91.515041    
      4800   0.22145006     0.0016088301   0.0016088301   0              0              1719.0214      2606.3196      831.5237       0             -253.88149      0              0              9.5388017      9.587429       0.2            91.452585    
      4900   0.21016559     0.0014414235   0.0014414235   0              0              592.08458      2006.3747     -822.44317      0             -357.5443       0              0              9.5378435      9.5986288      0.2            91.550219    
      5000   0.14375381     0.001245014    0.001245014    0              0              1988.3748      3331.9567      644.58903      0             -477.33149      0              0              9.5368852      9.5930709      0.2            91.488016    
      5100   0.20011182     0.0013097888   0.0013097888   0              0              418.87977      1350.8417     -513.27729      0             -183.88618      0              0              9.535927       9.5984642      0.2            91.530254    
      5200   0.2401781      0.0014421502   0.0014421502   0              0              1471.4593      2532.8918      409.82764      0             -208.63381      0              0              9.5349687      9.5919247      0.2            91.458701    
      5300   0.24270701     0.0015513119   0.0015513119   0              0              994.44572      2201.7604     -213.08664      0             -540.38363      0              0              9.5340104      9.5840366      0.2            91.374305    
      5400   0.21710014     0.001505934    0.001505934    0              0              811.31268      1653.0481     -30.579118      0             -691.733        0              0              9.5330522      9.5883969      0.2            91.406688    
      5500   0.24983324     0.001517134    0.001517134    0              0              1549.871       2876.2959      223.24458      0             -697.72247      0              0              9.5320939      9.5809329      0.2            91.326352    
      5600   0.20251212     0.0015421793   0.0015421793   0              0              884.1553       2101.3911     -333.27558      0             -172.34954      0              0              9.5311357      9.5898652      0.2            91.402306    
      5700   0.23821989     0.0018862659   0.0018862659   0              0              1925.6409      3337.6314      513.44566      0              405.34441      0              0              9.5301774      9.5843107      0.2            91.340181    
      5800   0.20618355     0.0015959064   0.0015959064   0              0              1380.2966      3350.1567     -589.75279      0             -189.33294      0              0              9.5292191      9.5839769      0.2            91.327816    
      5900   0.19500748     0.0015294687   0.0015294687   0              0              2113.6689      3561.7799      665.33436      0             -395.44902      0              0              9.5282609      9.5814661      0.2            91.294709    
      6000   0.20827983     0.0015550292   0.0015550292   0              0              833.45424      2299.6827     -632.98059      0             -111.23438      0              0              9.5273026      9.5882307      0.2            91.349975    
      6100   0.21735788     0.0014053153   0.0014053153   0              0              1563.6479      2474.2243      652.88108      0             -588.57641      0              0              9.5263444      9.5827062      0.2            91.28816     
      6200   0.19697376     0.0015741817   0.0015741817   0              0              1161.4899      2998.3708     -675.54149      0             -339.38878      0              0              9.5253861      9.5853362      0.2            91.304029    
      6300   0.21648464     0.0013962016   0.0013962016   0              0              1731.1502      2903.5327      558.57778      0             -191.94901      0              0              9.5244278      9.5789066      0.2            91.233604    
      6400   0.18273871     0.0014247265   0.0014247265   0              0              921.04592      2317.073      -475.15216      0             -204.58991      0              0              9.5234696      9.5872942      0.2            91.304305    
      6500   0.17783332     0.0017083483   0.0017083483   0              0              2104.3666      3895.2554      313.30461      0             -456.0506       0              0              9.5225113      9.5761761      0.2            91.189246    
      6600   0.27301326     0.0018449228   0.0018449228   0              0              1622.8786      3435.664      -190.08656      0             -206.71476      0              0              9.5215531      9.5794851      0.2            91.211576    
      6700   0.20376626     0.0015717651   0.0015717651   0              0              1540.8174      2945.4853      135.95749      0             -271.09183      0              0              9.5205948      9.5836316      0.2            91.241873    
      6800   0.2096855      0.0014447785   0.0014447785   0              0              1323.6844      2672.9397     -25.77793       0              9.592252       0              0              9.5196365      9.58753        0.2            91.269801    
      6900   0.18059023     0.0015130647   0.0015130647   0              0              1475.5214      2901.093       49.752471      0             -682.01619      0              0              9.5186783      9.5929147      0.2            91.311869    
      7000   0.2128627      0.0014601019   0.0014601019   0              0              1279.4976      2530.7428      28.065759      0             -312.56098      0              0              9.51772        9.5856929      0.2            91.233941    
      7100   0.17021524     0.0016565234   0.0016565234   0              0              1451.4847      3067.6052     -164.83083      0             -624.91953      0              0              9.5167618      9.5870985      0.2            91.238132    
      7200   0.17367997     0.0015608549   0.0015608549   0              0              1992.1214      3673.2663      310.76959      0              159.84431      0              0              9.5158035      9.5893966      0.2            91.250814    
      7300   0.21519199     0.0015517986   0.0015517986   0              0              1080.3218      2573.5903     -413.14131      0             -418.54182      0              0              9.5148452      9.5963962      0.2            91.308225    
      7400   0.17129403     0.001714473    0.001714473    0              0              2110.0705      3708.2293      511.74853      0             -49.122609      0              0              9.513887       9.5865571      0.2            91.205421    
      7500   0.19740679     0.0020392228   0.0020392228   0              0              1010.0074      2510.6557     -490.89573      0             -543.96703      0              0              9.5129287      9.591991       0.2            91.247927    
      7600   0.23395248     0.0016811461   0.0016811461   0              0              1776.9524      3093.256       460.44049      0             -294.41728      0              0              9.5119705      9.5876352      0.2            91.197303    
      7700   0.20930165     0.0018540019   0.0018540019   0              0              584.40273      1439.3926     -270.75757      0             -304.98937      0              0              9.5110122      9.5942928      0.2            91.251436    
      7800   0.16747525     0.0018828457   0.0018828457   0              0              1702.8213      3285.1949      120.28534      0             -1165.9375      0              0              9.5100539      9.5839096      0.2            91.143498    
      7900   0.14929894     0.0019065251   0.0019065251   0              0              1508.0194      3033.7382     -17.903767      0             -230.15578      0              0              9.5090957      9.5852009      0.2            91.146592    
      8000   0.21913379     0.0019327422   0.0019327422   0              0              1471.5738      2994.283      -51.35201       0             -784.08901      0              0              9.5081374      9.5911693      0.2            91.194155    
      8100   0.19992588     0.0016016174   0.0016016174   0              0              1696.5574      3281.781       111.13245      0             -15.944507      0              0              9.5071791      9.5884416      0.2            91.159032    
      8200   0.19197138     0.0018288704   0.0018288704   0              0              1454.5739      3030.8982     -121.94477      0             -415.71244      0              0              9.5062209      9.5901139      0.2            91.165741    
      8300   0.20010195     0.0016420205   0.0016420205   0              0              1446.2384      2778.2883      113.95661      0             -496.81371      0              0              9.5052626      9.5912641      0.2            91.167484    
      8400   0.18746676     0.0016970555   0.0016970555   0              0              1631.7007      3302.2087     -39.003193      0             -164.26776      0              0              9.5043044      9.5934365      0.2            91.17894     
      8500   0.2085101      0.0018357794   0.0018357794   0              0              1732.7288      3434.4238      30.847118      0             -183.23592      0              0              9.5033461      9.5950674      0.2            91.185247    
      8600   0.2173297      0.0018300982   0.0018300982   0              0              1939.5692      4000.4066     -121.44408      0             -239.97203      0              0              9.5023878      9.5971969      0.2            91.196287    
      8700   0.18388068     0.001760375    0.001760375    0              0              1800.5122      3531.7458      69.09982       0              595.63425      0              0              9.5014296      9.5976719      0.2            91.191604    
      8800   0.22831166     0.00186738     0.00186738     0              0              1965.0431      3937.0398     -7.1233521      0             -208.07398      0              0              9.5004713      9.5960771      0.2            91.167255    
      8900   0.19110736     0.0018435915   0.0018435915   0              0              1928.7981      3904.1576     -46.751796      0              296.09189      0              0              9.4995131      9.5955779      0.2            91.153318    
      9000   0.15652536     0.0021228675   0.0021228675   0              0              2425.535       4737.9027      112.98249      0              118.8575       0              0              9.4985548      9.5973007      0.2            91.160487    
      9100   0.19744751     0.0022275952   0.0022275952   0              0              1672.2776      3597.4372     -253.07303      0             -633.09483      0              0              9.4975965      9.6031756      0.2            91.207087    
      9200   0.23067997     0.0019797477   0.0019797477   0              0              2006.2445      3728.5276      283.76606      0             -253.68379      0              0              9.4966383      9.6014692      0.2            91.18168     
      9300   0.22781375     0.0020806152   0.0020806152   0              0              1966.651       4447.0419     -513.94125      0             -190.57006      0              0              9.49568        9.6046627      0.2            91.202804    
      9400   0.21599694     0.002048201    0.002048201    0              0              2496.356       4245.4772      747.03556      0             -373.80447      0              0              9.4947218      9.6007985      0.2            91.15691     
      9500   0.17719003     0.0022066319   0.0022066319   0              0              952.26474      2902.9617     -998.63121      0             -486.34065      0              0              9.4937635      9.6094047      0.2            91.229416    
      9600   0.21041963     0.0018727077   0.0018727077   0              0              3323.9117      5353.9569      1293.6645      0             -45.957987      0              0              9.4928052      9.5979363      0.2            91.11134     
      9700   0.23131973     0.0023889883   0.0023889883   0              0              1548.4642      4481.1669     -1384.432       0             -352.9431       0              0              9.491847       9.6052664      0.2            91.171719    
      9800   0.2010211      0.0022066034   0.0022066034   0              0              2808.4836      4202.8163      1413.947       0             -236.41345      0              0              9.4908887      9.5885838      0.2            91.004182    
      9900   0.21326892     0.0025104395   0.0025104395   0              0              1295.3969      3909.3581     -1318.7461      0              95.408503      0              0              9.4899305      9.6042917      0.2            91.14406     
     10000   0.19883521     0.0022026452   0.0022026452   0              0              3009.9873      4676.0103      1343.7985      0             -413.54114      0              0              9.4889722      9.5917603      0.2            91.015947    
     10100   0.2320127      0.0023227876   0.0023227876   0              0              1777.37        4873.3032     -1318.7572      0              78.449594      0              0              9.4880139      9.6092129      0.2            91.172346    
     10200   0.23794738     0.00208087     0.00208087     0              0              3294.4896      5381.3738      1207.4181      0             -425.50018      0              0              9.4870557      9.5953918      0.2            91.032016    
     10300   0.2098933      0.0020607514   0.0020607514   0              0              1731.1298      4471.8146     -1009.7675      0             -459.41763      0              0              9.4860974      9.6093808      0.2            91.155523    
     10400   0.1641979      0.0024814823   0.0024814823   0              0              2298.3806      3729.7127      866.89663      0             -1270.2581      0              0              9.4851392      9.6076483      0.2            91.129881    
     10500   0.23939941     0.0022419079   0.0022419079   0              0              1738.7327      4165.0404     -687.7597       0             -882.71821      0              0              9.4841809      9.6093254      0.2            91.136581    
     10600   0.25155526     0.0025323308   0.0025323308   0              0              2172.9443      3879.2402      466.48437      0              376.55         0              0              9.4832226      9.6087576      0.2            91.121987    
     10700   0.30265378     0.002317729    0.002317729    0              0              2022.8         4304.6713     -259.23965      0             -31.590047      0              0              9.4822644      9.6109563      0.2            91.133629    
     10800   0.22281414     0.0024856834   0.0024856834   0              0              2317.8788      4557.5377      78.02921       0             -199.07669      0              0              9.4813061      9.6147121      0.2            91.160029    
     10900   0.21728906     0.0025255249   0.0025255249   0              0              2654.5325      5194.6408      114.27767      0             -580.49203      0              0              9.4803479      9.6088878      0.2            91.095598    
     11000   0.17398261     0.0025994246   0.0025994246   0              0              2588.9329      5473.452      -295.74059      0             -808.83654      0              0              9.4793896      9.6094309      0.2            91.091539    
     11100   0.19428848     0.0025324712   0.0025324712   0              0              2235.5134      4192.8409      277.99616      0             -795.22895      0              0              9.4784313      9.604199       0.2            91.032741    
     11200   0.20387426     0.0023545046   0.0023545046   0              0              2311.7839      4835.5695     -212.18516      0              601.32         0              0              9.4774731      9.6161506      0.2            91.136809    
     11300   0.18204135     0.002299356    0.002299356    0              0              2743.7947      5194.5829      292.76531      0             -982.06753      0              0              9.4765148      9.6143671      0.2            91.110692    
     11400   0.18208044     0.0023091127   0.0023091127   0              0              1923.6768      4256.3943     -409.22135      0             -796.03754      0              0              9.4755566      9.6092341      0.2            91.052842    
     11500   0.20174069     0.002553139    0.002553139    0              0              2571.2321      4607.3917      534.88288      0             -1121.7439      0              0              9.4745983      9.6045926      0.2            90.999657    
     11600   0.15622849     0.0024025823   0.0024025823   0              0              1799.2752      4266.5792     -668.23629      0             -653.58858      0              0              9.47364        9.6180729      0.2            91.11816     
     11700   0.21184317     0.0023042551   0.0023042551   0              0              2979.4016      5190.7141      767.89088      0             -702.81732      0              0              9.4726818      9.6060568      0.2            90.995119    
     11800   0.20753785     0.0026909422   0.0026909422   0              0              1810.6919      4349.346      -728.16689      0             -244.05734      0              0              9.4717235      9.6173888      0.2            91.093247    
     11900   0.21169969     0.002925276    0.002925276    0              0              2546.5078      4440.255       652.53899      0             -327.63219      0              0              9.4707653      9.6089823      0.2            91.004416    
     12000   0.23283581     0.0027449129   0.0027449129   0              0              2187.951       4998.757      -623.05228      0              309.50952      0              0              9.469807       9.6164854      0.2            91.066261    
     12100   0.19637882     0.0028893469   0.0028893469   0              0              3441.9248      6167.3904      716.25183      0             -338.08114      0              0              9.4688487      9.6101275      0.2            90.996844    
     12200   0.19879201     0.0029134857   0.0029134857   0              0              2164.9186      4970.4624     -640.7968       0             -202.69591      0              0              9.4678905      9.6180017      0.2            91.062187    
     12300   0.18544491     0.0027603561   0.0027603561   0              0              2659.0105      4629.5556      688.27853      0             -437.79205      0              0              9.4669322      9.6095136      0.2            90.972614    
     12400   0.20354309     0.002722607    0.002722607    0              0              2320.2025      5301.4425     -661.27387      0             -1057.714       0              0              9.465974       9.6164102      0.2            91.028688    
     12500   0.15473643     0.0028786148   0.0028786148   0              0              3017.7359      5339.9448      695.31767      0              217.0423       0              0              9.4650157      9.6076134      0.2            90.936212    
     12600   0.1858316      0.0028938831   0.0028938831   0              0              1927.889       4601.0147     -745.44926      0             -68.184019      0              0              9.4640574      9.6146374      0.2            90.99348     
     12700   0.1892333      0.0029788118   0.0029788118   0              0              3964.2703      7139.9721      788.37955      0              93.127569      0              0              9.4630992      9.6097469      0.2            90.937988    
     12800   0.19813767     0.0030135564   0.0030135564   0              0              2100.7616      5148.5855     -947.25933      0             -13.123092      0              0              9.4621409      9.6212976      0.2            91.038074    
     12900   0.18282022     0.0028757111   0.0028757111   0              0              3905.5765      6886.4519      924.5049       0             -358.03611      0              0              9.4611827      9.610335       0.2            90.925135    
     13000   0.19276321     0.0028961313   0.0028961313   0              0              2185.9463      5323.0868     -951.42479      0             -524.21283      0              0              9.4602244      9.6170298      0.2            90.97926     
     13100   0.16723684     0.0032666415   0.0032666415   0              0              3627.9384      6477.6172      778.0783       0             -1372.9344      0              0              9.4592661      9.6100855      0.2            90.904356    
     13200   0.18571504     0.0031289295   0.0031289295   0              0              2487.8316      5659.2792     -683.8216       0             -665.58953      0              0              9.4583079      9.6239029      0.2            91.025836    
     13300   0.17703972     0.0030834564   0.0030834564   0              0              3745.3971      6869.773       620.82189      0             -124.90851      0              0              9.4573496      9.6182252      0.2            90.962919    
     13400   0.16792811     0.0031476363   0.0031476363   0              0              2804.1236      6301.7841     -693.74258      0             -411.19986      0              0              9.4563913      9.6175004      0.2            90.946848    
     13500   0.18374165     0.0031912373   0.0031912373   0              0              3675.9468      6753.4107      598.31464      0              193.88814      0              0              9.4554331      9.6083902      0.2            90.851491    
     13600   0.22142879     0.0031892717   0.0031892717   0              0              2699.5352      6001.7763     -602.8945       0             -181.52471      0              0              9.4544748      9.6089724      0.2            90.847787    
     13700   0.22199374     0.0032941172   0.0032941172   0              0              3753.9364      6830.9173      676.71288      0              340.86012      0              0              9.4535166      9.6051325      0.2            90.802279    
     13800   0.22849121     0.0032372355   0.0032372355   0              0              2413.0398      5520.5445     -694.68092      0             -223.46259      0              0              9.4525583      9.6194858      0.2            90.928751    
     13900   0.2076246      0.0031535941   0.0031535941   0              0              3101.6596      5486.3497      716.78077      0             -393.95473      0              0              9.4516         9.6147032      0.2            90.87433     
     14000   0.16797272     0.0034069628   0.0034069628   0              0              2169.2932      5165.2129     -826.82837      0             -300.89723      0              0              9.4506418      9.6253321      0.2            90.965566    
     14100   0.19275015     0.0030799797   0.0030799797   0              0              3514.1852      6204.9287      823.24228      0             -473.51729      0              0              9.4496835      9.6048327      0.2            90.762629    
     14200   0.16315598     0.0032449163   0.0032449163   0              0              2295.8889      5339.4867     -747.89584      0             -572.84313      0              0              9.4487253      9.6152761      0.2            90.852102    
     14300   0.21841457     0.0030586748   0.0030586748   0              0              3289.8422      5849.196       730.30497      0             -151.67481      0              0              9.447767       9.609168       0.2            90.785181    
     14400   0.19322946     0.003201794    0.003201794    0              0              2389.2199      5533.6131     -755.39959      0             -429.52053      0              0              9.4468087      9.614218       0.2            90.823679    
     14500   0.17880121     0.0034049543   0.0034049543   0              0              3751.5796      6811.7919      691.15616      0              165.8604       0              0              9.4458505      9.6078672      0.2            90.754477    
     14600   0.20858986     0.0034467269   0.0034467269   0              0              2808.4333      6179.1713     -562.48497      0             -197.87481      0              0              9.4448922      9.612661       0.2            90.790547    
     14700   0.19178506     0.0033341057   0.0033341057   0              0              3290.0495      6119.138       460.76101      0              21.636562      0              0              9.443934       9.6081946      0.2            90.739155    
     14800   0.17817626     0.0034929685   0.0034929685   0              0              3731.0984      7822.6159     -360.6217       0             -395.37682      0              0              9.4429757      9.6080294      0.2            90.728388    
     14900   0.15018303     0.0034885666   0.0034885666   0              0              3465.4696      6606.0813      324.68629      0              46.026166      0              0              9.4420174      9.6161144      0.2            90.79552     
     15000   0.23375239     0.0034426476   0.0034426476   0              0              3621.7804      7547.7216     -304.34461      0             -391.51023      0              0              9.4410592      9.6164333      0.2            90.789316    
     15100   0.21619258     0.0037085209   0.0037085209   0              0              3622.5023      7019.9015      224.95585      0             -287.12586      0              0              9.4401009      9.6093293      0.2            90.713038    
     15200   0.18901215     0.0038838889   0.0038838889   0              0              2858.321       5949.3184     -232.86277      0             -773.33356      0              0              9.4391427      9.6073978      0.2            90.685598    
     15300   0.19762872     0.0037255583   0.0037255583   0              0              3016.163       6006.6458      25.477869      0              211.62183      0              0              9.4381844      9.6066113      0.2            90.668969    
     15400   0.18724847     0.0037216283   0.0037216283   0              0              2713.5653      5513.3595     -86.427586      0             -403.76         0              0              9.4372261      9.6050685      0.2            90.645203    
     15500   0.1778461      0.0036825282   0.0036825282   0              0              3679.9819      7308.8194      50.924326      0             -569.78349      0              0              9.4362679      9.6006517      0.2            90.594322    
     15600   0.22321592     0.0035611276   0.0035611276   0              0              3393.8595      6799.1303     -11.599863      0             -326.31697      0              0              9.4353096      9.6005534      0.2            90.584194    
     15700   0.19910454     0.0037076977   0.0037076977   0              0              2740.5063      5410.7736      70.024771      0             -15.152295      0              0              9.4343514      9.5962996      0.2            90.534863    
     15800   0.17054242     0.0037953948   0.0037953948   0              0              3304.612       6743.6468     -134.57631      0              501.79433      0              0              9.4333931      9.6037662      0.2            90.596102    
     15900   0.22997348     0.0034775707   0.0034775707   0              0              3660.7588      7241.7795      79.561163      0              148.0001       0              0              9.4324348      9.6084696      0.2            90.631264    
     16000   0.20363421     0.0037663305   0.0037663305   0              0              3179.3461      6359.2756     -0.84260079     0             -34.567127      0              0              9.4314766      9.6108834      0.2            90.644822    
     16100   0.18567775     0.0039060901   0.0039060901   0              0              2892.1877      5878.7054     -94.565181      0             -106.80199      0              0              9.4305183      9.6099651      0.2            90.626952    
     16200   0.26095756     0.0038809428   0.0038809428   0              0              3056.3954      6098.9609      13.576481      0             -298.05899      0              0              9.4295601      9.6040743      0.2            90.562195    
     16300   0.1840158      0.0037400894   0.0037400894   0              0              3269.3345      6443.8322      94.62924       0             -468.85354      0              0              9.4286018      9.5993515      0.2            90.508463    
     16400   0.15852852     0.003964079    0.003964079    0              0              3253.2661      6517.4447     -11.12117       0              267.33195      0              0              9.4276435      9.5999445      0.2            90.504855    
     16500   0.23956635     0.0039428801   0.0039428801   0              0              3459.3496      6909.4565      9.0375203      0             -634.34453      0              0              9.4266853      9.5978834      0.2            90.476226    
     16600   0.20628882     0.0040546307   0.0040546307   0              0              3457.6046      6935.535      -20.536748      0              105.13475      0              0              9.425727       9.596855       0.2            90.457336    
     16700   0.23764847     0.0042614808   0.0042614808   0              0              3513.3725      7000.8037      25.738869      0              460.66839      0              0              9.4247688      9.6042199      0.2            90.517552    
     16800   0.20664003     0.0040189496   0.0040189496   0              0              3921.9173      7843.0645      0.55548961     0             -371.70145      0              0              9.4238105      9.5970942      0.2            90.441197    
     16900   0.1988043      0.0040629434   0.0040629434   0              0              3079.7799      6135.0606      24.257058      0             -86.129643      0              0              9.4228522      9.5970508      0.2            90.431592    
     17000   0.23272888     0.0042326665   0.0042326665   0              0              3454.0563      6954.6673     -46.760606      0             -332.4076       0              0              9.421894       9.6007482      0.2            90.457232    
     17100   0.2249603      0.0041832259   0.0041832259   0              0              3075.3192      6135.9103      14.534969      0              206.85658      0              0              9.4209357      9.6019928      0.2            90.459757    
     17200   0.20976638     0.0041719103   0.0041719103   0              0              3045.8079      6126.5547     -35.144061      0             -46.819755      0              0              9.4199775      9.5966095      0.2            90.399845    
     17300   0.20478379     0.0045022104   0.0045022104   0              0              3674.0279      7278.7942      69.03775       0             -211.77253      0              0              9.4190192      9.594392       0.2            90.369762    
     17400   0.18798828     0.0041722783   0.0041722783   0              0              4043.1844      7992.6189      93.587823      0              760.21095      0              0              9.4180609      9.6036001      0.2            90.44729     
     17500   0.21274711     0.0042491556   0.0042491556   0              0              3382.5499      6824.3091     -59.413139      0              108.27477      0              0              9.4171027      9.6006729      0.2            90.410522    
     17600   0.20065662     0.0042415817   0.0042415817   0              0              4101.9513      8124.7024      79.003539      0             -270.16449      0              0              9.4161444      9.5930485      0.2            90.32953     
     17700   0.21148268     0.0043651235   0.0043651235   0              0              3948.8605      8061.5006     -164.00464      0             -586.20704      0              0              9.4151862      9.5942981      0.2            90.332103    
     17800   0.21375602     0.0044549786   0.0044549786   0              0              3891.566       7681.4356      101.49963      0             -695.51358      0              0              9.4142279      9.5912758      0.2            90.294456    
     17900   0.23168179     0.004480126    0.004480126    0              0              3634.2587      7359.3896     -91.062871      0             -644.63671      0              0              9.4132696      9.5982936      0.2            90.351325    
     18000   0.21324645     0.0044096144   0.0044096144   0              0              3931.2938      7803.8872      58.520313      0             -412.95592      0              0              9.4123114      9.59662        0.2            90.326375    
     18100   0.19271677     0.0046237231   0.0046237231   0              0              3693.0859      7364.7792      21.216324      0             -40.560122      0              0              9.4113531      9.6016278      0.2            90.36431     
     18200   0.23949287     0.0047619105   0.0047619105   0              0              3970.5234      7960.4235     -19.567137      0             -1120.8776      0              0              9.4103949      9.5951903      0.2            90.29453     
     18300   0.19889584     0.0049464993   0.0049464993   0              0              4066.7922      8193.9151     -60.497305      0             -751.85158      0              0              9.4094366      9.6025887      0.2            90.354949    
     18400   0.22290904     0.0046748779   0.0046748779   0              0              4345.3535      8656.3558      34.186148      0             -193.13635      0              0              9.4084783      9.6042921      0.2            90.361774    
     18500   0.18779935     0.0048636107   0.0048636107   0              0              3578.2304      7222.7592     -66.50413       0             -1107.4609      0              0              9.4075201      9.6021082      0.2            90.332026    
     18600   0.20351657     0.0048041133   0.0048041133   0              0              4148.1118      8238.8416      57.166011      0             -667.62501      0              0              9.4065618      9.6064048      0.2            90.36324     
     18700   0.19402829     0.0047653669   0.0047653669   0              0              3957.5708      8040.5488     -125.64523      0             -213.02456      0              0              9.4056035      9.6091127      0.2            90.379505    
     18800   0.18666452     0.0047958802   0.0047958802   0              0              4218.0525      8306.8012      129.10242      0             -706.54155      0              0              9.4046453      9.6099676      0.2            90.378336    
     18900   0.18371941     0.0047037181   0.0047037181   0              0              3597.307       7381.0861     -186.61202      0             -821.03302      0              0              9.403687       9.6125101      0.2            90.393037    
     19000   0.20920101     0.0048298922   0.0048298922   0              0              3830.8963      7472.7912      188.78704      0             -558.58092      0              0              9.4027288      9.6058994      0.2            90.321667    
     19100   0.18111514     0.0049152768   0.0049152768   0              0              4031.5612      8210.0261     -147.06972      0              81.999613      0              0              9.4017705      9.6116512      0.2            90.366539    
     19200   0.21913548     0.0049477547   0.0049477547   0              0              3821.7704      7545.4827      97.830251      0             -129.91646      0              0              9.4008122      9.6087796      0.2            90.330333    
     19300   0.21547243     0.0050240299   0.0050240299   0              0              3751.6425      7610.6361     -107.53731      0             -480.41219      0              0              9.399854       9.6118301      0.2            90.3498      
     19400   0.22538561     0.0050801879   0.0050801879   0              0              3795.7592      7488.1242      103.15175      0             -294.48944      0              0              9.3988957      9.6118986      0.2            90.341233    
     19500   0.19087693     0.0050036274   0.0050036274   0              0              3694.686       7452.6831     -63.512798      0             -731.81558      0              0              9.3979375      9.6163135      0.2            90.373513    
     19600   0.19981738     0.0049888537   0.0049888537   0              0              4386.3891      8682.1131      90.445349      0             -835.77596      0              0              9.3969792      9.6162581      0.2            90.363778    
     19700   0.18159767     0.0051860739   0.0051860739   0              0              3868.3081      7729.6318      6.7745397      0              149.48424      0              0              9.3960209      9.6147244      0.2            90.340152    
     19800   0.21134035     0.0052358477   0.0052358477   0              0              4043.0109      8089.6447     -3.809299       0             -789.14677      0              0              9.3950627      9.6130137      0.2            90.314867    
     19900   0.24061089     0.0053354033   0.0053354033   0              0              3746.5118      7470.1152      22.720499      0              68.941252      0              0              9.3941044      9.6126135      0.2            90.301895    
     20000   0.18686419     0.0053402179   0.0053402179   0              0              4690.3696      9401.9896     -21.461066      0             -133.23877      0              0              9.3931462      9.608751       0.2            90.256402    
     20100   0.1738585      0.005438352    0.005438352    0              0              3966.7736      8042.5564     -109.21804      0             -507.03937      0              0              9.3921879      9.6140787      0.2            90.297234    
     20200   0.19845283     0.0053884012   0.0053884012   0              0              4375.267       8644.2726      106.10321      0             -782.43105      0              0              9.3912296      9.605218       0.2            90.204808    
     20300   0.17632974     0.0054082766   0.0054082766   0              0              3818.8907      7574.3082      63.25837       0             -291.03751      0              0              9.3902714      9.6049755      0.2            90.193326    
     20400   0.22143859     0.0056201341   0.0056201341   0              0              3805.3288      7710.7264     -100.22613      0              126.76195      0              0              9.3893131      9.6075177      0.2            90.207992    
     20500   0.18327003     0.0056438404   0.0056438404   0              0              4103.5713      8135.5051      71.456138      0             -317.65269      0              0              9.3883549      9.6129822      0.2            90.250088    
     20600   0.2136943      0.0053437325   0.0053437325   0              0              4109.1         8285.9595     -67.962289      0             -391.03566      0              0              9.3873966      9.6107895      0.2            90.220293    
     20700   0.22859989     0.0054382442   0.0054382442   0              0              3718.4582      7441.0771     -4.3829087      0             -574.85071      0              0              9.3864383      9.6061381      0.2            90.167423    
     20800   0.21999779     0.0055259967   0.0055259967   0              0              3866.4822      7875.9618     -143.21014      0              402.17839      0              0              9.3854801      9.6095426      0.2            90.190171    
     20900   0.20465871     0.0056844632   0.0056844632   0              0              4601.4886      9098.9686      103.79249      0              33.407449      0              0              9.3845218      9.6024919      0.2            90.114795    
     21000   0.18169381     0.0057038666   0.0057038666   0              0              3596.2692      7323.1352     -130.81126      0             -193.41397      0              0              9.3835636      9.6046511      0.2            90.125854    
     21100   0.22052908     0.0055521827   0.0055521827   0              0              3812.5324      7533.0881      91.777367      0             -151.75413      0              0              9.3826053      9.6014149      0.2            90.086286    
     21200   0.18905511     0.005995655    0.005995655    0              0              3672.7526      7521.7753     -176.43337      0             -588.00321      0              0              9.381647       9.6042332      0.2            90.103526    
     21300   0.22774325     0.00593841     0.00593841     0              0              4946.6438      9658.9371      234.1463       0              100.43197      0              0              9.3806888      9.6017793      0.2            90.071303    
     21400   0.21364892     0.0057933075   0.0057933075   0              0              4121.8069      8431.6669     -188.23486      0             -42.004574      0              0              9.3797305      9.6057155      0.2            90.099023    
     21500   0.17354107     0.0059048382   0.0059048382   0              0              3824.2861      7391.3229      257.03785      0              405.24905      0              0              9.3787723      9.6001936      0.2            90.03803     
     21600   0.20735231     0.0058792823   0.0058792823   0              0              3915.4469      8063.2694     -232.57043      0              233.81843      0              0              9.377814       9.601246       0.2            90.038699    
     21700   0.20882861     0.005777218    0.005777218    0              0              4198.5252      8124.2568      272.60857      0             -322.0738       0              0              9.3768557      9.5995901      0.2            90.013971    
     21800   0.20177659     0.0060186964   0.0060186964   0              0              3596.082       7584.6624     -392.67758      0             -254.52202      0              0              9.3758975      9.6069973      0.2            90.074222    
     21900   0.22478367     0.0060455112   0.0060455112   0              0              4542.0527      8732.6915      351.26416      0              243.53104      0              0              9.3749392      9.5982911      0.2            89.983396    
     22000   0.25142421     0.0060318509   0.0060318509   0              0              4026.0401      8441.0569     -389.16987      0             -223.34039      0              0              9.373981       9.6022016      0.2            90.010855    
     22100   0.21033669     0.0060980878   0.0060980878   0              0              4348.7864      8329.741       367.6269       0              437.23362      0              0              9.3730227      9.5976433      0.2            89.958929    
     22200   0.22375947     0.0059016041   0.0059016041   0              0              3385.436       7258.7503     -488.0583       0             -347.9263       0              0              9.3720644      9.6013631      0.2            89.984593    
     22300   0.24237749     0.0061110601   0.0061110601   0              0              4531.0036      8599.8192      461.97947      0             -245.67251      0              0              9.3711062      9.6018597      0.2            89.980047    
     22400   0.22710992     0.0059292942   0.0059292942   0              0              4117.6435      8740.6134     -505.47997      0              311.1456       0              0              9.3701479      9.6040567      0.2            89.991432    
     22500   0.21762909     0.0060353676   0.0060353676   0              0              4349.5384      8168.9705      529.89962      0             -1000.3238      0              0              9.3691897      9.5973757      0.2            89.919633    
     22600   0.22391002     0.0061291991   0.0061291991   0              0              4403.3334      9431.55       -625.06831      0             -23.924752      0              0              9.3682314      9.5973583      0.2            89.910273    
     22700   0.25075824     0.0060567492   0.0060567492   0              0              4445.3074      8169.0387      721.34833      0             -421.68181      0              0              9.3672731      9.5900245      0.2            89.832379    
     22800   0.2253578      0.0061880102   0.0061880102   0              0              3817.4095      8300.3428     -665.71186      0             -121.16318      0              0              9.3663149      9.5957701      0.2            89.877004    
     22900   0.20305148     0.0061550506   0.0061550506   0              0              4447.2951      8239.0941      655.26919      0             -17.647913      0              0              9.3653566      9.5937361      0.2            89.848759    
     23000   0.19741507     0.0063718221   0.0063718221   0              0              3920.2774      8539.9399     -699.57188      0              143.1837       0              0              9.3643984      9.6005541      0.2            89.903413    
     23100   0.18712751     0.0064204605   0.0064204605   0              0              4429.2594      8190.936       667.4108       0             -499.25084      0              0              9.3634401      9.5940292      0.2            89.833118    
     23200   0.16667466     0.0062684332   0.0062684332   0              0              3340.1881      7393.861      -713.6583       0             -74.740198      0              0              9.3624818      9.609742       0.2            89.971035    
     23300   0.17237051     0.0065506564   0.0065506564   0              0              4706.4382      8762.1445      650.53736      0             -757.39337      0              0              9.3615236      9.5979667      0.2            89.851592    
     23400   0.19610574     0.0062289336   0.0062289336   0              0              3488.79        7661.7804     -684.38909      0             -1049.4679      0              0              9.3605653      9.6067855      0.2            89.924943    
     23500   0.20313466     0.0064789705   0.0064789705   0              0              4828.4538      8949.078       707.63063      0             -124.74475      0              0              9.3596071      9.6021581      0.2            89.872427    
     23600   0.22173369     0.0066376488   0.0066376488   0              0              3945.4475      8647.6274     -756.92761      0             -523.33931      0              0              9.3586488      9.6055591      0.2            89.895054    
     23700   0.23708549     0.0068375515   0.0068375515   0              0              4303.0216      7806.0742      799.7564       0             -1002.9756      0              0              9.3576905      9.6000301      0.2            89.834111    
     23800   0.20051401     0.0066779219   0.0066779219   0              0              4026.0157      8838.5836     -786.71694      0             -365.70195      0              0              9.3567323      9.6057522      0.2            89.878452    
     23900   0.27152409     0.0065742015   0.0065742015   0              0              4768.6298      8763.6089      773.44264      0             -284.85867      0              0              9.355774       9.5896128      0.2            89.71825     
     24000   0.19323222     0.0066048612   0.0066048612   0              0              4041.1791      8860.62       -778.45732      0             -302.4454       0              0              9.3548157      9.5920339      0.2            89.73171     
     24100   0.19218855     0.0067427261   0.0067427261   0              0              4302.3914      7822.2045      782.35229      0             -93.744008      0              0              9.3538575      9.5852254      0.2            89.658832    
     24200   0.14452922     0.006923884    0.006923884    0              0              3470.9051      7659.7977     -718.17426      0              272.34498      0              0              9.3528992      9.5999955      0.2            89.787791    
     24300   0.17905167     0.006753869    0.006753869    0              0              4407.9106      8183.0879      632.54171      0             -91.856431      0              0              9.351941       9.590873       0.2            89.693278    
     24400   0.2201268      0.0068934799   0.0068934799   0              0              3957.7317      8607.9629     -692.70556      0              53.662582      0              0              9.3509827      9.5997488      0.2            89.767085    
     24500   0.23084415     0.0071126043   0.0071126043   0              0              5005.7018      9404.2539      606.95429      0              215.72839      0              0              9.3500244      9.5896828      0.2            89.663769    
     24600   0.18460897     0.0069740677   0.0069740677   0              0              4252.5695      8999.2805     -494.28162      0             -195.64572      0              0              9.3490662      9.5911697      0.2            89.668481    
     24700   0.24785602     0.0069830767   0.0069830767   0              0              4228.844       8076.8581      380.62408      0             -75.658833      0              0              9.3481079      9.5867962      0.2            89.618405    
     24800   0.21874621     0.0071933147   0.0071933147   0              0              4422.1357      9014.801      -170.68951      0              672.89228      0              0              9.3471497      9.5915129      0.2            89.653306    
     24900   0.17540176     0.007259557    0.007259557    0              0              4648.305       9260.7084      35.620779      0             -498.76378      0              0              9.3461914      9.5936914      0.2            89.664476    
     25000   0.17002495     0.0070944465   0.0070944465   0              0              4403.5612      8763.5179      43.38005       0             -257.36247      0              0              9.3452331      9.5942502      0.2            89.660505    
     25100   0.20177124     0.0072125027   0.0072125027   0              0              4548.3602      9326.7347     -230.20552      0              52.899649      0              0              9.3442749      9.5906025      0.2            89.617227    
     25200   0.18922092     0.0075826996   0.0075826996   0              0              4731.0526      9143.0665      318.86451      0             -135.84269      0              0              9.3433166      9.5854632      0.2            89.560017    
     25300   0.17882234     0.0073182057   0.0073182057   0              0              4523.0035      9346.1338     -300.29638      0              137.67681      0              0              9.3423584      9.5875806      0.2            89.570614    
     25400   0.21921117     0.0074679361   0.0074679361   0              0              4741.3078      9113.1063      369.35114      0              327.87898      0              0              9.3414001      9.5773752      0.2            89.466094    
     25500   0.28167579     0.0077529057   0.0077529057   0              0              4269.7266      8905.7949     -366.54866      0             -306.34128      0              0              9.3404418      9.5775235      0.2            89.458301    
     25600   0.21831934     0.0074854661   0.0074854661   0              0              4652.6868      8907.4541      397.72748      0             -774.87369      0              0              9.3394836      9.5681092      0.2            89.361199    
     25700   0.24480193     0.0075368081   0.0075368081   0              0              4081.9993      8666.4014     -502.585        0             -667.81084      0              0              9.3385253      9.5781088      0.2            89.445411    
     25800   0.23450887     0.0074458665   0.0074458665   0              0              5153.9986      9830.339       477.48661      0             -270.8555       0              0              9.3375671      9.5762837      0.2            89.419192    
     25900   0.21403751     0.0078619714   0.0078619714   0              0              4061.8617      8687.2993     -563.78867      0             -236.27426      0              0              9.3366088      9.5835905      0.2            89.478236    
     26000   0.20745955     0.0077171372   0.0077171372   0              0              5153.2758      9757.9655      548.41268      0             -474.43859      0              0              9.3356505      9.5790125      0.2            89.426314    
     26100   0.25368537     0.0079639862   0.0079639862   0              0              4224.3754      9062.0233     -613.50453      0             -33.083138      0              0              9.3346923      9.5831898      0.2            89.456128    
     26200   0.27175782     0.0080392798   0.0080392798   0              0              4567.966       8447.0525      688.67098      0             -176.09541      0              0              9.333734       9.5820293      0.2            89.436113    
     26300   0.20273024     0.0077390827   0.0077390827   0              0              4132.9977      8992.4328     -726.60979      0             -403.77234      0              0              9.3327758      9.5927329      0.2            89.526825    
     26400   0.20513396     0.0079098423   0.0079098423   0              0              4706.2614      8720.6816      691.63161      0             -391.72305      0              0              9.3318175      9.5891653      0.2            89.484341    
     26500   0.22942176     0.0079342814   0.0079342814   0              0              4349.8425      9248.3336     -548.88119      0             -720.10769      0              0              9.3308592      9.5920709      0.2            89.502264    
     26600   0.20474571     0.0078111402   0.0078111402   0              0              5500.7063      10378.328      622.8726       0             -580.06589      0              0              9.329901       9.5882697      0.2            89.457607    
     26700   0.20314098     0.0078487238   0.0078487238   0              0              4702.0657      9886.2954     -482.37263      0             -569.65431      0              0              9.3289427      9.588833       0.2            89.453674    
     26800   0.20188454     0.0080902413   0.0080902413   0              0              4788.4621      9096.5905      480.14033      0             -817.44222      0              0              9.3279845      9.5795565      0.2            89.357954    
     26900   0.18753612     0.0080269269   0.0080269269   0              0              4369.4851      9230.8634     -492.07987      0             -795.35203      0              0              9.3270262      9.5863156      0.2            89.411816    
     27000   0.2220767      0.0081084623   0.0081084623   0              0              4589.7496      8672.0498      507.24876      0             -1095.0655      0              0              9.3260679      9.5827476      0.2            89.369355    
     27100   0.18836312     0.0081227873   0.0081227873   0              0              4478.9897      9453.9478     -496.17617      0             -451.00336      0              0              9.3251097      9.5890905      0.2            89.419321    
     27200   0.19744011     0.0083106729   0.0083106729   0              0              5017.1116      9572.4395      461.56683      0             -572.53827      0              0              9.3241514      9.5832899      0.2            89.356046    
     27300   0.18914685     0.0083656213   0.0083656213   0              0              4395.8151      9198.8978     -407.47015      0             -283.16604      0              0              9.3231932      9.5912177      0.2            89.420776    
     27400   0.21510273     0.0085498251   0.0085498251   0              0              4737.6668      9059.3735      415.75508      0             -384.53009      0              0              9.3222349      9.5893378      0.2            89.39406     
     27500   0.22234368     0.008327497    0.008327497    0              0              4339.3264      8922.8702     -244.39728      0             -682.42153      0              0              9.3212766      9.5962131      0.2            89.448957    
     27600   0.20601233     0.0084734863   0.0084734863   0              0              4315.0251      8399.5177      230.34044      0              83.680413      0              0              9.3203184      9.5921155      0.2            89.40157     
     27700   0.22975006     0.0085063495   0.0085063495   0              0              4332.4357      8824.7392     -160.06871      0             -630.12874      0              0              9.3193601      9.5918053      0.2            89.389488    
     27800   0.2112005      0.0083466219   0.0083466219   0              0              5164.3036      10255.406      73.020017      0             -576.53897      0              0              9.3184019      9.5866207      0.2            89.331984    
     27900   0.20841746     0.0085240718   0.0085240718   0              0              4971.7986      10051.633     -108.15836      0             -472.86227      0              0              9.3174436      9.5875697      0.2            89.33164     
     28000   0.20675483     0.008618884    0.008618884    0              0              5018.6408      9989.6327      47.440187      0             -299.5517       0              0              9.3164853      9.5837483      0.2            89.28685     
[...]
     43000   0.20648667     0.017026826    0.017026826    0              0              6842.4093      12758.06       926.56323      0             -875.2446       0              0              9.1727463      9.5684212      0.2            87.7687      
     43100   0.21669687     0.017215204    0.017215204    0              0              5766.0776      12408.732     -876.77449      0             -1129.2853      0              0              9.171788       9.5736044      0.2            87.80707     
     43200   0.15497393     0.017304388    0.017304388    0              0              7076.8208      13415.575      737.91702      0             -572.8226       0              0              9.1708298      9.5635784      0.2            87.705949    
     43300   0.20366472     0.017126251    0.017126251    0              0              5814.3057      12225.841     -597.4463       0             -886.18204      0              0              9.1698715      9.563928       0.2            87.699991    
     43400   0.22140546     0.017262332    0.017262332    0              0              6263.5876      12265.74       261.23726      0             -270.80535      0              0              9.1689132      9.5562029      0.2            87.619995    
     43500   0.20727449     0.017453181    0.017453181    0              0              6554.8204      12985.716      123.69724      0             -905.13169      0              0              9.167955       9.5598524      0.2            87.644296    
     43600   0.20462651     0.017555031    0.017555031    0              0              5250.2712      11109.346     -609.02284      0             -219.31251      0              0              9.1669967      9.5677347      0.2            87.707393    
     43700   0.21973308     0.017450975    0.017450975    0              0              6872.5332      12691.221      1053.6828      0             -886.44433      0              0              9.1660385      9.5549945      0.2            87.581447    
     43800   0.18567149     0.017950391    0.017950391    0              0              5107.7126      11554.896     -1339.6506      0             -653.2349       0              0              9.1650802      9.5694919      0.2            87.705161    
     43900   0.26187433     0.01758654     0.01758654     0              0              7146.1946      12627.984      1664.172       0             -654.69182      0              0              9.1641219      9.5552783      0.2            87.565735    
     44000   0.2562269      0.017531868    0.017531868    0              0              5188.4031      12092.478     -1715.8986      0             -1075.9151      0              0              9.1631637      9.5686356      0.2            87.678974    
     44100   0.21751076     0.017537506    0.017537506    0              0              7444.4134      13206.141      1682.4641      0              74.782851      0              0              9.1622054      9.5518388      0.2            87.515909    
     44200   0.2027564      0.01775015     0.01775015     0              0              5109.5894      11540.025     -1321.0495      0             -619.02512      0              0              9.1612472      9.5687511      0.2            87.661694    
     44300   0.15931802     0.017796213    0.017796213    0              0              6754.1073      12721.13       786.86761      0             -1151.524       0              0              9.1602889      9.5509248      0.2            87.48923     
     44400   0.22522971     0.017978324    0.017978324    0              0              6062.5743      12286.984     -162.06901      0             -807.69205      0              0              9.1593306      9.5601099      0.2            87.564208    
     44500   0.19348866     0.01811896     0.01811896     0              0              5962.3408      12259.576     -335.04269      0             -784.74591      0              0              9.1583724      9.5641793      0.2            87.592315    
     44600   0.19296689     0.017927102    0.017927102    0              0              6255.6457      11656.157      854.92499      0             -1011.848       0              0              9.1574141      9.5539805      0.2            87.489756    
     44700   0.2003293      0.018037171    0.018037171    0              0              5556.62        12090.718     -977.66406      0             -239.12272      0              0              9.1564558      9.5636762      0.2            87.569379    
     44800   0.18214233     0.018438102    0.018438102    0              0              6815.629       12590.465      1040.5916      0             -792.99567      0              0              9.1554976      9.555565       0.2            87.485952    
     44900   0.20476199     0.018034437    0.018034437    0              0              5757.7102      12480.131     -964.90563      0             -740.10397      0              0              9.1545393      9.5590746      0.2            87.508924    
     45000   0.19474992     0.018424365    0.018424365    0              0              6329.4616      11881.822      776.86332      0             -292.50246      0              0              9.1535811      9.5531851      0.2            87.445855    
     45100   0.19370812     0.018287656    0.018287656    0              0              6075.2053      12709.412     -559.18448      0             -621.85193      0              0              9.1526228      9.5565807      0.2            87.467778    
     45200   0.19785065     0.018813834    0.018813834    0              0              6466.3555      12618.802      313.70877      0             -298.77874      0              0              9.1516645      9.5480376      0.2            87.380437    
     45300   0.20471874     0.01852516     0.01852516     0              0              5798.2972      11655.492     -59.136125      0             -1035.2529      0              0              9.1507063      9.5536504      0.2            87.422649    
     45400   0.19283895     0.01846668     0.01846668     0              0              6527.9925      13261.638     -205.84762      0             -63.138638      0              0              9.149748       9.5547985      0.2            87.423999    
     45500   0.22449616     0.018768235    0.018768235    0              0              6054.4511      11617.451      491.22063      0             -679.68381      0              0              9.1487898      9.5527256      0.2            87.395878    
     45600   0.2819398      0.018740122    0.018740122    0              0              5876.7382      12287.966     -534.69065      0             -1017.3905      0              0              9.1478315      9.5610746      0.2            87.463099    
     45700   0.16620447     0.019114135    0.019114135    0              0              6467.9113      12396.354      539.27838      0             -878.2615       0              0              9.1468732      9.5561399      0.2            87.4088      
     45800   0.16519805     0.018991148    0.018991148    0              0              6050.7051      12607.745     -506.55371      0             -747.66337      0              0              9.145915       9.5599739      0.2            87.434708    
     45900   0.23454932     0.019018303    0.019018303    0              0              6627.4732      12821.999      432.75906      0             -1158.8963      0              0              9.1449567      9.5513141      0.2            87.346354    
     46000   0.19783212     0.01909633     0.01909633     0              0              5871.9837      12012.976     -269.19602      0             -628.42375      0              0              9.1439985      9.5620801      0.2            87.435646    
     46100   0.18390482     0.019195031    0.019195031    0              0              6686.457       13167.165      205.56589      0             -1373.2754      0              0              9.1430402      9.5630868      0.2            87.435687    
     46200   0.21500075     0.019312251    0.019312251    0              0              6430.5691      12818.621      42.324885      0             -1766.6568      0              0              9.1420819      9.5600276      0.2            87.398556    
     46300   0.21883946     0.019007692    0.019007692    0              0              6231.2165      12710.886     -248.63743      0             -1202.3214      0              0              9.1411237      9.5528863      0.2            87.324115    
     46400   0.20878813     0.019326442    0.019326442    0              0              6049.9815      11804.493      295.27945      0             -996.82143      0              0              9.1401654      9.5531636      0.2            87.317496    
     46500   0.20062717     0.019267516    0.019267516    0              0              5893.5103      12243.487     -456.68777      0             -946.74518      0              0              9.1392072      9.5545438      0.2            87.320955    
     46600   0.2595399      0.019529632    0.019529632    0              0              6412.5078      12468.982      355.84923      0             -851.37444      0              0              9.1382489      9.5481361      0.2            87.253244    
     46700   0.19282715     0.019461232    0.019461232    0              0              5946.9676      12170.628     -276.89123      0             -1286.9253      0              0              9.1372906      9.5616134      0.2            87.36724     
     46800   0.18090869     0.01937483     0.01937483     0              0              6443.836       12582.783      304.67998      0             -942.80681      0              0              9.1363324      9.5549611      0.2            87.297301    
     46900   0.22714918     0.019686261    0.019686261    0              0              6421.7823      13068.125     -224.77948      0             -499.72482      0              0              9.1353741      9.5650814      0.2            87.380597    
     47000   0.19907353     0.01966809     0.01966809     0              0              6994.0175      13881.545      106.31089      0             -982.3023       0              0              9.1344159      9.5566967      0.2            87.294842    
     47100   0.20128808     0.019990386    0.019990386    0              0              7053.3746      14027.89       78.635814      0             -482.17708      0              0              9.1334576      9.555482       0.2            87.274589    
     47200   0.20066786     0.019758647    0.019758647    0              0              6255.2963      12563.505     -53.106522      0             -1295.603       0              0              9.1324993      9.5486463      0.2            87.203006    
     47300   0.19714849     0.019986721    0.019986721    0              0              6637.2946      13115.981      158.38763      0             -1045.4401      0              0              9.1315411      9.551608       0.2            87.2209      
     47400   0.23231565     0.019980332    0.019980332    0              0              6349.1715      12900.694     -202.54298      0             -1089.4748      0              0              9.1305828      9.5586613      0.2            87.276149    
     47500   0.20374471     0.020009546    0.020009546    0              0              6937.5976      13658.169      216.84369      0             -896.53926      0              0              9.1296246      9.5531991      0.2            87.217122    
     47600   0.21650127     0.019951617    0.019951617    0              0              6275.7731      12778.344     -226.95842      0             -1113.0904      0              0              9.1286663      9.5541313      0.2            87.216476    
     47700   0.17627924     0.020376579    0.020376579    0              0              6859.9033      13515.531      204.09525      0             -1143.7464      0              0              9.127708       9.5463812      0.2            87.136581    
     47800   0.18108154     0.020125026    0.020125026    0              0              6885.9943      13950.939     -179.13656      0             -1004.6607      0              0              9.1267498      9.5565719      0.2            87.22044     
     47900   0.18181509     0.020574565    0.020574565    0              0              6527.3068      12913.849      140.56754      0             -819.49647      0              0              9.1257915      9.5562449      0.2            87.208299    
     48000   0.20383886     0.020244741    0.020244741    0              0              7233.2516      14622.386     -156.08797      0             -561.72406      0              0              9.1248333      9.5555772      0.2            87.193049    
     48100   0.16947577     0.0201227      0.0201227      0              0              7031.001       13781.091      280.72268      0             -1035.4363      0              0              9.123875       9.5520188      0.2            87.151426    
     48200   0.20462203     0.020452435    0.020452435    0              0              7126.1532      14457.756     -205.62954      0             -1576.2334      0              0              9.1229167      9.5582221      0.2            87.198864    
     48300   0.21354992     0.020671454    0.020671454    0              0              7132.3922      14108.629      155.95158      0             -302.04084      0              0              9.1219585      9.5604265      0.2            87.209814    
     48400   0.16650062     0.02059883     0.02059883     0              0              6208.1839      12522.979     -106.79798      0             -1634.6257      0              0              9.1210002      9.567924       0.2            87.269037    
     48500   0.20499484     0.020594005    0.020594005    0              0              7134.6646      14227.268      41.868785      0             -330.85444      0              0              9.120042       9.5591976      0.2            87.180283    
     48600   0.23564378     0.020463278    0.020463278    0              0              6386.159       12642.719      129.39693      0             -1133.783       0              0              9.1190837      9.5562346      0.2            87.144103    
     48700   0.2077935      0.020632932    0.020632932    0              0              6168.1975      12665.591     -329.3766       0             -395.40523      0              0              9.1181254      9.5569633      0.2            87.14159     
     48800   0.18814318     0.021063495    0.021063495    0              0              7556.0504      14462.977      648.91845      0             -1078.0945      0              0              9.1171672      9.5521643      0.2            87.088679    
     48900   0.21823401     0.020860994    0.020860994    0              0              6098.8184      13014.327     -816.8739       0             -1905.8351      0              0              9.1162089      9.5554225      0.2            87.109228    
     49000   0.19019473     0.021145901    0.021145901    0              0              7443.7458      13800.877      1086.405       0             -1588.8948      0              0              9.1152507      9.5515621      0.2            87.064883    
     49100   0.17623954     0.020939955    0.020939955    0              0              5522.7333      12178.978     -1133.7127      0             -1196.9646      0              0              9.1142924      9.5663059      0.2            87.190109    
     49200   0.20445894     0.020716277    0.020716277    0              0              7317.5034      13577.862      1056.9373      0             -1427.6951      0              0              9.1133341      9.5627276      0.2            87.148332    
     49300   0.16911014     0.021006759    0.021006759    0              0              5447.7085      11623.45      -728.22974      0             -1494.8558      0              0              9.1123759      9.5704046      0.2            87.209124    
     49400   0.18847001     0.020990295    0.020990295    0              0              6862.0187      13579.674      144.1303       0             -767.38643      0              0              9.1114176      9.5591559      0.2            87.097461    
     49500   0.19926378     0.021127628    0.021127628    0              0              6941.7317      13368.008      515.27815      0             -1297.6163      0              0              9.1104594      9.5583006      0.2            87.080509    
     49600   0.22677724     0.021414823    0.021414823    0              0              6489.2696      13996.214     -1017.865       0             -1871.4933      0              0              9.1095011      9.5563299      0.2            87.053397    
     49700   0.22423546     0.021459034    0.021459034    0              0              7961.8189      14593.163      1330.2697      0             -1315.1026      0              0              9.1085428      9.5419934      0.2            86.913655    
     49800   0.2244938      0.021303759    0.021303759    0              0              6233.8158      13779.043     -1311.6313      0             -998.26557      0              0              9.1075846      9.5540824      0.2            87.014614    
     49900   0.20575962     0.021464201    0.021464201    0              0              7395.4844      13678.943      1111.8108      0             -378.63436      0              0              9.1066263      9.5459869      0.2            86.931736    
     50000   0.27988813     0.021780415    0.021780415    0              0              6386.29        13507.086     -734.75057      0             -767.11865      0              0              9.105668       9.554256       0.2            86.997883    
     50100   0.2158951      0.021819955    0.021819955    0              0              7037.4501      13806.466      268.21069      0             -71.009978      0              0              9.1047098      9.5561999      0.2            87.006427    
     50200   0.28810417     0.021723178    0.021723178    0              0              6785.4358      13228.768      341.90624      0             -817.72784      0              0              9.1037515      9.5602442      0.2            87.034088    
     50229   0.18104896     0.022372741    0.022372741    0              0              6889.6989      12720.97       1058.2579      0             -1080.4626      0              0              9.1034736      9.5505425      0.2            86.943112    
Loop time of 1.16038 on 1 procs for 50000 steps with 63 atoms

Performance: 37229.173 ns/day, 0.001 hours/ns, 43089.321 timesteps/s
99.3% CPU use with 1 MPI tasks x 1 OpenMP threads

MPI task timing breakdown:
Section |  min time  |  avg time  |  max time  |%varavg| %total
---------------------------------------------------------------
Pair    | 0          | 0          | 0          |   0.0 |  0.00
Bond    | 0.1795     | 0.1795     | 0.1795     |   0.0 | 15.47
Neigh   | 0          | 0          | 0          |   0.0 |  0.00
Comm    | 0.39012    | 0.39012    | 0.39012    |   0.0 | 33.62
Output  | 0.0071265  | 0.0071265  | 0.0071265  |   0.0 |  0.61
Modify  | 0.55605    | 0.55605    | 0.55605    |   0.0 | 47.92
Other   |            | 0.02758    |            |       |  2.38

Nlocal:             63 ave          63 max          63 min
Histogram: 1 0 0 0 0 0 0 0 0 0
Nghost:            544 ave         544 max         544 min
Histogram: 1 0 0 0 0 0 0 0 0 0
Neighs:              0 ave           0 max           0 min
Histogram: 1 0 0 0 0 0 0 0 0 0

Total # of neighbors = 0
Ave neighs/atom = 0
Ave special neighs/atom = 25.015873
Neighbor list builds = 0
Dangerous builds = 0


Total wall time: 0:00:01
