LAMMPS data file via write_data, version 23 Jun 2022, timestep = 10000

80 atoms
4 atom types

-4.824420738198575 4.824420738198575 xlo xhi
-4.824420738198575 4.824420738198575 ylo yhi
-0.1 0.1 zlo zhi

Atoms # sphere

2 1 1.6 0.2441406249999999 -3.9750572178539167 -4.317763863638794 0 1 0 0
29 2 1.3 0.4551661356395083 -2.834611342841575 -4.8092071505742435 0 0 0 0
77 4 0.7 2.915451895043732 -1.8731923421720342 -4.6400264661501645 0 0 1 0
17 1 1.6 0.2441406249999999 -0.8556276187888314 -4.482540208323831 0 0 0 0
32 2 1.3 0.4551661356395083 0.4318012387272976 -4.1974250829764115 0 0 0 0
33 2 1.3 0.4551661356395083 1.5950321037079114 -4.572681514941041 0 0 0 0
80 4 0.7 2.915451895043732 2.189785188500199 -4.109516205896277 0 0 0 0
48 3 1 1 2.966319736764979 -3.949221319053897 0 0 0 0
71 4 0.7 2.915451895043732 4.027813149680163 -3.8796143926008293 0 0 0 0
67 4 0.7 2.915451895043732 3.5997721766493447 -4.4018896153903135 0 0 0 0
55 3 1 1 4.435387496414161 -4.5396051646294175 0 0 1 0
69 4 0.7 2.915451895043732 -4.28909588124896 -3.3505817937183497 0 0 0 0
6 1 1.6 0.2441406249999999 -2.26202885080843 -3.647393795163122 0 0 0 0
70 4 0.7 2.915451895043732 -1.3141137618541947 -3.091316529232844 0 0 1 0
65 4 0.7 2.915451895043732 -0.8960961913929624 -3.4410127411105034 0 0 1 0
49 3 1 1 0.03501056679158676 -3.1611612977627255 0 0 0 0
39 2 1.3 0.4551661356395083 1.4436454970100883 -3.4753209351053282 0 0 0 0
75 4 0.7 2.915451895043732 2.3881400667504566 -3.4270123896024187 0 0 0 0
11 1 1.6 0.2441406249999999 3.530007318671344 -2.9642503751389873 0 0 1 0
72 4 0.7 2.915451895043732 4.535591889218508 -3.4427309489661537 0 -1 1 0
50 3 1 1 -4.394626429382462 -1.8151251491976867 0 0 0 0
10 1 1.6 0.2441406249999999 -3.3676951929277656 -2.6779783653591127 0 0 0 0
62 4 0.7 2.915451895043732 -2.583841947171369 -1.9213038170602994 0 0 1 0
52 3 1 1 -1.8473746127759019 -2.4529084256124647 0 0 1 0
5 1 1.6 0.2441406249999999 -0.5339922758078419 -2.1753502871009966 0 0 0 0
34 2 1.3 0.4551661356395083 0.7201521171557399 -2.420324503121745 0 0 0 0
13 1 1.6 0.2441406249999999 2.160505221213354 -2.351051746851281 0 0 0 0
66 4 0.7 2.915451895043732 3.2820834471389864 -1.8851947361440744 0 0 1 0
45 3 1 1 -4.66471934120499 -2.6616150501340514 0 1 0 0
38 2 1.3 0.4551661356395083 -4.7438884156536485 -0.7982706379616467 0 1 0 0
1 1 1.6 0.2441406249999999 -3.3930299268359994 -1.2554093199727396 0 0 0 0
20 1 1.6 0.2441406249999999 -1.8566016298415917 -1.223558906547388 0 0 0 0
59 3 1 1 -0.7333075950120644 -1.0780730213193674 0 0 0 0
7 1 1.6 0.2441406249999999 0.4365434039116707 -1.0235245767735677 0 0 0 0
23 2 1.3 0.4551661356395083 1.7247626044413469 -1.1402567521268376 0 0 0 0
47 3 1 1 2.833792232616001 -1.2648729455726717 0 -1 0 0
28 2 1.3 0.4551661356395083 4.208360414867394 -1.7407515973511174 0 -1 0 0
22 2 1.3 0.4551661356395083 -3.6702305861222673 0.00478538630960923 0 1 0 0
8 1 1.6 0.2441406249999999 -2.380322835012625 0.01831378864785549 0 0 0 0
19 1 1.6 0.2441406249999999 -0.9092459601462255 0.11035808749369025 0 0 0 0
56 3 1 1 2.4428446776348443 -0.4353827790929685 0 0 0 0
27 2 1.3 0.4551661356395083 1.4719701222439427 0.026693545378654093 0 0 0 0
3 1 1.6 0.2441406249999999 3.7011034269748935 -0.434519690813846 0 0 0 0
4 1 1.6 0.2441406249999999 4.7339957439977765 0.6286234519033265 0 -1 0 0
31 2 1.3 0.4551661356395083 -2.7703447165768273 1.3971334300440725 0 0 0 0
79 4 0.7 2.915451895043732 -3.653132393462293 0.9053609689426265 0 0 0 0
35 2 1.3 0.4551661356395083 -1.6094773185167544 1.2039345031053932 0 0 0 0
76 4 0.7 2.915451895043732 -0.7829131430133627 1.0934831010198538 0 0 0 0
15 1 1.6 0.2441406249999999 0.2896376153959368 0.883469014935053 0 0 0 0
73 4 0.7 2.915451895043732 1.8908674957219027 1.0258286420169442 0 0 -1 0
24 2 1.3 0.4551661356395083 2.6118743435022864 0.6159029740953095 0 0 0 0
54 3 1 1 3.642185566494134 0.9840906054317511 0 0 -1 0
9 1 1.6 0.2441406249999999 -4.1652997937855 1.885646799776925 0 0 0 0
30 2 1.3 0.4551661356395083 -3.031571536865677 2.636467303504742 0 1 0 0
64 4 0.7 2.915451895043732 -2.2448266155887024 2.031215574494288 0 0 0 0
42 3 1 1 -0.6441603754640113 2.0525529823563646 0 0 -1 0
43 3 1 1 -1.5903053623493109 2.2945067163286144 0 0 0 0
41 3 1 1 0.32161797182471297 2.0932586381552403 0 0 0 0
26 2 1.3 0.4551661356395083 1.3659549151654593 1.648068490379119 0 0 0 0
63 4 0.7 2.915451895043732 1.0526180600074913 2.4242132844484514 0 0 0 0
74 4 0.7 2.915451895043732 1.085487163191452 2.9415008265780536 0 0 0 0
16 1 1.6 0.2441406249999999 2.7400455361536 1.9473289823537554 0 0 0 0
21 2 1.3 0.4551661356395083 4.22195001763047 1.8528351279127753 0 0 0 0
51 3 1 1 -3.910899320769472 3.1519563679827565 0 0 0 0
61 4 0.7 2.915451895043732 -1.7629064293977463 3.087265943754085 0 0 0 0
40 2 1.3 0.4551661356395083 -2.4049218508173023 3.673486731675486 0 0 0 0
36 2 1.3 0.4551661356395083 -1.1863343674527624 3.826142968888491 0 0 0 0
18 1 1.6 0.2441406249999999 0.09099414547610696 3.230647663844114 0 0 0 0
25 2 1.3 0.4551661356395083 1.901018042559893 2.919658086439221 0 0 -1 0
12 1 1.6 0.2441406249999999 3.1371873430206323 3.4967335292681136 0 0 0 0
14 1 1.6 0.2441406249999999 4.651247953209006 3.1659113286319576 0 -1 0 0
46 3 1 1 -4.25104163169544 4.285291799400626 0 0 -1 0
57 3 1 1 -3.400020319006135 3.8704859618188854 0 0 0 0
68 4 0.7 2.915451895043732 -1.8565701940428196 4.432197416639048 0 0 -1 0
78 4 0.7 2.915451895043732 -0.3537614570879164 4.1467494574545105 0 0 -1 0
60 3 1 1 0.38948127375989294 4.395198464274308 0 0 0 0
37 2 1.3 0.4551661356395083 1.2714882083690204 3.886573290447033 0 0 0 0
53 3 1 1 2.2788525824566745 4.15960969958489 0 0 0 0
58 3 1 1 3.205757024982737 4.685678049080528 0 0 0 0
44 3 1 1 4.13742528287882 4.262023917731711 0 0 -1 0

Velocities

2 0.07195327113442719 -0.25613323461054044 0 0 0 0
29 0.010619366456721685 0.055525715069361166 0 0 0 0
77 0.23398369083812834 0.10400002907988702 0 0 0 0
17 0.02247200870095341 -0.005594739535367285 0 0 0 0
32 0.038058642921927566 0.12213068505765406 0 0 0 0
33 -0.05969572299075922 0.11620101450984804 0 0 0 0
80 0.031177950583444292 -0.05736791283523691 0 0 0 0
48 -0.10442777746499068 -0.10105843173001965 0 0 0 0
71 0.07254308729424185 -0.07104011306907088 0 0 0 0
67 -0.003301173882193596 -0.009835482583820299 0 0 0 0
55 -0.004100470892241988 -0.18591497436633092 0 0 0 0
69 -0.13536056493047802 -0.030705617056030872 0 0 0 0
6 0.04617090037656224 0.09008566882482878 0 0 0 0
70 0.16008313874472604 0.09378167306788124 0 0 0 0
65 -0.06939218940474086 0.012601472216368419 0 0 0 0
49 0.08317941075041116 0.04203385955307371 0 0 0 0
39 -0.13462445482844884 0.08547909700734492 0 0 0 0
75 -8.769387257683844e-05 -0.0320626139840464 0 0 0 0
11 0.06003331799882079 0.13309378375985262 0 0 0 0
72 0.07248255456942543 -0.0006528041593645403 0 0 0 0
50 -0.08798061163331715 0.20333247606408136 0 0 0 0
10 0.030906079215641126 0.18448783794970405 0 0 0 0
62 0.003720273379473628 0.0029576051305870983 0 0 0 0
52 -0.1626791355167319 0.10040786719122778 0 0 0 0
5 0.2093280390991566 -0.0917414544079654 0 0 0 0
34 -0.03538032610450973 0.21469099315760096 0 0 0 0
13 -0.04095359955477618 -0.12039729900169231 0 0 0 0
66 0.028416245351448828 -0.20583090674035537 0 0 0 0
45 0.026139522711216005 -0.10143698345746519 0 0 0 0
38 0.03616664323779656 -0.0479728663985519 0 0 0 0
1 -0.27288444505470877 0.13981120022200005 0 0 0 0
20 0.017691618772071593 -0.18338000505792823 0 0 0 0
59 -0.15274721254826495 0.03927498632823654 0 0 0 0
7 -0.023005666721203945 0.020082743743484587 0 0 0 0
23 -0.23621140886320602 -0.16580331008579788 0 0 0 0
47 -0.12392614652564783 -0.09365505307975323 0 0 0 0
28 0.12076679276076005 -0.05249620475078932 0 0 0 0
22 0.11939435221369148 -0.012139474371108046 0 0 0 0
8 0.15609245323563212 -0.017538816072478168 0 0 0 0
19 -0.05087078775882128 -0.166501792178164 0 0 0 0
56 -0.009294435111511876 -0.06600079628140651 0 0 0 0
27 -0.08425099584141513 -0.08801831562800148 0 0 0 0
3 0.15455449708399224 0.14699733892231717 0 0 0 0
4 -0.07027047261717001 -0.06597123930096131 0 0 0 0
31 -0.25485884223480065 0.10439993861641111 0 0 0 0
79 0.09749056297914263 0.10289212219002623 0 0 0 0
35 -0.23730537713743113 -0.010236229095751075 0 0 0 0
76 -0.026950778028805366 0.043306913636897135 0 0 0 0
15 0.11471363556400427 0.055173526515191224 0 0 0 0
73 0.03193249113398166 -0.07671039521200324 0 0 0 0
24 0.128907669956523 -0.13499645766264948 0 0 0 0
54 0.1259775561184974 0.09672572339170588 0 0 0 0
9 -0.09318135871162504 0.19259825063423935 0 0 0 0
30 0.12765608202977768 -0.10192148382956234 0 0 0 0
64 -0.09309144999251012 0.12980568922267718 0 0 0 0
42 0.018338990125411393 0.03215373438469825 0 0 0 0
43 -0.07153963791533775 0.17308867982106618 0 0 0 0
41 0.09617039445776715 -0.026200208662283613 0 0 0 0
26 0.04961948652491612 -0.2862598251417236 0 0 0 0
63 -0.023279152620319585 -0.05560394561822361 0 0 0 0
74 0.04780932622705712 -0.13044633848295203 0 0 0 0
16 -0.05981234622988223 -0.10882322174253566 0 0 0 0
21 -0.003232691245811498 -0.06841844969443543 0 0 0 0
51 -0.06687250643812646 -0.03193467915449768 0 0 0 0
61 0.029595598773297285 0.015553526593356029 0 0 0 0
40 0.11085825338721764 -0.06732771286199148 0 0 0 0
36 -0.11852541346002193 0.037198883901147985 0 0 0 0
18 -0.11027895452832692 0.029417738570936193 0 0 0 0
25 0.1703566162964276 0.07874872038185146 0 0 0 0
12 0.10302448648934903 0.18813683143422363 0 0 0 0
14 -0.17670327377429876 -0.034392328453363555 0 0 0 0
46 -0.09381424767847633 -0.007526626712169534 0 0 0 0
57 0.09189418965920795 -0.09158093159876993 0 0 0 0
68 -0.0550631525177608 -0.010356923815761875 0 0 0 0
78 -0.012477733193770338 0.15575816488678354 0 0 0 0
60 -0.050532455113003506 0.07099066067099785 0 0 0 0
37 0.051912485993837694 0.09961815044874199 0 0 0 0
53 0.13341166276659264 -0.019360934011646375 0 0 0 0
58 0.044040461258877985 -0.04413454771310514 0 0 0 0
44 0.029320855765458783 0.022938378049379517 0 0 0 0
