LAMMPS data file.

     70 atoms
    160 bonds
      0 angles
      0 dihedrals
      0 impropers
      1 atom types
    160 bond types
      0 angle types
      0 dihedral types
      0 improper types
  -4.824421   4.824421 xlo xhi
  -4.824421   4.824421 ylo yhi
  -0.100000   0.100000 zlo zhi

Masses # ['atom_id', 'mass']

1 10000.0

Atoms # ['atomID', 'moleculeID', 'atomType', 'charge', 'x', 'y', 'z']

      2      1      1   0.000000  -3.975057  -4.317764   0.000000
     29      1      1   0.000000  -2.834611  -4.809207   0.000000
     77      1      1   0.000000  -1.873192  -4.640026   0.000000
     17      1      1   0.000000  -0.855628  -4.482540   0.000000
     32      1      1   0.000000   0.431801  -4.197425   0.000000
     33      1      1   0.000000   1.595032  -4.572682   0.000000
     80      1      1   0.000000   2.189785  -4.109516   0.000000
     48      1      1   0.000000   2.966320  -3.949221   0.000000
     71      1      1   0.000000   4.027813  -3.879614   0.000000
     67      1      1   0.000000   3.599772  -4.401890   0.000000
     55      1      1   0.000000   4.435387  -4.539605   0.000000
     69      1      1   0.000000  -4.289096  -3.350582   0.000000
      6      1      1   0.000000  -2.262029  -3.647394   0.000000
     49      1      1   0.000000   0.035011  -3.161161   0.000000
     39      1      1   0.000000   1.443645  -3.475321   0.000000
     75      1      1   0.000000   2.388140  -3.427012   0.000000
     11      1      1   0.000000   3.530007  -2.964250   0.000000
     50      1      1   0.000000  -4.394626  -1.815125   0.000000
     10      1      1   0.000000  -3.367695  -2.677978   0.000000
     62      1      1   0.000000  -2.583842  -1.921304   0.000000
      5      1      1   0.000000  -0.533992  -2.175350   0.000000
     34      1      1   0.000000   0.720152  -2.420325   0.000000
     13      1      1   0.000000   2.160505  -2.351052   0.000000
     66      1      1   0.000000   3.282083  -1.885195   0.000000
     45      1      1   0.000000  -4.664719  -2.661615   0.000000
     38      1      1   0.000000  -4.743888  -0.798271   0.000000
      1      1      1   0.000000  -3.393030  -1.255409   0.000000
     20      1      1   0.000000  -1.856602  -1.223559   0.000000
     59      1      1   0.000000  -0.733308  -1.078073   0.000000
      7      1      1   0.000000   0.436543  -1.023525   0.000000
     23      1      1   0.000000   1.724763  -1.140257   0.000000
     47      1      1   0.000000   2.833792  -1.264873   0.000000
     28      1      1   0.000000   4.208360  -1.740752   0.000000
      8      1      1   0.000000  -2.380323   0.018314   0.000000
     19      1      1   0.000000  -0.909246   0.110358   0.000000
     56      1      1   0.000000   2.442845  -0.435383   0.000000
     27      1      1   0.000000   1.471970   0.026694   0.000000
      3      1      1   0.000000   3.701103  -0.434520   0.000000
      4      1      1   0.000000   4.733996   0.628623   0.000000
     31      1      1   0.000000  -2.770345   1.397133   0.000000
     35      1      1   0.000000  -1.609477   1.203935   0.000000
     76      1      1   0.000000  -0.782913   1.093483   0.000000
     15      1      1   0.000000   0.289638   0.883469   0.000000
     24      1      1   0.000000   2.611874   0.615903   0.000000
     54      1      1   0.000000   3.642186   0.984091   0.000000
      9      1      1   0.000000  -4.165300   1.885647   0.000000
     30      1      1   0.000000  -3.031572   2.636467   0.000000
     64      1      1   0.000000  -2.244827   2.031216   0.000000
     43      1      1   0.000000  -1.590305   2.294507   0.000000
     41      1      1   0.000000   0.321618   2.093259   0.000000
     26      1      1   0.000000   1.365955   1.648068   0.000000
     63      1      1   0.000000   1.052618   2.424213   0.000000
     74      1      1   0.000000   1.085487   2.941501   0.000000
     16      1      1   0.000000   2.740046   1.947329   0.000000
     21      1      1   0.000000   4.221950   1.852835   0.000000
     51      1      1   0.000000  -3.910899   3.151956   0.000000
     61      1      1   0.000000  -1.762906   3.087266   0.000000
     40      1      1   0.000000  -2.404922   3.673487   0.000000
     36      1      1   0.000000  -1.186334   3.826143   0.000000
     18      1      1   0.000000   0.090994   3.230648   0.000000
     25      1      1   0.000000   1.901018   2.919658   0.000000
     12      1      1   0.000000   3.137187   3.496734   0.000000
     14      1      1   0.000000   4.651248   3.165911   0.000000
     57      1      1   0.000000  -3.400020   3.870486   0.000000
     68      1      1   0.000000  -1.856570   4.432197   0.000000
     78      1      1   0.000000  -0.353761   4.146749   0.000000
     60      1      1   0.000000   0.389481   4.395198   0.000000
     37      1      1   0.000000   1.271488   3.886573   0.000000
     53      1      1   0.000000   2.278853   4.159610   0.000000
     44      1      1   0.000000   4.137425   4.262024   0.000000

Bond Coeffs # ['bondID', 'bondCoeff', 'd']

      1   0.882011   1.064788
      2   0.505642   1.406301
      3   0.932295   1.035675
      4   0.390873   1.599492
      5   0.987665   1.006225
      6   0.558933   1.337581
      7   0.480904   1.442018
      8   0.943183   1.029680
      9   1.042831   0.979249
     10   0.594340   1.297127
     11   0.967061   1.016888
     12   0.573700   1.320254
     13   3.722083   0.518331
     14   0.917994   1.043711
     15   0.562471   1.333368
     16   0.491692   1.426112
     17   0.779450   1.132676
     18   1.141121   0.936126
     19   1.077867   0.963202
     20   0.768418   1.140778
     21   0.842473   1.089487
     22   0.850236   1.084501
     23   0.758491   1.148219
     24   0.846669   1.086784
     25   0.846669   1.086784
     26   0.921063   1.041970
     27   1.438005   0.833911
     28   0.835350   1.094122
     29   0.691911   1.202195
     30   0.455137   1.482275
     31   0.493987   1.422795
     32   1.014922   0.992621
     33   0.567896   1.326983
     34   1.036003   0.982470
     35   0.623368   1.266565
     36   0.466869   1.463532
     37   0.627869   1.262018
     38   0.627869   1.262018
     39   1.649701   0.778570
     40   1.590583   0.792906
     41   0.774380   1.136378
     42   0.826782   1.099777
     43   0.774380   1.136378
     44   0.540812   1.359806
     45   1.266632   0.888535
     46   0.428855   1.527020
     47   0.428855   1.527020
     48   0.776451   1.134862
     49   0.971789   1.014411
     50   0.611075   1.279242
     51   0.597680   1.293497
     52   0.503478   1.409320
     53   0.657983   1.232801
     54   0.612332   1.277928
     55   0.657983   1.232801
     56   0.648452   1.241827
     57   1.519160   0.811331
     58   1.323034   0.869390
     59   1.138466   0.937216
     60   0.775895   1.135268
     61   0.537308   1.364233
     62   0.500025   1.414178
     63   0.865069   1.075164
     64   1.118063   0.945729
     65   1.474427   0.823547
     66   0.964659   1.018153
     67   0.984517   1.007833
     68   0.962514   1.019287
     69   0.596068   1.295246
     70   0.612411   1.277846
     71   0.440792   1.506201
     72   0.524827   1.380359
     73   0.524827   1.380359
     74   0.764716   1.143536
     75   0.814917   1.107754
     76   0.764716   1.143536
     77   0.693618   1.200714
     78   1.239848   0.898081
     79   1.239848   0.898081
     80   0.575121   1.318622
     81   0.804024   1.115233
     82   0.630459   1.259423
     83   0.916721   1.044435
     84   0.599427   1.291611
     85   0.484202   1.437099
     86   0.484202   1.437099
     87   0.864968   1.075226
     88   1.017817   0.991209
     89   0.909634   1.048496
     90   0.909634   1.048496
     91   0.487030   1.432920
     92   1.286534   0.881636
     93   0.509281   1.401268
     94   0.491395   1.426542
     95   0.759603   1.147378
     96   0.492251   1.425301
     97   1.623988   0.784709
     98   0.742478   1.160535
     99   3.005131   0.576857
    100   3.005131   0.576857
    101   0.722053   1.176834
    102   0.840537   1.090741
    103   0.603903   1.286816
    104   0.837191   1.092919
    105   0.669378   1.222262
    106   1.427387   0.837007
    107   1.224713   0.903614
    108   0.692846   1.201384
    109   0.894945   1.057065
    110   0.607331   1.283179
    111   0.894945   1.057065
    112   1.502477   0.815823
    113   0.510957   1.398968
    114   0.462478   1.470464
    115   0.423437   1.536758
    116   0.794322   1.122023
    117   0.794322   1.122023
    118   0.879884   1.066074
    119   0.593038   1.298550
    120   1.661945   0.775696
    121   1.189211   0.917003
    122   0.812159   1.109633
    123   0.663016   1.228112
    124   0.416350   1.549782
    125   0.910580   1.047951
    126   0.647139   1.243086
    127   0.550500   1.347788
    128   0.631626   1.258259
    129   0.982069   1.009088
    130   0.815776   1.107171
    131   1.049375   0.976191
    132   0.802906   1.116009
    133   0.701421   1.194017
    134   0.681153   1.211651
    135   1.137847   0.937472
    136   2.193028   0.675271
    137   0.729114   1.171122
    138   1.553055   0.802429
    139   0.751183   1.153791
    140   1.628302   0.783669
    141   0.460291   1.473954
    142   1.394275   0.846888
    143   2.009161   0.705493
    144   1.707172   0.765352
    145   1.759778   0.753826
    146   0.606284   1.284286
    147   0.682774   1.210212
    148   1.647463   0.779098
    149   0.771851   1.138239
    150   0.523981   1.381472
    151   0.728061   1.171969
    152   0.728061   1.171969
    153   0.631776   1.258110
    154   0.631776   1.258110
    155   0.682372   1.210569
    156   0.964274   1.018357
    157   1.256335   0.892169
    158   0.466869   1.463532
    159   0.444139   1.500516
    160   0.548304   1.350483

Bonds # ['ID', 'type', 'atom1', 'atom2']

         1         1        56        24
         2         2        26        16
         3         3        74        18
         4         4        16        12
         5         5        23        56
         6         6        24        16
         7         7        34        13
         8         8        77        17
         9         9        80        39
        10        10        10        45
        11        11         2        69
        12        12        15        26
        13        13        63        74
        14        14        37        53
        15        15        39        13
        16        16        38         1
        17        17        20        59
        18        18        40        68
        19        19        74        37
        20        20        69        10
        21        21        10        62
        22        22        12        53
        23        23         4        54
        24        24        51        14
        25        25        14        51
        26        26        71        11
        27        27        35        76
        28        28        24        54
        29        29        18        60
        30        30         3         4
        31        31        10         1
        32        32        30        64
        33        33         4        21
        34        34        63        25
        35        35        31        30
        36        36         9         4
        37        37         9        21
        38        38        21         9
        39        39        48        67
        40        40        80        48
        41        41        17        78
        42        42        75        13
        43        43        78        17
        44        44         9        30
        45        45        50        45
        46        46        14         9
        47        47         9        14
        48        48        48        11
        49        49        40        57
        50        50        39        34
        51        51         7        23
        52        52        36        18
        53        53        37        33
        54        54        13        47
        55        55        33        37
        56        56         2        29
        57        57        43        61
        58        58        61        40
        59        59        61        36
        60        60        41        26
        61        61        25        12
        62        62         8        35
        63        63        50        38
        64        64        39        75
        65        65        31        64
        66        66        60        37
        67        67        62        20
        68        68        30        51
        69        69        29         6
        70        70         5        34
        71        71         5         7
        72        72        17        36
        73        73        36        17
        74        74        33        53
        75        75        33        39
        76        76        53        33
        77        77        47         3
        78        78        55        44
        79        79        44        55
        80        80        17        32
        81        81         5        59
        82        82        12        44
        83        83        54        21
        84        84         9        51
        85        85        38         4
        86        86         4        38
        87        87        56        27
        88        88        19        76
        89        89        50        28
        90        90        28        50
        91        91         8        31
        92        92        51        57
        93        93        28         3
        94        94        19        15
        95        95        50         1
        96        96        34         7
        97        97        69        45
        98        98        41        18
        99        99        68        77
       100       100        77        68
       101       101        31        35
       102       102        35        43
       103       103        13        23
       104       104        76        15
       105       105        32        33
       106       106        26        63
       107       107        36        68
       108       108        59        19
       109       109        32        60
       110       110        27        24
       111       111        60        32
       112       112        74        25
       113       113        11        28
       114       114         6        10
       115       115         1        20
       116       116        29        57
       117       117        57        29
       118       118        77         6
       119       119        19        35
       120       120        71        55
       121       121        47        56
       122       122        32        49
       123       123        40        36
       124       124        12        14
       125       125        62         1
       126       126        32        39
       127       127        20         8
       128       128        56         3
       129       129        49        34
       130       130        11        66
       131       131        29        77
       132       132        23        47
       133       133        23        27
       134       134        30        40
       135       135        66        28
       136       136        71        67
       137       137        59         7
       138       138        41        63
       139       139        25        37
       140       140        78        60
       141       141         8        19
       142       142        67        55
       143       143        64        43
       144       144        66        47
       145       145        33        80
       146       146        16        25
       147       147        15        41
       148       148        48        75
       149       149        49         5
       150       150        21        14
       151       151        38        28
       152       152        28        38
       153       153        55         2
       154       154         2        55
       155       155        14        44
       156       156        18        78
       157       157        36        78
       158       158         4         9
       159       159        11        13
       160       160        18        37
