ITEM: TIMESTEP
0
ITEM: NUMBER OF ATOMS
80
ITEM: BOX BOUNDS pp pp pp
-1.0000000000000000e+01 1.0000000000000000e+01
-1.0000000000000000e+01 1.0000000000000000e+01
-1.0000000000000001e-01 1.0000000000000001e-01
ITEM: ATOMS id type xs ys zs
1 1 0.0366532 0.0303355 0.5
6 1 0.129947 0.0134259 0.5
29 2 0.208427 0.0329952 0.5
67 4 0.310765 0.0294403 0.5
68 4 0.259361 0.0811318 0.5
42 3 0.638311 0.0903927 0.5
44 3 0.941221 0.104042 0.5
2 1 0.950203 0.0641781 0.5
10 1 0.0921128 0.140474 0.5
48 3 0.927776 0.135309 0.5
46 3 0.0279162 0.188074 0.5
50 3 0.151495 0.168669 0.5
25 2 0.391216 0.172662 0.5
49 3 0.738274 0.16506 0.5
75 4 0.900647 0.166144 0.5
34 2 0.0814677 0.227786 0.5
69 4 0.282575 0.24573 0.5
19 1 0.900174 0.222372 0.5
5 1 0.351836 0.306068 0.5
17 1 0.441082 0.265018 0.5
78 4 0.984667 0.305702 0.5
31 2 0.1546 0.35522 0.5
33 2 0.377661 0.346779 0.5
59 3 0.426569 0.345451 0.5
80 4 0.524981 0.348917 0.5
39 2 0.684557 0.342197 0.5
35 2 0.0798707 0.386533 0.5
18 1 0.397417 0.39135 0.5
54 3 0.41485 0.389077 0.5
15 1 0.545928 0.419586 0.5
64 4 0.78416 0.379784 0.5
8 1 0.809447 0.377681 0.5
73 4 0.81379 0.369883 0.5
77 4 0.106529 0.425128 0.5
56 3 0.616674 0.444602 0.5
7 1 0.772383 0.447736 0.5
38 2 0.91887 0.445502 0.5
9 1 0.0776176 0.518411 0.5
79 4 0.073987 0.499183 0.5
20 1 0.256231 0.480315 0.5
28 2 0.260991 0.478378 0.5
14 1 0.363689 0.520279 0.5
47 3 0.336914 0.505314 0.5
32 2 0.417177 0.490596 0.5
24 2 0.428543 0.516351 0.5
23 2 0.935056 0.477872 0.5
36 2 0.111713 0.563289 0.5
4 1 0.232079 0.559843 0.5
21 2 0.730504 0.576149 0.5
71 4 0.739547 0.558824 0.5
51 3 0.148962 0.606275 0.5
26 2 0.456751 0.620833 0.5
22 2 0.846231 0.602076 0.5
13 1 0.985815 0.586072 0.5
30 2 0.986173 0.612995 0.5
70 4 0.23286 0.677002 0.5
45 3 0.504232 0.633702 0.5
63 4 0.694097 0.679921 0.5
53 3 0.796197 0.675244 0.5
37 2 0.437956 0.723877 0.5
72 4 0.324375 0.778138 0.5
74 4 0.556777 0.748037 0.5
40 2 0.0887009 0.796737 0.5
43 3 0.245662 0.835265 0.5
57 3 0.32426 0.841801 0.5
76 4 0.413865 0.822868 0.5
27 2 0.657453 0.811098 0.5
3 1 0.880216 0.794078 0.5
12 1 0.880337 0.827705 0.5
41 3 0.873255 0.796103 0.5
58 3 0.989815 0.823444 0.5
61 4 0.716897 0.880138 0.5
62 4 0.0268308 0.946013 0.5
52 3 0.545899 0.917031 0.5
66 4 0.578325 0.915545 0.5
60 3 0.818286 0.927374 0.5
11 1 0.846132 0.936985 0.5
65 4 0.427915 0.967328 0.5
16 1 0.480751 0.976165 0.5
55 3 0.737309 0.956423 0.5
ITEM: TIMESTEP
10
ITEM: NUMBER OF ATOMS
80
ITEM: BOX BOUNDS pp pp pp
-9.2502082559851377e+00 9.2502082559851377e+00
-9.2502082559851377e+00 9.2502082559851377e+00
-1.0000000000000001e-01 1.0000000000000001e-01
ITEM: ATOMS id type xs ys zs
1 1 0.0366532 0.0303355 0.5
6 1 0.129947 0.0134259 0.5
29 2 0.208427 0.0329952 0.5
67 4 0.310765 0.0294403 0.5
68 4 0.259361 0.0811318 0.5
42 3 0.638311 0.0903927 0.5
44 3 0.941225 0.104075 0.5
2 1 0.950223 0.0640894 0.5
10 1 0.0921112 0.140473 0.5
48 3 0.927757 0.135359 0.5
46 3 0.0279162 0.188074 0.5
50 3 0.151496 0.16867 0.5
25 2 0.391216 0.172662 0.5
49 3 0.738274 0.16506 0.5
75 4 0.900642 0.166142 0.5
34 2 0.0814677 0.227786 0.5
69 4 0.282575 0.24573 0.5
19 1 0.900174 0.222379 0.5
5 1 0.351787 0.30599 0.5
17 1 0.441082 0.265018 0.5
78 4 0.984667 0.305702 0.5
31 2 0.1546 0.35522 0.5
33 2 0.377635 0.34677 0.5
59 3 0.426631 0.345395 0.5
80 4 0.524981 0.348917 0.5
39 2 0.684557 0.342197 0.5
35 2 0.0798628 0.386522 0.5
18 1 0.397257 0.39149 0.5
54 3 0.415024 0.389079 0.5
15 1 0.545928 0.419586 0.5
64 4 0.784027 0.379799 0.5
8 1 0.809483 0.377822 0.5
73 4 0.813892 0.369722 0.5
77 4 0.106536 0.425139 0.5
56 3 0.616674 0.444602 0.5
7 1 0.77238 0.447742 0.5
38 2 0.918822 0.445405 0.5
9 1 0.0776059 0.518499 0.5
79 4 0.0739609 0.499045 0.5
20 1 0.256002 0.480408 0.5
28 2 0.261221 0.478285 0.5
14 1 0.36373 0.520365 0.5
47 3 0.336802 0.505252 0.5
32 2 0.417161 0.490449 0.5
24 2 0.428629 0.516474 0.5
23 2 0.935104 0.477969 0.5
36 2 0.111747 0.563335 0.5
4 1 0.232079 0.559843 0.5
21 2 0.730451 0.576249 0.5
71 4 0.739599 0.558724 0.5
51 3 0.148966 0.606279 0.5
26 2 0.456719 0.620824 0.5
22 2 0.846231 0.602076 0.5
13 1 0.985812 0.585903 0.5
30 2 0.986175 0.613164 0.5
70 4 0.23286 0.677002 0.5
45 3 0.504264 0.633711 0.5
63 4 0.694097 0.679921 0.5
53 3 0.796197 0.675244 0.5
37 2 0.437956 0.723877 0.5
72 4 0.324375 0.778138 0.5
74 4 0.556777 0.748037 0.5
40 2 0.0887009 0.796737 0.5
43 3 0.245662 0.835265 0.5
57 3 0.32426 0.841801 0.5
76 4 0.413865 0.822868 0.5
27 2 0.657453 0.811098 0.5
3 1 0.88042 0.793846 0.5
12 1 0.880364 0.827996 0.5
41 3 0.873024 0.796044 0.5
58 3 0.989815 0.823444 0.5
61 4 0.716897 0.880138 0.5
62 4 0.0268308 0.946013 0.5
52 3 0.54586 0.917033 0.5
66 4 0.578364 0.915543 0.5
60 3 0.818161 0.927331 0.5
11 1 0.846257 0.937028 0.5
65 4 0.427898 0.967325 0.5
16 1 0.480768 0.976168 0.5
55 3 0.737309 0.956423 0.5
ITEM: TIMESTEP
20
ITEM: NUMBER OF ATOMS
80
ITEM: BOX BOUNDS pp pp pp
-8.3218360332523265e+00 8.3218360332523265e+00
-8.3218360332523265e+00 8.3218360332523265e+00
-1.0000000000000001e-01 1.0000000000000001e-01
ITEM: ATOMS id type xs ys zs
1 1 0.0366537 0.0303352 0.5
6 1 0.129943 0.0134249 0.5
29 2 0.208431 0.0329963 0.5
67 4 0.310765 0.0294403 0.5
68 4 0.259361 0.0811318 0.5
42 3 0.638311 0.0903927 0.5
44 3 0.941241 0.104194 0.5
2 1 0.950297 0.0637585 0.5
10 1 0.0920776 0.140457 0.5
48 3 0.927697 0.135535 0.5
46 3 0.0279159 0.188074 0.5
50 3 0.15153 0.168686 0.5
25 2 0.391216 0.172662 0.5
49 3 0.738274 0.16506 0.5
75 4 0.900611 0.166123 0.5
34 2 0.081468 0.227787 0.5
69 4 0.282575 0.24573 0.5
19 1 0.900173 0.222434 0.5
5 1 0.351601 0.305698 0.5
17 1 0.441082 0.265018 0.5
78 4 0.984667 0.305702 0.5
31 2 0.1546 0.35522 0.5
33 2 0.377506 0.346716 0.5
59 3 0.42689 0.345156 0.5
80 4 0.524981 0.348917 0.5
39 2 0.684557 0.342197 0.5
35 2 0.079822 0.386463 0.5
18 1 0.396686 0.392029 0.5
54 3 0.41565 0.389125 0.5
15 1 0.545928 0.419586 0.5
64 4 0.783533 0.379854 0.5
8 1 0.80964 0.378284 0.5
73 4 0.814258 0.369147 0.5
77 4 0.106577 0.425199 0.5
56 3 0.616675 0.444602 0.5
7 1 0.77235 0.447799 0.5
38 2 0.918645 0.445052 0.5
9 1 0.0775485 0.518795 0.5
79 4 0.0738685 0.498553 0.5
20 1 0.255205 0.480707 0.5
28 2 0.262026 0.477957 0.5
14 1 0.363829 0.520691 0.5
47 3 0.336398 0.505025 0.5
32 2 0.417126 0.489906 0.5
24 2 0.428969 0.516916 0.5
23 2 0.93528 0.478322 0.5
36 2 0.111866 0.563496 0.5
4 1 0.232071 0.559873 0.5
21 2 0.730264 0.576608 0.5
71 4 0.739786 0.558365 0.5
51 3 0.148997 0.606315 0.5
26 2 0.456584 0.620787 0.5
22 2 0.846231 0.602076 0.5
13 1 0.985804 0.585299 0.5
30 2 0.986183 0.613768 0.5
70 4 0.23286 0.677002 0.5
45 3 0.5044 0.633747 0.5
63 4 0.694097 0.679921 0.5
53 3 0.796197 0.675244 0.5
37 2 0.437956 0.723877 0.5
72 4 0.324375 0.778138 0.5
74 4 0.556777 0.748037 0.5
40 2 0.0887009 0.796737 0.5
43 3 0.245662 0.835265 0.5
57 3 0.32426 0.841801 0.5
76 4 0.413865 0.822868 0.5
27 2 0.657453 0.811098 0.5
3 1 0.881136 0.793017 0.5
12 1 0.880462 0.829042 0.5
41 3 0.87221 0.795827 0.5
58 3 0.989815 0.823444 0.5
61 4 0.716897 0.880138 0.5
62 4 0.0268308 0.946013 0.5
52 3 0.545709 0.91704 0.5
66 4 0.578515 0.915536 0.5
60 3 0.81771 0.927175 0.5
11 1 0.846708 0.937184 0.5
65 4 0.427812 0.967311 0.5
16 1 0.480854 0.976183 0.5
55 3 0.737309 0.956423 0.5
ITEM: TIMESTEP
30
ITEM: NUMBER OF ATOMS
80
ITEM: BOX BOUNDS pp pp pp
-7.6261086828901998e+00 7.6261086828901998e+00
-7.6261086828901998e+00 7.6261086828901998e+00
-1.0000000000000001e-01 1.0000000000000001e-01
ITEM: ATOMS id type xs ys zs
1 1 0.0366649 0.0303277 0.5
6 1 0.129909 0.0134096 0.5
29 2 0.208481 0.0330086 0.5
67 4 0.310765 0.0294403 0.5
68 4 0.259361 0.0811318 0.5
42 3 0.638311 0.0903927 0.5
44 3 0.941278 0.104429 0.5
2 1 0.950427 0.0630795 0.5
10 1 0.0919582 0.14039 0.5
48 3 0.927592 0.13589 0.5
46 3 0.0278969 0.188064 0.5
50 3 0.151653 0.168744 0.5
25 2 0.391216 0.172662 0.5
49 3 0.738274 0.16506 0.5
75 4 0.900524 0.166061 0.5
34 2 0.0814833 0.227805 0.5
69 4 0.282575 0.24573 0.5
19 1 0.900172 0.222596 0.5
5 1 0.351216 0.305096 0.5
17 1 0.441086 0.265014 0.5
78 4 0.984667 0.305702 0.5
31 2 0.154601 0.35522 0.5
33 2 0.377186 0.346572 0.5
59 3 0.427468 0.344618 0.5
80 4 0.524981 0.348917 0.5
39 2 0.684557 0.342197 0.5
35 2 0.0797159 0.386312 0.5
18 1 0.395581 0.393154 0.5
54 3 0.416878 0.389286 0.5
15 1 0.545904 0.419578 0.5
64 4 0.78255 0.379954 0.5
8 1 0.810014 0.379105 0.5
73 4 0.814966 0.368034 0.5
77 4 0.106682 0.42535 0.5
56 3 0.616698 0.44461 0.5
7 1 0.772251 0.44799 0.5
38 2 0.918294 0.444351 0.5
9 1 0.0774037 0.519328 0.5
79 4 0.0736918 0.497599 0.5
20 1 0.253716 0.481193 0.5
28 2 0.263557 0.477331 0.5
14 1 0.363922 0.521365 0.5
47 3 0.335608 0.504579 0.5
32 2 0.417103 0.488821 0.5
24 2 0.429689 0.517775 0.5
23 2 0.935631 0.479023 0.5
36 2 0.112089 0.563803 0.5
4 1 0.232029 0.560013 0.5
21 2 0.729901 0.577304 0.5
71 4 0.74015 0.557669 0.5
51 3 0.149095 0.606428 0.5
26 2 0.456279 0.620705 0.5
22 2 0.846231 0.602076 0.5
13 1 0.985789 0.584129 0.5
30 2 0.986199 0.614938 0.5
70 4 0.23286 0.677002 0.5
45 3 0.504705 0.63383 0.5
63 4 0.694097 0.679921 0.5
53 3 0.796197 0.675244 0.5
37 2 0.437956 0.723877 0.5
72 4 0.324375 0.778138 0.5
74 4 0.556777 0.748037 0.5
40 2 0.0887009 0.796737 0.5
43 3 0.245662 0.835265 0.5
57 3 0.32426 0.841801 0.5
76 4 0.413865 0.822868 0.5
27 2 0.657453 0.811098 0.5
3 1 0.882503 0.79141 0.5
12 1 0.880651 0.831075 0.5
41 3 0.870654 0.795401 0.5
58 3 0.989815 0.823444 0.5
61 4 0.716897 0.880138 0.5
62 4 0.0268308 0.946013 0.5
52 3 0.54539 0.917055 0.5
66 4 0.578834 0.915521 0.5
60 3 0.816829 0.926871 0.5
11 1 0.847589 0.937488 0.5
65 4 0.427595 0.967275 0.5
16 1 0.48107 0.976219 0.5
55 3 0.737309 0.956423 0.5
ITEM: TIMESTEP
40
ITEM: NUMBER OF ATOMS
80
ITEM: BOX BOUNDS pp pp pp
-7.1363109454604334e+00 7.1363109454604334e+00
-7.1363109454604334e+00 7.1363109454604334e+00
-1.0000000000000001e-01 1.0000000000000001e-01
ITEM: ATOMS id type xs ys zs
1 1 0.0366919 0.0302994 0.5
6 1 0.129842 0.013354 0.5
29 2 0.208638 0.0330479 0.5
67 4 0.310765 0.0294403 0.5
68 4 0.259361 0.0811318 0.5
42 3 0.638311 0.0903927 0.5
44 3 0.941345 0.1048 0.5
2 1 0.95058 0.0619495 0.5
10 1 0.0917289 0.140178 0.5
48 3 0.927433 0.136494 0.5
46 3 0.0277936 0.188039 0.5
50 3 0.151923 0.168873 0.5
25 2 0.391216 0.172662 0.5
49 3 0.738274 0.16506 0.5
75 4 0.900349 0.165934 0.5
34 2 0.0815456 0.227914 0.5
69 4 0.282575 0.24573 0.5
19 1 0.90017 0.222923 0.5
5 1 0.350521 0.304083 0.5
17 1 0.441139 0.264959 0.5
78 4 0.984667 0.305702 0.5
31 2 0.15463 0.355207 0.5
33 2 0.376604 0.346301 0.5
59 3 0.428467 0.343709 0.5
80 4 0.524976 0.348903 0.5
39 2 0.684557 0.342197 0.5
35 2 0.0794891 0.386038 0.5
18 1 0.393859 0.395062 0.5
54 3 0.418824 0.389622 0.5
15 1 0.545812 0.419557 0.5
64 4 0.780978 0.380064 0.5
8 1 0.810706 0.380311 0.5
73 4 0.816061 0.366279 0.5
77 4 0.106879 0.425636 0.5
56 3 0.616795 0.444644 0.5
7 1 0.772035 0.448429 0.5
38 2 0.917732 0.443226 0.5
9 1 0.0771257 0.520115 0.5
79 4 0.0734194 0.496097 0.5
20 1 0.251434 0.481823 0.5
28 2 0.265938 0.476326 0.5
14 1 0.363945 0.522485 0.5
47 3 0.334365 0.503864 0.5
32 2 0.417124 0.487068 0.5
24 2 0.430902 0.51913 0.5
23 2 0.936194 0.480148 0.5
36 2 0.112434 0.564281 0.5
4 1 0.231919 0.560384 0.5
21 2 0.729328 0.578401 0.5
71 4 0.740722 0.556572 0.5
51 3 0.149301 0.606665 0.5
26 2 0.455744 0.62056 0.5
22 2 0.846231 0.602076 0.5
13 1 0.985764 0.58229 0.5
30 2 0.986224 0.616778 0.5
70 4 0.23286 0.677002 0.5
45 3 0.50524 0.633975 0.5
63 4 0.694097 0.679921 0.5
53 3 0.796197 0.675244 0.5
37 2 0.437956 0.723877 0.5
72 4 0.324375 0.778138 0.5
74 4 0.556777 0.748037 0.5
40 2 0.0887009 0.796737 0.5
43 3 0.245662 0.835265 0.5
57 3 0.32426 0.841801 0.5
76 4 0.413865 0.822868 0.5
27 2 0.657453 0.811098 0.5
3 1 0.884631 0.788882 0.5
12 1 0.880945 0.83427 0.5
41 3 0.868233 0.794733 0.5
58 3 0.989815 0.823444 0.5
61 4 0.716897 0.880138 0.5
62 4 0.0268308 0.946013 0.5
52 3 0.544856 0.917077 0.5
66 4 0.57937 0.915497 0.5
60 3 0.815433 0.926389 0.5
11 1 0.848984 0.93797 0.5
65 4 0.427189 0.967207 0.5
16 1 0.481475 0.976289 0.5
55 3 0.737309 0.956423 0.5
ITEM: TIMESTEP
50
ITEM: NUMBER OF ATOMS
80
ITEM: BOX BOUNDS pp pp pp
-6.8063020482482841e+00 6.8063020482482841e+00
-6.8063020482482841e+00 6.8063020482482841e+00
-1.0000000000000001e-01 1.0000000000000001e-01
ITEM: ATOMS id type xs ys zs
1 1 0.0367365 0.0302399 0.5
6 1 0.129749 0.013234 0.5
29 2 0.208952 0.0331236 0.5
67 4 0.310765 0.0294403 0.5
68 4 0.259365 0.0811354 0.5
42 3 0.638311 0.0903927 0.5
44 3 0.941451 0.105314 0.5
2 1 0.950713 0.0603131 0.5
10 1 0.091389 0.139725 0.5
48 3 0.927222 0.137382 0.5
46 3 0.0275357 0.187999 0.5
50 3 0.152384 0.169092 0.5
25 2 0.391216 0.172662 0.5
49 3 0.738274 0.16506 0.5
75 4 0.900057 0.165725 0.5
34 2 0.0816828 0.228188 0.5
69 4 0.282575 0.24573 0.5
19 1 0.900164 0.223466 0.5
5 1 0.349402 0.302585 0.5
17 1 0.441299 0.26478 0.5
78 4 0.984667 0.305702 0.5
31 2 0.154728 0.355167 0.5
33 2 0.375722 0.345885 0.5
59 3 0.429952 0.342437 0.5
80 4 0.524958 0.34884 0.5
39 2 0.684557 0.342197 0.5
35 2 0.0790807 0.385629 0.5
18 1 0.391496 0.397837 0.5
54 3 0.421531 0.390164 0.5
15 1 0.545616 0.419544 0.5
64 4 0.778787 0.380132 0.5
8 1 0.811799 0.381894 0.5
73 4 0.817532 0.363843 0.5
77 4 0.10719 0.426085 0.5
56 3 0.617009 0.44472 0.5
7 1 0.771663 0.449214 0.5
38 2 0.916942 0.441645 0.5
9 1 0.0766867 0.521134 0.5
79 4 0.0730526 0.494014 0.5
20 1 0.248316 0.482523 0.5
28 2 0.269167 0.47489 0.5
14 1 0.363838 0.524118 0.5
47 3 0.332711 0.502875 0.5
32 2 0.417224 0.484631 0.5
24 2 0.432667 0.521005 0.5
23 2 0.936984 0.481729 0.5
36 2 0.112907 0.564937 0.5
4 1 0.231713 0.561087 0.5
21 2 0.728536 0.57992 0.5
71 4 0.741515 0.555053 0.5
51 3 0.149647 0.607064 0.5
26 2 0.454942 0.620342 0.5
22 2 0.846231 0.602076 0.5
13 1 0.985717 0.579755 0.5
30 2 0.986257 0.619321 0.5
70 4 0.23286 0.677002 0.5
45 3 0.506042 0.634192 0.5
63 4 0.694097 0.679921 0.5
53 3 0.796197 0.675244 0.5
37 2 0.437956 0.723877 0.5
72 4 0.324375 0.778138 0.5
74 4 0.556777 0.748037 0.5
40 2 0.0887009 0.796737 0.5
43 3 0.245662 0.835265 0.5
57 3 0.32426 0.841801 0.5
76 4 0.413865 0.822868 0.5
27 2 0.657453 0.811098 0.5
3 1 0.887551 0.785396 0.5
12 1 0.881352 0.838638 0.5
41 3 0.864913 0.793824 0.5
58 3 0.989815 0.823444 0.5
61 4 0.716897 0.880138 0.5
62 4 0.0268308 0.946013 0.5
52 3 0.544101 0.91709 0.5
66 4 0.580149 0.915461 0.5
60 3 0.813491 0.925719 0.5
11 1 0.850918 0.938668 0.5
65 4 0.426553 0.967101 0.5
16 1 0.482086 0.976418 0.5
55 3 0.737309 0.956423 0.5
ITEM: TIMESTEP
60
ITEM: NUMBER OF ATOMS
80
ITEM: BOX BOUNDS pp pp pp
-6.5819900091743477e+00 6.5819900091743477e+00
-6.5819900091743477e+00 6.5819900091743477e+00
-1.0000000000000001e-01 1.0000000000000001e-01
ITEM: ATOMS id type xs ys zs
1 1 0.0368017 0.0301457 0.5
6 1 0.129636 0.0130316 0.5
29 2 0.209444 0.0332302 0.5
67 4 0.310765 0.0294403 0.5
68 4 0.259388 0.0811577 0.5
42 3 0.638311 0.0903927 0.5
44 3 0.941606 0.105967 0.5
2 1 0.950782 0.0581545 0.5
10 1 0.0909432 0.138958 0.5
48 3 0.926976 0.138542 0.5
46 3 0.0270721 0.187951 0.5
50 3 0.153061 0.169415 0.5
25 2 0.39121 0.17265 0.5
49 3 0.738274 0.16506 0.5
75 4 0.899627 0.165428 0.5
34 2 0.081915 0.22868 0.5
69 4 0.282575 0.245729 0.5
19 1 0.900148 0.224279 0.5
5 1 0.347791 0.300567 0.5
17 1 0.441624 0.264417 0.5
78 4 0.984667 0.305702 0.5
31 2 0.154925 0.355087 0.5
33 2 0.374536 0.345341 0.5
59 3 0.431936 0.340842 0.5
80 4 0.524917 0.348699 0.5
39 2 0.684557 0.342197 0.5
35 2 0.0784486 0.38508 0.5
18 1 0.388488 0.401454 0.5
54 3 0.424986 0.390915 0.5
15 1 0.545292 0.419556 0.5
64 4 0.775996 0.380106 0.5
8 1 0.81335 0.383837 0.5
73 4 0.819329 0.360732 0.5
77 4 0.107625 0.426714 0.5
56 3 0.617374 0.444849 0.5
7 1 0.771106 0.450409 0.5
38 2 0.915924 0.439609 0.5
9 1 0.0760946 0.522335 0.5
79 4 0.0726009 0.491353 0.5
20 1 0.244367 0.483215 0.5
28 2 0.273165 0.473001 0.5
14 1 0.363573 0.526305 0.5
47 3 0.330735 0.501629 0.5
32 2 0.41744 0.48156 0.5
24 2 0.435004 0.523394 0.5
23 2 0.938 0.483762 0.5
36 2 0.113512 0.565768 0.5
4 1 0.231411 0.562184 0.5
21 2 0.727527 0.581853 0.5
71 4 0.742524 0.553121 0.5
51 3 0.150145 0.607654 0.5
26 2 0.453856 0.620048 0.5
22 2 0.846231 0.602076 0.5
13 1 0.985605 0.576568 0.5
30 2 0.986301 0.622556 0.5
70 4 0.23286 0.677002 0.5
45 3 0.507127 0.634487 0.5
63 4 0.694097 0.679921 0.5
53 3 0.796197 0.675244 0.5
37 2 0.437956 0.723877 0.5
72 4 0.324375 0.778138 0.5
74 4 0.556777 0.748037 0.5
40 2 0.0887009 0.796737 0.5
43 3 0.245662 0.835265 0.5
57 3 0.32426 0.841801 0.5
76 4 0.413865 0.822868 0.5
27 2 0.657453 0.811098 0.5
3 1 0.891246 0.780988 0.5
12 1 0.881886 0.844056 0.5
41 3 0.860721 0.792697 0.5
58 3 0.989815 0.823444 0.5
61 4 0.716897 0.880138 0.5
62 4 0.0268305 0.94601 0.5
52 3 0.543144 0.917066 0.5
66 4 0.581182 0.915414 0.5
60 3 0.81101 0.924862 0.5
11 1 0.853363 0.939642 0.5
65 4 0.425667 0.966952 0.5
16 1 0.482897 0.976638 0.5
55 3 0.737309 0.956423 0.5
ITEM: TIMESTEP
70
ITEM: NUMBER OF ATOMS
80
ITEM: BOX BOUNDS pp pp pp
-6.4460588466519519e+00 6.4460588466519519e+00
-6.4460588466519519e+00 6.4460588466519519e+00
-1.0000000000000001e-01 1.0000000000000001e-01
ITEM: ATOMS id type xs ys zs
1 1 0.0368909 0.0300271 0.5
6 1 0.129516 0.0127355 0.5
29 2 0.210118 0.0333581 0.5
67 4 0.310765 0.0294403 0.5
68 4 0.259447 0.0812138 0.5
42 3 0.638311 0.0903927 0.5
44 3 0.941819 0.106745 0.5
2 1 0.950744 0.0554967 0.5
10 1 0.0904035 0.137845 0.5
48 3 0.926722 0.139936 0.5
46 3 0.0263743 0.187898 0.5
50 3 0.153962 0.169848 0.5
25 2 0.391186 0.172606 0.5
49 3 0.738274 0.16506 0.5
75 4 0.899039 0.165044 0.5
34 2 0.0822532 0.229417 0.5
69 4 0.282562 0.245719 0.5
19 1 0.900114 0.225397 0.5
5 1 0.345689 0.29805 0.5
17 1 0.442163 0.263836 0.5
78 4 0.984667 0.305702 0.5
31 2 0.155242 0.35496 0.5
33 2 0.373074 0.344712 0.5
59 3 0.434378 0.338994 0.5
80 4 0.524847 0.348459 0.5
39 2 0.684557 0.342197 0.5
35 2 0.0775718 0.384399 0.5
18 1 0.384864 0.405804 0.5
54 3 0.429121 0.391857 0.5
15 1 0.544829 0.419609 0.5
64 4 0.772672 0.379942 0.5
8 1 0.815384 0.386101 0.5
73 4 0.821375 0.356999 0.5
77 4 0.108185 0.427522 0.5
56 3 0.617907 0.445037 0.5
7 1 0.77035 0.452041 0.5
38 2 0.914693 0.437149 0.5
9 1 0.0753677 0.523657 0.5
79 4 0.0720793 0.48815 0.5
20 1 0.239645 0.483831 0.5
28 2 0.277774 0.470653 0.5
14 1 0.363159 0.529068 0.5
47 3 0.32854 0.500156 0.5
32 2 0.417799 0.477956 0.5
24 2 0.437886 0.526243 0.5
23 2 0.93921 0.486183 0.5
36 2 0.114247 0.566759 0.5
4 1 0.231045 0.563684 0.5
21 2 0.72632 0.584165 0.5
71 4 0.743731 0.550808 0.5
51 3 0.150783 0.608464 0.5
26 2 0.452493 0.619686 0.5
22 2 0.846231 0.602076 0.5
13 1 0.985403 0.572846 0.5
30 2 0.986353 0.626422 0.5
70 4 0.23286 0.677002 0.5
45 3 0.508492 0.634856 0.5
63 4 0.694097 0.679921 0.5
53 3 0.796196 0.675244 0.5
37 2 0.437956 0.723877 0.5
72 4 0.324375 0.778132 0.5
74 4 0.556777 0.748037 0.5
40 2 0.0887009 0.796737 0.5
43 3 0.245662 0.835265 0.5
57 3 0.32426 0.841807 0.5
76 4 0.413865 0.822868 0.5
27 2 0.657453 0.811098 0.5
3 1 0.895641 0.775765 0.5
12 1 0.882549 0.850314 0.5
41 3 0.855745 0.791392 0.5
58 3 0.989815 0.823444 0.5
61 4 0.716897 0.880138 0.5
62 4 0.0268281 0.94599 0.5
52 3 0.542017 0.916978 0.5
66 4 0.582458 0.915356 0.5
60 3 0.808033 0.923833 0.5
11 1 0.856259 0.940942 0.5
65 4 0.424528 0.966761 0.5
16 1 0.483887 0.976974 0.5
55 3 0.737309 0.956423 0.5
ITEM: TIMESTEP
80
ITEM: NUMBER OF ATOMS
80
ITEM: BOX BOUNDS pp pp pp
-6.3890066996132839e+00 6.3890066996132839e+00
-6.3890066996132839e+00 6.3890066996132839e+00
-1.0000000000000001e-01 1.0000000000000001e-01
ITEM: ATOMS id type xs ys zs
1 1 0.0369995 0.029884 0.5
6 1 0.129399 0.0123423 0.5
29 2 0.210966 0.0334977 0.5
67 4 0.310765 0.0294403 0.5
68 4 0.259551 0.0813141 0.5
42 3 0.638311 0.0903927 0.5
44 3 0.942098 0.10762 0.5
2 1 0.95056 0.0524056 0.5
10 1 0.0897943 0.136404 0.5
48 3 0.926487 0.141511 0.5
46 3 0.0254403 0.187846 0.5
50 3 0.155074 0.170386 0.5
25 2 0.391134 0.172512 0.5
49 3 0.738274 0.16506 0.5
75 4 0.898283 0.16458 0.5
34 2 0.0826978 0.230399 0.5
69 4 0.282511 0.245676 0.5
19 1 0.900059 0.226823 0.5
5 1 0.343175 0.29512 0.5
17 1 0.442931 0.26303 0.5
78 4 0.984667 0.305702 0.5
31 2 0.155682 0.354786 0.5
33 2 0.371404 0.34405 0.5
59 3 0.437174 0.336989 0.5
80 4 0.524746 0.348109 0.5
39 2 0.684557 0.342197 0.5
35 2 0.0764548 0.383602 0.5
18 1 0.380689 0.41069 0.5
54 3 0.433811 0.392937 0.5
15 1 0.544227 0.419711 0.5
64 4 0.768927 0.379614 0.5
8 1 0.817875 0.388626 0.5
73 4 0.823575 0.352744 0.5
77 4 0.108862 0.428494 0.5
56 3 0.61861 0.445284 0.5
7 1 0.769393 0.454094 0.5
38 2 0.913293 0.434333 0.5
9 1 0.0745313 0.525038 0.5
79 4 0.0715076 0.48448 0.5
20 1 0.234269 0.484315 0.5
28 2 0.282789 0.467879 0.5
14 1 0.362629 0.532386 0.5
47 3 0.326234 0.498512 0.5
32 2 0.418324 0.47398 0.5
24 2 0.44124 0.529437 0.5
23 2 0.940553 0.488877 0.5
36 2 0.115103 0.567884 0.5
4 1 0.230664 0.565551 0.5
21 2 0.724948 0.586793 0.5
71 4 0.745102 0.54818 0.5
51 3 0.151542 0.609505 0.5
26 2 0.450887 0.619299 0.5
22 2 0.846233 0.602073 0.5
13 1 0.985103 0.56876 0.5
30 2 0.986415 0.630814 0.5
70 4 0.23286 0.677002 0.5
45 3 0.510106 0.635294 0.5
63 4 0.694097 0.679921 0.5
53 3 0.796194 0.675248 0.5
37 2 0.437956 0.723877 0.5
72 4 0.324375 0.77811 0.5
74 4 0.556777 0.748037 0.5
40 2 0.0887009 0.796737 0.5
43 3 0.245662 0.835265 0.5
57 3 0.32426 0.841829 0.5
76 4 0.413865 0.822868 0.5
27 2 0.657453 0.811098 0.5
3 1 0.900601 0.769906 0.5
12 1 0.883334 0.857121 0.5
41 3 0.85014 0.789966 0.5
58 3 0.989815 0.823444 0.5
61 4 0.716897 0.880138 0.5
62 4 0.0268219 0.945938 0.5
52 3 0.540763 0.91681 0.5
66 4 0.583949 0.915289 0.5
60 3 0.804643 0.922656 0.5
11 1 0.85951 0.942595 0.5
65 4 0.423157 0.96653 0.5
16 1 0.485021 0.97744 0.5
55 3 0.737307 0.956424 0.5
ITEM: TIMESTEP
90
ITEM: NUMBER OF ATOMS
80
ITEM: BOX BOUNDS pp pp pp
-6.3985962128615679e+00 6.3985962128615679e+00
-6.3985962128615679e+00 6.3985962128615679e+00
-1.0000000000000001e-01 1.0000000000000001e-01
ITEM: ATOMS id type xs ys zs
1 1 0.0371224 0.0297159 0.5
6 1 0.129297 0.0118561 0.5
29 2 0.211964 0.0336401 0.5
67 4 0.310765 0.0294403 0.5
68 4 0.259705 0.0814634 0.5
42 3 0.638311 0.0903927 0.5
44 3 0.942449 0.108556 0.5
2 1 0.950201 0.0489815 0.5
10 1 0.0891421 0.134688 0.5
48 3 0.926301 0.143203 0.5
46 3 0.0242939 0.1878 0.5
50 3 0.156365 0.171017 0.5
25 2 0.39105 0.172363 0.5
49 3 0.738274 0.16506 0.5
75 4 0.897357 0.164055 0.5
34 2 0.083238 0.231595 0.5
69 4 0.282397 0.245583 0.5
19 1 0.899984 0.22853 0.5
5 1 0.340366 0.2919 0.5
17 1 0.443907 0.262015 0.5
78 4 0.984667 0.305702 0.5
31 2 0.156238 0.354569 0.5
33 2 0.36963 0.343407 0.5
59 3 0.440186 0.334942 0.5
80 4 0.524616 0.347653 0.5
39 2 0.684557 0.342197 0.5
35 2 0.0751262 0.382712 0.5
18 1 0.37608 0.415837 0.5
54 3 0.43889 0.394072 0.5
15 1 0.5435 0.419868 0.5
64 4 0.764885 0.379128 0.5
8 1 0.820728 0.391319 0.5
73 4 0.825848 0.348096 0.5
77 4 0.109635 0.4296 0.5
56 3 0.619467 0.445584 0.5
7 1 0.768252 0.456508 0.5
38 2 0.911805 0.43127 0.5
9 1 0.0736151 0.526418 0.5
79 4 0.0709064 0.480447 0.5
20 1 0.228405 0.48463 0.5
28 2 0.287977 0.464744 0.5
14 1 0.362018 0.536201 0.5
47 3 0.323911 0.496771 0.5
32 2 0.419029 0.469832 0.5
24 2 0.444957 0.532832 0.5
23 2 0.941957 0.491707 0.5
36 2 0.116065 0.569109 0.5
4 1 0.230325 0.567713 0.5
21 2 0.723456 0.589651 0.5
71 4 0.746594 0.545322 0.5
51 3 0.152395 0.610769 0.5
26 2 0.449087 0.618936 0.5
22 2 0.84624 0.602062 0.5
13 1 0.98471 0.564502 0.5
30 2 0.986484 0.63559 0.5
70 4 0.23286 0.677002 0.5
45 3 0.511922 0.635786 0.5
63 4 0.694097 0.679921 0.5
53 3 0.796187 0.675258 0.5
37 2 0.437956 0.723877 0.5
72 4 0.324376 0.778069 0.5
74 4 0.556777 0.748037 0.5
40 2 0.0887009 0.796737 0.5
43 3 0.245662 0.835265 0.5
57 3 0.32426 0.84187 0.5
76 4 0.413865 0.822868 0.5
27 2 0.657453 0.811098 0.5
3 1 0.905946 0.763642 0.5
12 1 0.884226 0.864145 0.5
41 3 0.844112 0.788485 0.5
58 3 0.989815 0.823444 0.5
61 4 0.716897 0.880138 0.5
62 4 0.0268112 0.945849 0.5
52 3 0.53943 0.916548 0.5
66 4 0.585611 0.915216 0.5
60 3 0.800967 0.92136 0.5
11 1 0.862997 0.944601 0.5
65 4 0.421592 0.966265 0.5
16 1 0.486257 0.97804 0.5
55 3 0.737286 0.956434 0.5
ITEM: TIMESTEP
100
ITEM: NUMBER OF ATOMS
80
ITEM: BOX BOUNDS pp pp pp
-6.4552553973637332e+00 6.4552553973637332e+00
-6.4552553973637332e+00 6.4552553973637332e+00
-1.0000000000000001e-01 1.0000000000000001e-01
ITEM: ATOMS id type xs ys zs
1 1 0.0372557 0.0295252 0.5
6 1 0.129221 0.0112868 0.5
29 2 0.213084 0.0337784 0.5
67 4 0.310765 0.0294403 0.5
68 4 0.259908 0.0816619 0.5
42 3 0.638311 0.0903927 0.5
44 3 0.942875 0.109516 0.5
2 1 0.94965 0.0453396 0.5
10 1 0.0884702 0.132773 0.5
48 3 0.92619 0.14495 0.5
46 3 0.0229774 0.187765 0.5
50 3 0.157792 0.171722 0.5
25 2 0.390936 0.172162 0.5
49 3 0.738274 0.16506 0.5
75 4 0.896263 0.163485 0.5
34 2 0.0838551 0.232954 0.5
69 4 0.282201 0.245423 0.5
19 1 0.899893 0.230469 0.5
5 1 0.337378 0.288492 0.5
17 1 0.44504 0.260822 0.5
78 4 0.984667 0.305702 0.5
31 2 0.156888 0.35432 0.5
33 2 0.36787 0.34283 0.5
59 3 0.443289 0.332961 0.5
80 4 0.524462 0.347102 0.5
39 2 0.684557 0.342197 0.5
35 2 0.0736313 0.381758 0.5
18 1 0.371226 0.420957 0.5
54 3 0.444178 0.395188 0.5
15 1 0.54267 0.420075 0.5
64 4 0.760666 0.378517 0.5
8 1 0.823819 0.394085 0.5
73 4 0.828134 0.343186 0.5
77 4 0.110479 0.430803 0.5
56 3 0.620452 0.445927 0.5
7 1 0.766952 0.459196 0.5
38 2 0.910316 0.428071 0.5
9 1 0.0726487 0.527748 0.5
79 4 0.0702942 0.47616 0.5
20 1 0.222238 0.484761 0.5
28 2 0.293099 0.461338 0.5
14 1 0.361362 0.540417 0.5
47 3 0.321619 0.495046 0.5
32 2 0.419921 0.465697 0.5
24 2 0.448921 0.536287 0.5
23 2 0.943349 0.494545 0.5
36 2 0.117117 0.5704 0.5
4 1 0.23007 0.570094 0.5
21 2 0.721892 0.592647 0.5
71 4 0.748157 0.542328 0.5
51 3 0.15332 0.612238 0.5
26 2 0.447149 0.618636 0.5
22 2 0.846252 0.602046 0.5
13 1 0.984236 0.560248 0.5
30 2 0.98656 0.6406 0.5
70 4 0.23286 0.677002 0.5
45 3 0.51388 0.636316 0.5
63 4 0.694097 0.679921 0.5
53 3 0.796176 0.675275 0.5
37 2 0.437956 0.723877 0.5
72 4 0.324376 0.778011 0.5
74 4 0.556777 0.748037 0.5
40 2 0.0887009 0.796737 0.5
43 3 0.245662 0.835265 0.5
57 3 0.32426 0.841928 0.5
76 4 0.413865 0.822868 0.5
27 2 0.657453 0.811098 0.5
3 1 0.911485 0.757212 0.5
12 1 0.885202 0.871058 0.5
41 3 0.83788 0.787013 0.5
58 3 0.989815 0.823444 0.5
61 4 0.716897 0.880138 0.5
62 4 0.0267962 0.945725 0.5
52 3 0.538064 0.916189 0.5
66 4 0.587391 0.91514 0.5
60 3 0.797136 0.919978 0.5
11 1 0.866598 0.946945 0.5
65 4 0.419884 0.965974 0.5
16 1 0.48755 0.978767 0.5
55 3 0.737234 0.956462 0.5
ITEM: TIMESTEP
110
ITEM: NUMBER OF ATOMS
80
ITEM: BOX BOUNDS pp pp pp
-6.5286556424942361e+00 6.5286556424942361e+00
-6.5286556424942361e+00 6.5286556424942361e+00
-1.0000000000000001e-01 1.0000000000000001e-01
ITEM: ATOMS id type xs ys zs
1 1 0.037396 0.0293147 0.5
6 1 0.129181 0.0106449 0.5
29 2 0.214297 0.0339077 0.5
67 4 0.310765 0.0294403 0.5
68 4 0.260156 0.081907 0.5
42 3 0.638311 0.0903927 0.5
44 3 0.943377 0.110465 0.5
2 1 0.948905 0.0415703 0.5
10 1 0.0877961 0.130732 0.5
48 3 0.926168 0.146715 0.5
46 3 0.0215379 0.187742 0.5
50 3 0.159314 0.172483 0.5
25 2 0.390794 0.171917 0.5
49 3 0.738274 0.16506 0.5
75 4 0.895008 0.162887 0.5
34 2 0.0845273 0.234418 0.5
69 4 0.281907 0.245188 0.5
19 1 0.899789 0.23259 0.5
5 1 0.334305 0.284963 0.5
17 1 0.446269 0.259486 0.5
78 4 0.984667 0.305702 0.5
31 2 0.157608 0.354049 0.5
33 2 0.366212 0.342343 0.5
59 3 0.446408 0.331101 0.5
80 4 0.524288 0.346471 0.5
39 2 0.684557 0.342197 0.5
35 2 0.0720186 0.380765 0.5
18 1 0.3663 0.425875 0.5
54 3 0.449534 0.396238 0.5
15 1 0.541762 0.420331 0.5
64 4 0.756374 0.377825 0.5
8 1 0.827025 0.396849 0.5
73 4 0.830394 0.338124 0.5
77 4 0.111372 0.432067 0.5
56 3 0.621537 0.446303 0.5
7 1 0.765522 0.462048 0.5
38 2 0.908902 0.424826 0.5
9 1 0.0716555 0.528996 0.5
79 4 0.0696833 0.47171 0.5
20 1 0.215928 0.484711 0.5
28 2 0.297979 0.457728 0.5
14 1 0.360693 0.544916 0.5
47 3 0.319355 0.493449 0.5
32 2 0.421002 0.461707 0.5
24 2 0.453034 0.53969 0.5
23 2 0.944666 0.497281 0.5
36 2 0.118245 0.571729 0.5
4 1 0.229922 0.57264 0.5
21 2 0.720297 0.595704 0.5
71 4 0.749747 0.539299 0.5
51 3 0.154296 0.613892 0.5
26 2 0.445117 0.618433 0.5
22 2 0.846264 0.602027 0.5
13 1 0.983703 0.556139 0.5
30 2 0.98664 0.645721 0.5
70 4 0.23286 0.677002 0.5
45 3 0.515928 0.63687 0.5
63 4 0.694097 0.679921 0.5
53 3 0.796163 0.675293 0.5
37 2 0.437956 0.723877 0.5
72 4 0.324376 0.777941 0.5
74 4 0.556777 0.748037 0.5
40 2 0.0887009 0.796737 0.5
43 3 0.245662 0.835265 0.5
57 3 0.32426 0.841998 0.5
76 4 0.413865 0.822868 0.5
27 2 0.657453 0.811098 0.5
3 1 0.917051 0.750814 0.5
12 1 0.886236 0.877599 0.5
41 3 0.831631 0.785598 0.5
58 3 0.989815 0.823444 0.5
61 4 0.716897 0.880138 0.5
62 4 0.0267777 0.945572 0.5
52 3 0.536702 0.915732 0.5
66 4 0.589246 0.915064 0.5
60 3 0.793262 0.918535 0.5
11 1 0.870215 0.949605 0.5
65 4 0.418077 0.965663 0.5
16 1 0.488865 0.97961 0.5
55 3 0.737141 0.956515 0.5
ITEM: TIMESTEP
120
ITEM: NUMBER OF ATOMS
80
ITEM: BOX BOUNDS pp pp pp
-6.5865748350939874e+00 6.5865748350939874e+00
-6.5865748350939874e+00 6.5865748350939874e+00
-1.0000000000000001e-01 1.0000000000000001e-01
ITEM: ATOMS id type xs ys zs
1 1 0.0375394 0.0290848 0.5
6 1 0.129184 0.00993656 0.5
29 2 0.215586 0.0340249 0.5
67 4 0.310765 0.0294403 0.5
68 4 0.260448 0.0821972 0.5
42 3 0.638311 0.0903927 0.5
44 3 0.943958 0.111375 0.5
2 1 0.947978 0.0377163 0.5
10 1 0.0871305 0.128631 0.5
48 3 0.926241 0.14851 0.5
46 3 0.0200133 0.187735 0.5
50 3 0.160903 0.173285 0.5
25 2 0.390629 0.171634 0.5
49 3 0.738274 0.16506 0.5
75 4 0.893591 0.162272 0.5
34 2 0.0852366 0.235941 0.5
69 4 0.281498 0.244866 0.5
19 1 0.899676 0.234852 0.5
5 1 0.331217 0.281342 0.5
17 1 0.447549 0.25802 0.5
78 4 0.984667 0.305702 0.5
31 2 0.158378 0.353763 0.5
33 2 0.36469 0.341955 0.5
59 3 0.449505 0.329387 0.5
80 4 0.524099 0.345773 0.5
39 2 0.684557 0.342197 0.5
35 2 0.0703265 0.379749 0.5
18 1 0.361437 0.43051 0.5
54 3 0.454869 0.397206 0.5
15 1 0.54082 0.420636 0.5
64 4 0.752073 0.377099 0.5
8 1 0.830244 0.399562 0.5
73 4 0.832617 0.33297 0.5
77 4 0.112295 0.43337 0.5
56 3 0.6227 0.446705 0.5
7 1 0.763983 0.464963 0.5
38 2 0.907619 0.42159 0.5
9 1 0.0706492 0.530145 0.5
79 4 0.069078 0.467146 0.5
20 1 0.209557 0.484489 0.5