LAMMPS data file via write_data, version 23 Jun 2022, timestep = 10000

80 atoms
4 atom types

-4.813739820296406 4.813739820296406 xlo xhi
-4.813739820296406 4.813739820296406 ylo yhi
-0.1 0.1 zlo zhi

Atoms # sphere

66 4 0.7 2.915451895043732 -3.194759124416893 -4.207945346811128 0 0 0 0
68 4 0.7 2.915451895043732 -3.0009694237176743 -3.3987506090446153 0 0 0 0
71 4 0.7 2.915451895043732 -3.634213626470024 -3.752843040962239 0 0 0 0
33 2 1.3 0.4551661356395083 -1.244978508036691 -4.462895542803292 0 0 0 0
26 2 1.3 0.4551661356395083 -0.008505284795124801 -4.693975621411129 0 0 0 0
74 4 0.7 2.915451895043732 0.8612290307403647 -4.733470330412027 0 0 0 0
61 4 0.7 2.915451895043732 1.9862645590397152 -3.578604788721341 0 0 1 0
27 2 1.3 0.4551661356395083 0.8040196333140353 -3.770853681172441 0 0 0 0
32 2 1.3 0.4551661356395083 2.871275317970138 -3.9673096221674604 0 0 1 0
80 4 0.7 2.915451895043732 3.949542289097381 -4.033022513663662 0 0 0 0
73 4 0.7 2.915451895043732 4.337459528167687 -4.486402287819144 0 0 0 0
10 1 1.6 0.2441406249999999 -4.77744203615577 -3.4982191267441407 0 1 1 0
22 2 1.3 0.4551661356395083 -3.7231179873641804 -2.8828292030172484 0 1 0 0
28 2 1.3 0.4551661356395083 -2.263238638791301 -3.9331714242635396 0 0 0 0
76 4 0.7 2.915451895043732 -2.780984044730271 -2.8115392999595046 0 0 0 0
63 4 0.7 2.915451895043732 -1.2972851866929305 -3.4968649974942316 0 -1 1 0
24 2 1.3 0.4551661356395083 -0.39978455588417194 -3.510154946523035 0 0 0 0
50 3 1 1 2.4000918401915543 -2.5726770109161667 0 0 1 0
18 1 1.6 0.2441406249999999 3.553058245763439 -2.699361507074221 0 -1 1 0
69 4 0.7 2.915451895043732 4.550380615905602 -2.3761444387391126 0 -1 1 0
15 1 1.6 0.2441406249999999 -4.254196189262062 -1.7488718336260058 0 1 0 0
55 3 1 1 -2.942752300075989 -2.130737937786521 0 1 0 0
37 2 1.3 0.4551661356395083 -1.8564526141052151 -2.779491616705218 0 0 0 0
30 2 1.3 0.4551661356395083 -0.7699917605418065 -2.244305954693691 0 0 0 0
40 2 1.3 0.4551661356395083 0.2723988566441671 -2.511081195778104 0 0 0 0
31 2 1.3 0.4551661356395083 1.2957781167309248 -2.794976915576355 0 0 1 0
35 2 1.3 0.4551661356395083 1.8506809350558653 -1.7153211415673213 0 0 1 0
58 3 1 1 4.052094222246585 -1.6557219116087438 0 0 0 0
51 3 1 1 4.701993572310548 -0.8546858486114681 0 -1 0 0
44 3 1 1 -3.963352087778843 -0.606708510139855 0 0 0 0
72 4 0.7 2.915451895043732 -3.1904371534539977 -1.278980716760484 0 0 0 0
4 1 1.6 0.2441406249999999 -2.156723657446276 -1.3817413887787553 0 1 0 0
13 1 1.6 0.2441406249999999 -0.7681812519011313 -0.8476289863955375 0 0 -1 0
8 1 1.6 0.2441406249999999 0.6013942437312059 -1.2745633216949748 0 0 0 0
46 3 1 1 1.4285882690431349 -0.3701038199356468 0 0 0 0
34 2 1.3 0.4551661356395083 2.9161104946636884 -1.4536164627930939 0 0 0 0
48 3 1 1 -2.9332441044460964 -0.6183377071889833 0 0 0 0
47 3 1 1 -1.9468451062773724 -0.19811749987597072 0 0 0 0
54 3 1 1 -1.4469995890204572 0.6574861088097101 0 0 0 0
64 4 0.7 2.915451895043732 -0.6916019511299307 0.3656204151530522 0 1 0 0
20 1 1.6 0.2441406249999999 0.35733605707952165 0.12000890168628686 0 0 0 0
45 3 1 1 1.610274442497805 0.4268250885270861 0 0 0 0
1 1 1.6 0.2441406249999999 2.6419973567574093 -0.10788108436867283 0 0 0 0
16 1 1.6 0.2441406249999999 -4.730887778670563 0.40983520212549074 0 1 0 0
49 3 1 1 3.8277117818678486 -0.5445660137939221 0 0 0 0
23 2 1.3 0.4551661356395083 -3.5553136904633695 0.43509305859262337 0 0 0 0
70 4 0.7 2.915451895043732 -2.551765506930831 0.14679392130704283 0 1 0 0
25 2 1.3 0.4551661356395083 -2.463483208612537 1.0615134430213518 0 0 0 0
79 4 0.7 2.915451895043732 -1.4674359562795938 1.435451168189931 0 0 -1 0
6 1 1.6 0.2441406249999999 -0.3298002264789579 1.4310108754010917 0 0 0 0
41 3 1 1 0.9742948161472276 1.2106153632470642 0 0 0 0
78 4 0.7 2.915451895043732 2.4942252670325926 0.8846517288047915 0 0 0 0
75 4 0.7 2.915451895043732 1.885222147038375 0.9129728314233958 0 0 0 0
52 3 1 1 1.6738600736438665 1.7568186409555624 0 0 0 0
9 1 1.6 0.2441406249999999 3.589098223723128 0.9554135415690874 0 0 0 0
12 1 1.6 0.2441406249999999 -3.8484812854971753 1.8066183376776577 0 1 0 0
60 3 1 1 -2.5589192002794707 2.115903854283884 0 0 0 0
3 1 1.6 0.2441406249999999 -1.5271100027262858 2.54040596747904 0 0 -1 0
67 4 0.7 2.915451895043732 0.7457266199439596 1.928346958272301 0 0 0 0
5 1 1.6 0.2441406249999999 0.0218334024856075 2.6888903265503865 0 0 -1 0
39 2 1.3 0.4551661356395083 1.4032005953872542 2.7520764395644814 0 0 0 0
43 3 1 1 2.4523538825486684 2.4096484652322925 0 0 0 0
77 4 0.7 2.915451895043732 2.8012981372806918 1.628823583534123 0 0 0 0
17 1 1.6 0.2441406249999999 3.6554248459760137 2.4547164129933563 0 0 0 0
59 3 1 1 4.533345054391371 1.5732427154802453 0 -1 0 0
65 4 0.7 2.915451895043732 4.691434897025155 2.509915045322157 0 -1 0 0
38 2 1.3 0.4551661356395083 -4.486839889860423 3.3461084118901097 0 0 0 0
14 1 1.6 0.2441406249999999 -3.1087425733100362 3.2093905381044747 0 0 0 0
62 4 0.7 2.915451895043732 -0.7991904246570023 3.2440479964771667 0 0 -1 0
57 3 1 1 1.8161660857322293 3.559641811462062 0 0 0 0
42 3 1 1 4.084827961825057 3.4545046559158097 0 -1 0 0
36 2 1.3 0.4551661356395083 2.8339272767928865 3.5191470982057096 0 0 -1 0
2 1 1.6 0.2441406249999999 -4.050984317520103 4.735793389679327 0 0 0 0
21 2 1.3 0.4551661356395083 -2.761715981898608 4.5494885136682806 0 0 0 0
11 1 1.6 0.2441406249999999 -1.66958617448898 3.981805973438248 0 0 0 0
56 3 1 1 -0.4587507394336523 3.966729493898783 0 0 0 0
29 2 1.3 0.4551661356395083 0.6943164531872172 3.9191155214429196 0 0 -1 0
19 1 1.6 0.2441406249999999 1.9882934490463722 4.711288682152799 0 0 0 0
7 1 1.6 0.2441406249999999 3.3963071927457564 4.607720725978978 0 0 0 0
53 3 1 1 4.584784000066516 4.343864185366967 0 0 0 0

Velocities

66 -0.06557679829818411 0.05840643257107686 0 0 0 0
68 0.049777540155102454 0.1736992130519655 0 0 0 0
71 -0.12854269672249047 0.003786824796748422 0 0 0 0
33 0.05262373152548948 0.10810060600340832 0 0 0 0
26 0.11417579843047701 -0.10331960159968026 0 0 0 0
74 -0.07500054808057334 0.10273477850260543 0 0 0 0
61 0.05873521845719587 -0.07285669214966731 0 0 0 0
27 0.034064764050414344 -0.02307435221830534 0 0 0 0
32 0.006562918993464743 0.010727193753642707 0 0 0 0
80 -0.18801426042864505 0.03344569261586209 0 0 0 0
73 -0.12372205488791399 0.00913668651038766 0 0 0 0
10 0.1035593474870345 0.053311990226466134 0 0 0 0
22 -0.17034936962021538 -0.0005356002516944122 0 0 0 0
28 0.18891096001925048 -0.10998978656963192 0 0 0 0
76 -0.11630709266853616 -0.03585392150264192 0 0 0 0
63 -0.13310563092836053 -0.0921458084388943 0 0 0 0
24 0.046835440381815065 -0.22862256509761958 0 0 0 0
50 0.04648604644869224 0.07027947002421221 0 0 0 0
18 0.10802970065780453 -0.12195165542505311 0 0 0 0
69 0.06019454949355389 -0.029546977900118992 0 0 0 0
15 -0.022626480530584775 -0.008716457060948214 0 0 0 0
55 -0.22082103970524863 -0.0905914429935831 0 0 0 0
37 -0.07302221981596001 0.11105352127284492 0 0 0 0
30 0.017849070914358306 -0.12331805061686245 0 0 0 0
40 -0.13412063037936656 -0.06468804657395555 0 0 0 0
31 -0.05825115527667032 0.0709356523972743 0 0 0 0
35 -0.14370180107991393 0.12404218779792264 0 0 0 0
58 -0.17303927517714818 -0.09326707541403285 0 0 0 0
51 0.10414625242536191 0.045361410235804756 0 0 0 0
44 0.13593249427680879 0.15221992416676383 0 0 0 0
72 0.09173185097782006 -0.03517568161821194 0 0 0 0
4 0.029772027930031794 -0.09714399852183095 0 0 0 0
13 -0.008525074484900278 0.01170082187042781 0 0 0 0
8 -0.06771909517489952 -0.19159836844689768 0 0 0 0
46 -0.006836145391770598 -0.04698540811406584 0 0 0 0
34 0.08418850389451506 0.09588398968799398 0 0 0 0
48 0.008467971897480825 -0.027820042512848385 0 0 0 0
47 -0.07025735011456827 -0.058588331362811386 0 0 0 0
54 -0.142098063172065 0.011029316395777658 0 0 0 0
64 0.11199372962670409 -0.1709258911034867 0 0 0 0
20 -0.15792718739654973 -0.029726793848031514 0 0 0 0
45 0.10107821744576109 0.14958976931537363 0 0 0 0
1 0.0025695027273219817 -0.009754096599761624 0 0 0 0
16 -0.18988989705862136 -0.10447256545915723 0 0 0 0
49 -0.008845589993474323 -0.10783247865948958 0 0 0 0
23 -0.0893538876619801 -0.043561081253576314 0 0 0 0
70 -0.02531045315556081 -0.05404098926517594 0 0 0 0
25 0.20186580062370438 0.08761998602286072 0 0 0 0
79 -0.015330822918356484 0.029463438250675874 0 0 0 0
6 0.012111901042955415 -0.004435021688404483 0 0 0 0
41 0.04945169694205812 -0.12320616365273852 0 0 0 0
78 0.03956033327539719 0.09146984311167061 0 0 0 0
75 -0.004982049838401557 0.058875387541282236 0 0 0 0
52 -0.13326137330986856 -0.02633893270069957 0 0 0 0
9 0.14821998501728703 -0.18087915871139815 0 0 0 0
12 0.14294476640466636 -0.2038033180181975 0 0 0 0
60 -0.03827524855392646 0.08820142750470014 0 0 0 0
3 0.15504613845186585 0.1419951652873705 0 0 0 0
67 0.2246631476443359 0.021522449559068575 0 0 0 0
5 0.026493920738462556 0.18023110575103302 0 0 0 0
39 -0.14945522256041546 0.09335307554095752 0 0 0 0
43 0.10635575958348104 0.10615771254235562 0 0 0 0
77 0.045095867750951216 0.10307237661733042 0 0 0 0
17 0.06307307239282046 -0.039132717088766325 0 0 0 0
59 -0.2234464861124599 0.08702441215950941 0 0 0 0
65 -0.06686812735798907 -0.049384281251465885 0 0 0 0
38 0.09293485431654744 -0.16137871039538754 0 0 0 0
14 0.015124932123484635 0.12458196433782853 0 0 0 0
62 -0.10445450168012954 0.07901520865858308 0 0 0 0
57 0.19313807499244434 -0.027668231469876355 0 0 0 0
42 0.0977847208009845 -0.05573836719859627 0 0 0 0
36 0.0001929623357211236 0.0795958087267869 0 0 0 0
2 -0.01758375649913368 -0.045001375419377265 0 0 0 0
21 -0.14564177067607853 -0.049573257692296514 0 0 0 0
11 0.12169744544306885 -0.1317193054667981 0 0 0 0
56 0.06194163770207855 0.03804786067162999 0 0 0 0
29 -0.03533729132475907 0.20738188167639893 0 0 0 0
19 -0.20219076555119536 0.23918752191107803 0 0 0 0
7 0.12137783781052235 -0.02297105309702792 0 0 0 0
53 0.2530307199776376 0.04509154736138133 0 0 0 0
