ITEM: TIMESTEP
0
ITEM: NUMBER OF ATOMS
80
ITEM: BOX BOUNDS pp pp pp
-1.0000000000000000e+01 1.0000000000000000e+01
-1.0000000000000000e+01 1.0000000000000000e+01
-1.0000000000000001e-01 1.0000000000000001e-01
ITEM: ATOMS id type xs ys zs
13 1 0.483134 0.0306703 0.5
79 4 0.516633 0.0456891 0.5
3 1 0.530496 0.0476275 0.5
46 3 0.676267 0.0132039 0.5
34 2 0.942406 0.0145675 0.5
68 4 0.153989 0.0992486 0.5
76 4 0.345278 0.0945332 0.5
52 3 0.613201 0.0638473 0.5
71 4 0.257996 0.138616 0.5
27 2 0.770699 0.14627 0.5
5 1 0.874881 0.130003 0.5
22 2 0.898443 0.136406 0.5
36 2 0.98567 0.150107 0.5
33 2 0.0511798 0.179113 0.5
24 2 0.0796215 0.198659 0.5
66 4 0.073848 0.163341 0.5
37 2 0.45155 0.208067 0.5
62 4 0.273413 0.248766 0.5
26 2 0.81527 0.24383 0.5
4 1 0.997872 0.23307 0.5
74 4 0.442214 0.285333 0.5
29 2 0.874712 0.282683 0.5
70 4 0.939447 0.293996 0.5
55 3 0.963009 0.296337 0.5
73 4 0.953609 0.301336 0.5
44 3 0.0109726 0.417184 0.5
23 2 0.103194 0.378134 0.5
1 1 0.14193 0.417964 0.5
75 4 0.433473 0.385861 0.5
28 2 0.0226957 0.447423 0.5
48 3 0.00353655 0.438762 0.5
40 2 0.575859 0.470075 0.5
8 1 0.131165 0.496138 0.5
51 3 0.148183 0.508251 0.5
9 1 0.440918 0.512648 0.5
58 3 0.482626 0.494582 0.5
49 3 0.872763 0.525266 0.5
67 4 0.0717289 0.547843 0.5
45 3 0.390705 0.571787 0.5
17 1 0.632091 0.546496 0.5
78 4 0.650654 0.539768 0.5
6 1 0.694685 0.563491 0.5
80 4 0.731096 0.530125 0.5
77 4 0.801186 0.53962 0.5
47 3 0.0510866 0.612619 0.5
30 2 0.166811 0.600345 0.5
11 1 0.552485 0.618786 0.5
15 1 0.646493 0.609272 0.5
57 3 0.824574 0.610673 0.5
16 1 0.861937 0.582271 0.5
19 1 0.931373 0.589887 0.5
12 1 0.975523 0.617364 0.5
14 1 0.119096 0.647337 0.5
31 2 0.982784 0.643264 0.5
38 2 0.280225 0.735745 0.5
21 2 0.629066 0.717483 0.5
20 1 0.648225 0.725549 0.5
64 4 0.897108 0.699849 0.5
59 3 0.239468 0.745501 0.5
65 4 0.321578 0.766437 0.5
50 3 0.734263 0.758827 0.5
41 3 0.768534 0.759311 0.5
10 1 0.873313 0.771605 0.5
35 2 0.867662 0.787469 0.5
63 4 0.101731 0.799187 0.5
72 4 0.128091 0.820304 0.5
25 2 0.215017 0.794997 0.5
54 3 0.253156 0.79106 0.5
43 3 0.965778 0.830544 0.5
61 4 0.360317 0.845861 0.5
60 3 0.584271 0.846126 0.5
39 2 0.795138 0.877611 0.5
18 1 0.134286 0.944794 0.5
56 3 0.507343 0.913841 0.5
69 4 0.48997 0.929018 0.5
42 3 0.577137 0.938025 0.5
32 2 0.626462 0.938973 0.5
53 3 0.956978 0.934618 0.5
2 1 0.671861 0.973066 0.5
7 1 0.743321 0.992134 0.5
ITEM: TIMESTEP
10
ITEM: NUMBER OF ATOMS
80
ITEM: BOX BOUNDS pp pp pp
-9.2791480093131931e+00 9.2791480093131931e+00
-9.2791480093131931e+00 9.2791480093131931e+00
-1.0000000000000001e-01 1.0000000000000001e-01
ITEM: ATOMS id type xs ys zs
13 1 0.482958 0.0306008 0.5
79 4 0.516545 0.0456988 0.5
3 1 0.53076 0.0476872 0.5
46 3 0.676277 0.0132957 0.5
34 2 0.942406 0.0145675 0.5
68 4 0.153989 0.0992486 0.5
76 4 0.345278 0.0945332 0.5
52 3 0.613201 0.0638473 0.5
71 4 0.257996 0.138616 0.5
27 2 0.770699 0.14627 0.5
5 1 0.87471 0.129956 0.5
22 2 0.898615 0.136453 0.5
36 2 0.98567 0.150107 0.5
33 2 0.0510179 0.179097 0.5
24 2 0.0797237 0.198776 0.5
66 4 0.0739078 0.16324 0.5
37 2 0.45155 0.208067 0.5
62 4 0.273413 0.248766 0.5
26 2 0.81527 0.24383 0.5
4 1 0.997872 0.23307 0.5
74 4 0.442214 0.285333 0.5
29 2 0.874712 0.282683 0.5
70 4 0.939315 0.293956 0.5
55 3 0.963183 0.296289 0.5
73 4 0.953568 0.301423 0.5
44 3 0.0109717 0.417002 0.5
23 2 0.103149 0.378088 0.5
1 1 0.141976 0.418002 0.5
75 4 0.433473 0.385861 0.5
28 2 0.0228524 0.447566 0.5
48 3 0.00338083 0.438802 0.5
40 2 0.575859 0.470075 0.5
8 1 0.131032 0.496051 0.5
51 3 0.148315 0.508345 0.5
9 1 0.44085 0.512677 0.5
58 3 0.482694 0.494553 0.5
49 3 0.872768 0.525238 0.5
67 4 0.0717289 0.547843 0.5
45 3 0.390705 0.571787 0.5
17 1 0.631889 0.546469 0.5
78 4 0.650759 0.539706 0.5
6 1 0.694782 0.563505 0.5
80 4 0.73112 0.530103 0.5
77 4 0.801186 0.53962 0.5
47 3 0.0510866 0.612619 0.5
30 2 0.166828 0.600329 0.5
11 1 0.552485 0.618786 0.5
15 1 0.646468 0.609367 0.5
57 3 0.824519 0.610714 0.5
16 1 0.861946 0.582253 0.5
19 1 0.931324 0.589835 0.5
12 1 0.975567 0.617257 0.5
14 1 0.119079 0.647354 0.5
31 2 0.98283 0.643427 0.5
38 2 0.280282 0.73573 0.5
21 2 0.628891 0.717409 0.5
20 1 0.648401 0.725623 0.5
64 4 0.897108 0.699849 0.5
59 3 0.239412 0.745494 0.5
65 4 0.321579 0.766438 0.5
50 3 0.734204 0.758826 0.5
41 3 0.768594 0.759312 0.5
10 1 0.873382 0.771412 0.5
35 2 0.867593 0.787662 0.5
63 4 0.101727 0.799183 0.5
72 4 0.128095 0.820308 0.5
25 2 0.214941 0.795015 0.5
54 3 0.253231 0.791063 0.5
43 3 0.965778 0.830544 0.5
61 4 0.360317 0.845861 0.5
60 3 0.584271 0.846126 0.5
39 2 0.795138 0.877611 0.5
18 1 0.134286 0.944794 0.5
56 3 0.507398 0.913793 0.5
69 4 0.489916 0.929066 0.5
42 3 0.577104 0.938024 0.5
32 2 0.626446 0.938937 0.5
53 3 0.956978 0.934618 0.5
2 1 0.671875 0.973004 0.5
7 1 0.743346 0.992141 0.5
ITEM: TIMESTEP
20
ITEM: NUMBER OF ATOMS
80
ITEM: BOX BOUNDS pp pp pp
-8.3691905753425768e+00 8.3691905753425768e+00
-8.3691905753425768e+00 8.3691905753425768e+00
-1.0000000000000001e-01 1.0000000000000001e-01
ITEM: ATOMS id type xs ys zs
13 1 0.482308 0.0303441 0.5
79 4 0.516251 0.0457395 0.5
3 1 0.531704 0.0479033 0.5
46 3 0.676305 0.0136374 0.5
34 2 0.942406 0.0145675 0.5
68 4 0.153989 0.0992486 0.5
76 4 0.345278 0.0945332 0.5
52 3 0.613201 0.0638473 0.5
71 4 0.257996 0.138616 0.5
27 2 0.770699 0.14627 0.5
5 1 0.874102 0.129791 0.5
22 2 0.899222 0.136618 0.5
36 2 0.985664 0.150104 0.5
33 2 0.0504508 0.179023 0.5
24 2 0.0800957 0.19921 0.5
66 4 0.0741241 0.162866 0.5
37 2 0.45155 0.208067 0.5
62 4 0.273413 0.248766 0.5
26 2 0.815264 0.243826 0.5
4 1 0.997858 0.233083 0.5
74 4 0.442214 0.285333 0.5
29 2 0.874717 0.282687 0.5
70 4 0.938837 0.293814 0.5
55 3 0.963798 0.296123 0.5
73 4 0.953428 0.301735 0.5
44 3 0.0109674 0.416344 0.5
23 2 0.102972 0.377907 0.5
1 1 0.142162 0.418117 0.5
75 4 0.433473 0.385861 0.5
28 2 0.0234118 0.448079 0.5
48 3 0.00282573 0.438947 0.5
40 2 0.575859 0.470075 0.5
8 1 0.130552 0.495783 0.5
51 3 0.148785 0.50868 0.5
9 1 0.440594 0.512788 0.5
58 3 0.48295 0.494442 0.5
49 3 0.872792 0.525113 0.5
67 4 0.0717289 0.547843 0.5
45 3 0.390705 0.571787 0.5
17 1 0.631144 0.54634 0.5
78 4 0.651111 0.539478 0.5
6 1 0.695177 0.563572 0.5
80 4 0.731221 0.53001 0.5
77 4 0.801186 0.53962 0.5
47 3 0.0510868 0.612619 0.5
30 2 0.16691 0.600248 0.5
11 1 0.552485 0.618786 0.5
15 1 0.646366 0.609751 0.5
57 3 0.824311 0.610873 0.5
16 1 0.861955 0.582201 0.5
19 1 0.931144 0.589625 0.5
12 1 0.97574 0.616886 0.5
14 1 0.118998 0.647434 0.5
31 2 0.983012 0.644028 0.5
38 2 0.280491 0.735657 0.5
21 2 0.62827 0.717148 0.5
20 1 0.649022 0.725885 0.5
64 4 0.897108 0.699849 0.5
59 3 0.239203 0.745428 0.5
65 4 0.321595 0.76645 0.5
50 3 0.733981 0.758823 0.5
41 3 0.768817 0.759315 0.5
10 1 0.873624 0.770732 0.5
35 2 0.867351 0.788342 0.5
63 4 0.101697 0.799159 0.5
72 4 0.128125 0.820332 0.5
25 2 0.214643 0.795101 0.5
54 3 0.253513 0.791104 0.5
43 3 0.965778 0.830544 0.5
61 4 0.360317 0.845861 0.5
60 3 0.584271 0.846126 0.5
39 2 0.795138 0.877611 0.5
18 1 0.134286 0.944794 0.5
56 3 0.507596 0.91362 0.5
69 4 0.489718 0.929239 0.5
42 3 0.576967 0.938022 0.5
32 2 0.626391 0.938796 0.5
53 3 0.956978 0.934618 0.5
2 1 0.671907 0.972776 0.5
7 1 0.743476 0.992171 0.5
ITEM: TIMESTEP
30
ITEM: NUMBER OF ATOMS
80
ITEM: BOX BOUNDS pp pp pp
-7.6997675923266851e+00 7.6997675923266851e+00
-7.6997675923266851e+00 7.6997675923266851e+00
-1.0000000000000001e-01 1.0000000000000001e-01
ITEM: ATOMS id type xs ys zs
13 1 0.481011 0.0298314 0.5
79 4 0.515719 0.0458302 0.5
3 1 0.533533 0.0483252 0.5
46 3 0.676319 0.0143347 0.5
34 2 0.942406 0.0145675 0.5
68 4 0.153989 0.0992486 0.5
76 4 0.345278 0.0945332 0.5
52 3 0.613201 0.0638474 0.5
71 4 0.257996 0.138616 0.5
27 2 0.770699 0.14627 0.5
5 1 0.872936 0.129474 0.5
22 2 0.900388 0.136935 0.5
36 2 0.985609 0.150059 0.5
33 2 0.0494237 0.178851 0.5
24 2 0.08083 0.200073 0.5
66 4 0.0745476 0.162119 0.5
37 2 0.45155 0.208067 0.5
62 4 0.273413 0.248766 0.5
26 2 0.815217 0.243795 0.5
4 1 0.997806 0.233141 0.5
74 4 0.442214 0.285333 0.5
29 2 0.874765 0.282718 0.5
70 4 0.937908 0.293536 0.5
55 3 0.964963 0.295842 0.5
73 4 0.953169 0.302339 0.5
44 3 0.0109584 0.415064 0.5
23 2 0.102602 0.377527 0.5
1 1 0.142562 0.418293 0.5
75 4 0.433473 0.385861 0.5
28 2 0.0244927 0.449075 0.5
48 3 0.00175379 0.439231 0.5
40 2 0.575859 0.470075 0.5
8 1 0.129621 0.495348 0.5
51 3 0.149687 0.509319 0.5
9 1 0.440078 0.513007 0.5
58 3 0.483473 0.494215 0.5
49 3 0.872848 0.524819 0.5
67 4 0.0717289 0.547843 0.5
45 3 0.390698 0.571795 0.5
17 1 0.629649 0.546024 0.5
78 4 0.65175 0.539021 0.5
6 1 0.696029 0.563728 0.5
80 4 0.731447 0.5298 0.5
77 4 0.801186 0.53962 0.5
47 3 0.0510933 0.612611 0.5
30 2 0.16711 0.600051 0.5
11 1 0.55247 0.618788 0.5
15 1 0.646158 0.610576 0.5
57 3 0.82388 0.6112 0.5
16 1 0.861926 0.582123 0.5
19 1 0.930787 0.589164 0.5
12 1 0.976092 0.616187 0.5
14 1 0.11881 0.647638 0.5
31 2 0.983402 0.645233 0.5
38 2 0.280904 0.735439 0.5
21 2 0.627083 0.716648 0.5
20 1 0.650208 0.726384 0.5
64 4 0.897108 0.699849 0.5
59 3 0.238778 0.745223 0.5
65 4 0.321664 0.766501 0.5
50 3 0.733527 0.758817 0.5
41 3 0.769271 0.759321 0.5
10 1 0.874085 0.769439 0.5
35 2 0.86689 0.789636 0.5
63 4 0.101616 0.799094 0.5
72 4 0.128207 0.820397 0.5
25 2 0.214023 0.795316 0.5
54 3 0.254074 0.79126 0.5
43 3 0.965778 0.830544 0.5
61 4 0.360317 0.845861 0.5
60 3 0.584271 0.846126 0.5
39 2 0.795138 0.877611 0.5
18 1 0.134286 0.944794 0.5
56 3 0.507985 0.913279 0.5
69 4 0.489328 0.92958 0.5
42 3 0.576659 0.938016 0.5
32 2 0.626292 0.938496 0.5
53 3 0.956978 0.934618 0.5
2 1 0.671942 0.972322 0.5
7 1 0.743835 0.992232 0.5
ITEM: TIMESTEP
40
ITEM: NUMBER OF ATOMS
80
ITEM: BOX BOUNDS pp pp pp
-7.2248487368894665e+00 7.2248487368894665e+00
-7.2248487368894665e+00 7.2248487368894665e+00
-1.0000000000000001e-01 1.0000000000000001e-01
ITEM: ATOMS id type xs ys zs
13 1 0.478929 0.0290069 0.5
79 4 0.514931 0.0459898 0.5
3 1 0.536376 0.048985 0.5
46 3 0.676275 0.0154821 0.5
34 2 0.942406 0.0145675 0.5
68 4 0.153989 0.0992486 0.5
76 4 0.345278 0.0945332 0.5
52 3 0.613227 0.0638524 0.5
71 4 0.257996 0.138616 0.5
27 2 0.770699 0.14627 0.5
5 1 0.871117 0.12898 0.5
22 2 0.902204 0.137428 0.5
36 2 0.985443 0.14989 0.5
33 2 0.0479284 0.178542 0.5
24 2 0.0820285 0.201445 0.5
66 4 0.0752198 0.160918 0.5
37 2 0.45155 0.208067 0.5
62 4 0.273413 0.248766 0.5
26 2 0.815081 0.243707 0.5
4 1 0.997674 0.233308 0.5
74 4 0.442214 0.285333 0.5
29 2 0.87489 0.282805 0.5
70 4 0.936458 0.293095 0.5
55 3 0.966742 0.295473 0.5
73 4 0.952777 0.303289 0.5
44 3 0.010947 0.413051 0.5
23 2 0.101982 0.376891 0.5
1 1 0.143248 0.418505 0.5
75 4 0.433473 0.385861 0.5
28 2 0.026187 0.450635 0.5
48 3 7.09554e-05 0.439684 0.5
40 2 0.575851 0.470063 0.5
8 1 0.128146 0.494777 0.5
51 3 0.151095 0.510314 0.5
9 1 0.439263 0.513327 0.5
58 3 0.48433 0.493844 0.5
49 3 0.872947 0.52429 0.5
67 4 0.0717286 0.547844 0.5
45 3 0.390655 0.571846 0.5
17 1 0.627249 0.54545 0.5
78 4 0.6527 0.538271 0.5
6 1 0.697474 0.564013 0.5
80 4 0.731846 0.529426 0.5
77 4 0.801179 0.539615 0.5
47 3 0.0511199 0.61257 0.5
30 2 0.16748 0.599686 0.5
11 1 0.552378 0.618798 0.5
15 1 0.645865 0.61199 0.5
57 3 0.823168 0.611743 0.5
16 1 0.861824 0.582037 0.5
19 1 0.930218 0.588372 0.5
12 1 0.976641 0.615114 0.5
14 1 0.118507 0.648037 0.5
31 2 0.984051 0.647182 0.5
38 2 0.28157 0.734991 0.5
21 2 0.625238 0.715871 0.5
20 1 0.652053 0.727161 0.5
64 4 0.897113 0.699835 0.5
59 3 0.238084 0.744799 0.5
65 4 0.321823 0.766622 0.5
50 3 0.732787 0.758807 0.5
41 3 0.770011 0.759332 0.5
10 1 0.874794 0.767447 0.5
35 2 0.866176 0.791641 0.5
63 4 0.101456 0.798966 0.5
72 4 0.128366 0.820525 0.5
25 2 0.212992 0.795713 0.5
54 3 0.254975 0.791614 0.5
43 3 0.965778 0.830544 0.5
61 4 0.360317 0.845861 0.5
60 3 0.584271 0.846126 0.5
39 2 0.795138 0.877611 0.5
18 1 0.134286 0.944794 0.5
56 3 0.508606 0.912737 0.5
69 4 0.488707 0.930122 0.5
42 3 0.576118 0.938009 0.5
32 2 0.626139 0.937987 0.5
53 3 0.956978 0.934618 0.5
2 1 0.671964 0.971594 0.5
7 1 0.744551 0.992331 0.5
ITEM: TIMESTEP
50
ITEM: NUMBER OF ATOMS
80
ITEM: BOX BOUNDS pp pp pp
-6.9161517892525977e+00 6.9161517892525977e+00
-6.9161517892525977e+00 6.9161517892525977e+00
-1.0000000000000001e-01 1.0000000000000001e-01
ITEM: ATOMS id type xs ys zs
13 1 0.476018 0.0278503 0.5
79 4 0.5139 0.0462316 0.5
3 1 0.540207 0.0498784 0.5
46 3 0.676138 0.0171274 0.5
34 2 0.942406 0.0145682 0.5
68 4 0.153989 0.0992486 0.5
76 4 0.345278 0.0945332 0.5
52 3 0.613338 0.0638739 0.5
71 4 0.257996 0.138616 0.5
27 2 0.770696 0.14627 0.5
5 1 0.868624 0.128301 0.5
22 2 0.904655 0.1381 0.5
36 2 0.985145 0.149533 0.5
33 2 0.0460159 0.178073 0.5
24 2 0.0837536 0.20334 0.5
66 4 0.0761557 0.159241 0.5
37 2 0.45155 0.208067 0.5
62 4 0.273413 0.248766 0.5
26 2 0.81482 0.243536 0.5
4 1 0.997416 0.233638 0.5
74 4 0.442214 0.285333 0.5
29 2 0.875092 0.282966 0.5
70 4 0.934511 0.292484 0.5
55 3 0.969129 0.29506 0.5
73 4 0.95225 0.304608 0.5
44 3 0.0109388 0.410283 0.5
23 2 0.101082 0.375972 0.5
1 1 0.144269 0.418722 0.5
75 4 0.433473 0.385861 0.5
28 2 0.0285165 0.452773 0.5
48 3 0.99775 0.440314 0.5
40 2 0.575806 0.469997 0.5
8 1 0.1261 0.494111 0.5
51 3 0.153032 0.51167 0.5
9 1 0.438152 0.513723 0.5
58 3 0.485553 0.493315 0.5
49 3 0.87308 0.52346 0.5
67 4 0.0717168 0.547855 0.5
45 3 0.390544 0.571979 0.5
17 1 0.623932 0.544583 0.5
78 4 0.653955 0.537196 0.5
6 1 0.699574 0.564461 0.5
80 4 0.732446 0.528853 0.5
77 4 0.80114 0.539587 0.5
47 3 0.0511977 0.612462 0.5
30 2 0.168053 0.599122 0.5
11 1 0.552126 0.618848 0.5
15 1 0.645524 0.614075 0.5
57 3 0.822141 0.612527 0.5
16 1 0.861634 0.581975 0.5
19 1 0.92945 0.587226 0.5
12 1 0.977388 0.613657 0.5
14 1 0.118096 0.648686 0.5
31 2 0.984956 0.649944 0.5
38 2 0.282506 0.734247 0.5
21 2 0.622714 0.714809 0.5
20 1 0.654554 0.728215 0.5
64 4 0.897137 0.699763 0.5
59 3 0.237091 0.744107 0.5
65 4 0.322102 0.766836 0.5
50 3 0.731758 0.758801 0.5
41 3 0.771064 0.759347 0.5
10 1 0.875746 0.764783 0.5
35 2 0.865201 0.794377 0.5
63 4 0.101201 0.798762 0.5
72 4 0.128621 0.820729 0.5
25 2 0.211505 0.796328 0.5
54 3 0.256241 0.792222 0.5
43 3 0.965778 0.830544 0.5
61 4 0.360317 0.845861 0.5
60 3 0.584271 0.846126 0.5
39 2 0.795138 0.877611 0.5
18 1 0.134286 0.944794 0.5
56 3 0.509472 0.911981 0.5
69 4 0.487841 0.930878 0.5
42 3 0.575305 0.938 0.5
32 2 0.625929 0.937235 0.5
53 3 0.956978 0.934618 0.5
2 1 0.671965 0.97057 0.5
7 1 0.74571 0.992469 0.5
ITEM: TIMESTEP
60
ITEM: NUMBER OF ATOMS
80
ITEM: BOX BOUNDS pp pp pp
-6.7196407865604844e+00 6.7196407865604844e+00
-6.7196407865604844e+00 6.7196407865604844e+00
-1.0000000000000001e-01 1.0000000000000001e-01
ITEM: ATOMS id type xs ys zs
13 1 0.472307 0.0263704 0.5
79 4 0.512657 0.0465634 0.5
3 1 0.544908 0.0509777 0.5
46 3 0.675886 0.0192766 0.5
34 2 0.942403 0.0145817 0.5
68 4 0.153989 0.0992486 0.5
76 4 0.345278 0.0945332 0.5
52 3 0.613592 0.0639228 0.5
71 4 0.257996 0.138616 0.5
27 2 0.770656 0.146278 0.5
5 1 0.865519 0.127438 0.5
22 2 0.907663 0.138935 0.5
36 2 0.984721 0.148943 0.5
33 2 0.0437687 0.17743 0.5
24 2 0.086015 0.20573 0.5
66 4 0.0773495 0.157109 0.5
37 2 0.45155 0.208067 0.5
62 4 0.273413 0.248766 0.5
26 2 0.814409 0.243267 0.5
4 1 0.997004 0.234156 0.5
74 4 0.442214 0.285333 0.5
29 2 0.875355 0.283211 0.5
70 4 0.932144 0.291712 0.5
55 3 0.972065 0.294653 0.5
73 4 0.951595 0.306289 0.5
44 3 0.010942 0.406808 0.5
23 2 0.0998925 0.374765 0.5
1 1 0.145651 0.418908 0.5
75 4 0.433473 0.385861 0.5
28 2 0.0314422 0.455445 0.5
48 3 0.994814 0.441114 0.5
40 2 0.575696 0.46983 0.5
8 1 0.123511 0.493388 0.5
51 3 0.155482 0.513373 0.5
9 1 0.436765 0.514165 0.5
58 3 0.487143 0.492627 0.5
49 3 0.873229 0.522283 0.5
67 4 0.071671 0.5479 0.5
45 3 0.390341 0.572225 0.5
17 1 0.619783 0.543415 0.5
78 4 0.655485 0.535802 0.5
6 1 0.702323 0.565096 0.5
80 4 0.733257 0.528056 0.5
77 4 0.801044 0.53952 0.5
47 3 0.0513552 0.612259 0.5
30 2 0.168841 0.598345 0.5
11 1 0.551639 0.618971 0.5
15 1 0.645182 0.616817 0.5
57 3 0.82079 0.613561 0.5
16 1 0.861347 0.581967 0.5
19 1 0.928526 0.585748 0.5
12 1 0.978329 0.611831 0.5
14 1 0.117592 0.649614 0.5
31 2 0.986083 0.653518 0.5
38 2 0.283708 0.733172 0.5
21 2 0.619538 0.713487 0.5
20 1 0.65763 0.729523 0.5
64 4 0.897194 0.699588 0.5
59 3 0.235794 0.743124 0.5
65 4 0.322516 0.767161 0.5
50 3 0.730489 0.75882 0.5
41 3 0.77243 0.759366 0.5
10 1 0.87691 0.761527 0.5
35 2 0.863978 0.797808 0.5
63 4 0.100841 0.798473 0.5
72 4 0.128981 0.821018 0.5
25 2 0.209559 0.797172 0.5
54 3 0.257867 0.793111 0.5
43 3 0.965778 0.830544 0.5
61 4 0.360317 0.845861 0.5
60 3 0.584271 0.846126 0.5
39 2 0.795138 0.877611 0.5
18 1 0.134286 0.944794 0.5
56 3 0.510566 0.911011 0.5
69 4 0.486736 0.931843 0.5
42 3 0.574211 0.937999 0.5
32 2 0.625658 0.936223 0.5
53 3 0.956981 0.934604 0.5
2 1 0.67195 0.969259 0.5
7 1 0.747353 0.992648 0.5
ITEM: TIMESTEP
70
ITEM: NUMBER OF ATOMS
80
ITEM: BOX BOUNDS pp pp pp
-6.6161438014975831e+00 6.6161438014975831e+00
-6.6161438014975831e+00 6.6161438014975831e+00
-1.0000000000000001e-01 1.0000000000000001e-01
ITEM: ATOMS id type xs ys zs
13 1 0.467894 0.0246018 0.5
79 4 0.511242 0.0469863 0.5
3 1 0.550285 0.0522375 0.5
46 3 0.675515 0.0218973 0.5
34 2 0.942395 0.0146244 0.5
68 4 0.153989 0.0992486 0.5
76 4 0.345278 0.0945332 0.5
52 3 0.614042 0.0640087 0.5
71 4 0.257996 0.138616 0.5
27 2 0.770538 0.146301 0.5
5 1 0.861916 0.126403 0.5
22 2 0.911109 0.13991 0.5
36 2 0.984192 0.148098 0.5
33 2 0.0412914 0.176616 0.5
24 2 0.0887712 0.208549 0.5
66 4 0.078777 0.15458 0.5
37 2 0.45155 0.208067 0.5
62 4 0.273413 0.248766 0.5
26 2 0.813841 0.242895 0.5
4 1 0.996431 0.23486 0.5
74 4 0.442214 0.285333 0.5
29 2 0.875651 0.28354 0.5
70 4 0.929469 0.290793 0.5
55 3 0.975454 0.294305 0.5
73 4 0.950822 0.308301 0.5
44 3 0.0109647 0.402734 0.5
23 2 0.0984261 0.373288 0.5
1 1 0.1474 0.419029 0.5
75 4 0.433473 0.385861 0.5
28 2 0.0348369 0.458544 0.5
48 3 0.991336 0.442064 0.5
40 2 0.575503 0.469523 0.5
8 1 0.120474 0.492659 0.5
51 3 0.158394 0.515379 0.5
9 1 0.435143 0.514621 0.5
58 3 0.489075 0.491793 0.5
49 3 0.873377 0.520742 0.5
67 4 0.0715737 0.547999 0.5
45 3 0.390032 0.572603 0.5
17 1 0.614949 0.541977 0.5
78 4 0.657244 0.534134 0.5
6 1 0.705654 0.565936 0.5
80 4 0.734271 0.527023 0.5
77 4 0.800876 0.539402 0.5
47 3 0.0516081 0.611947 0.5
30 2 0.169839 0.597361 0.5
11 1 0.550873 0.619193 0.5
15 1 0.644884 0.620084 0.5
57 3 0.819128 0.614837 0.5
16 1 0.860953 0.582037 0.5
19 1 0.927503 0.583984 0.5
12 1 0.979452 0.609674 0.5
14 1 0.117017 0.650831 0.5
31 2 0.987381 0.657835 0.5
38 2 0.285151 0.731763 0.5
21 2 0.615774 0.711977 0.5
20 1 0.661163 0.731062 0.5
64 4 0.897299 0.699269 0.5
59 3 0.23421 0.741864 0.5
65 4 0.323069 0.767605 0.5
50 3 0.729054 0.758885 0.5
41 3 0.774084 0.759389 0.5
10 1 0.878246 0.757801 0.5
35 2 0.862537 0.801853 0.5
63 4 0.100378 0.798102 0.5
72 4 0.129444 0.821389 0.5
25 2 0.20719 0.798236 0.5
54 3 0.259825 0.794273 0.5
43 3 0.965778 0.830544 0.5
61 4 0.360317 0.845861 0.5
60 3 0.584271 0.846126 0.5
39 2 0.795138 0.877611 0.5
18 1 0.134286 0.944794 0.5
56 3 0.511842 0.909837 0.5
69 4 0.485415 0.932998 0.5
42 3 0.572863 0.938021 0.5
32 2 0.625323 0.934951 0.5
53 3 0.956989 0.934562 0.5
2 1 0.671931 0.967688 0.5
7 1 0.749471 0.992868 0.5
ITEM: TIMESTEP
80
ITEM: NUMBER OF ATOMS
80
ITEM: BOX BOUNDS pp pp pp
-6.5931744985542462e+00 6.5931744985542462e+00
-6.5931744985542462e+00 6.5931744985542462e+00
-1.0000000000000001e-01 1.0000000000000001e-01
ITEM: ATOMS id type xs ys zs
13 1 0.462942 0.0226045 0.5
79 4 0.509709 0.0474941 0.5
3 1 0.556085 0.0535978 0.5
46 3 0.675044 0.0249127 0.5
34 2 0.942381 0.0147049 0.5
68 4 0.153989 0.0992486 0.5
76 4 0.345278 0.0945332 0.5
52 3 0.614721 0.0641425 0.5
71 4 0.257996 0.138616 0.5
27 2 0.77031 0.146348 0.5
5 1 0.857962 0.125218 0.5
22 2 0.914842 0.140991 0.5
36 2 0.983589 0.147 0.5
33 2 0.0387051 0.17565 0.5
24 2 0.0919298 0.211693 0.5
66 4 0.0803967 0.151751 0.5
37 2 0.45155 0.208067 0.5
62 4 0.273413 0.248766 0.5
26 2 0.813122 0.242424 0.5
4 1 0.99571 0.235718 0.5
74 4 0.442214 0.285333 0.5
29 2 0.875947 0.283948 0.5
70 4 0.926629 0.289757 0.5
55 3 0.979167 0.294066 0.5
73 4 0.949953 0.310586 0.5
44 3 0.0110141 0.398221 0.5
23 2 0.0967173 0.371583 0.5
1 1 0.149496 0.41907 0.5
75 4 0.433473 0.385861 0.5
28 2 0.0385164 0.461923 0.5
48 3 0.987434 0.443128 0.5
40 2 0.575216 0.469047 0.5
8 1 0.11713 0.491976 0.5
51 3 0.161678 0.517595 0.5
9 1 0.433343 0.515057 0.5
58 3 0.491295 0.490837 0.5
49 3 0.873509 0.518852 0.5
67 4 0.0714153 0.548167 0.5
45 3 0.389611 0.573124 0.5
17 1 0.609631 0.540335 0.5
78 4 0.659169 0.532265 0.5
6 1 0.709441 0.566982 0.5
80 4 0.735462 0.525756 0.5
77 4 0.800631 0.53923 0.5
47 3 0.0519584 0.611525 0.5
30 2 0.171028 0.596217 0.5
11 1 0.549817 0.619527 0.5
15 1 0.644673 0.623695 0.5
57 3 0.817189 0.616329 0.5
16 1 0.860448 0.582199 0.5
19 1 0.92645 0.582007 0.5
12 1 0.980739 0.60725 0.5
14 1 0.116394 0.652317 0.5
31 2 0.988792 0.662757 0.5
38 2 0.286792 0.730044 0.5
21 2 0.611527 0.710362 0.5
20 1 0.664996 0.732785 0.5
64 4 0.89746 0.698778 0.5
59 3 0.23238 0.740368 0.5
65 4 0.323749 0.768168 0.5
50 3 0.727539 0.759013 0.5
41 3 0.775981 0.759415 0.5
10 1 0.8797 0.753763 0.5
35 2 0.860924 0.806382 0.5
63 4 0.0998213 0.797657 0.5
72 4 0.130001 0.821835 0.5
25 2 0.204468 0.799489 0.5
54 3 0.262056 0.795671 0.5
43 3 0.965778 0.830544 0.5
61 4 0.360317 0.845861 0.5
60 3 0.584271 0.846126 0.5
39 2 0.795137 0.877611 0.5
18 1 0.134286 0.944794 0.5
56 3 0.513242 0.908485 0.5
69 4 0.483917 0.934307 0.5
42 3 0.571305 0.938081 0.5
32 2 0.62492 0.933432 0.5
53 3 0.957003 0.934481 0.5
2 1 0.671932 0.965909 0.5
7 1 0.752007 0.99313 0.5
ITEM: TIMESTEP
90
ITEM: NUMBER OF ATOMS
80
ITEM: BOX BOUNDS pp pp pp
-6.6333967289175613e+00 6.6333967289175613e+00
-6.6333967289175613e+00 6.6333967289175613e+00
-1.0000000000000001e-01 1.0000000000000001e-01
ITEM: ATOMS id type xs ys zs
13 1 0.45765 0.020454 0.5
79 4 0.508113 0.048074 0.5
3 1 0.562028 0.0549925 0.5
46 3 0.674514 0.028213 0.5
34 2 0.942359 0.0148228 0.5
68 4 0.153989 0.0992486 0.5
76 4 0.345278 0.0945332 0.5
52 3 0.615637 0.0643373 0.5
71 4 0.257996 0.138616 0.5
27 2 0.769952 0.146426 0.5
5 1 0.853817 0.123912 0.5
22 2 0.918696 0.142145 0.5
36 2 0.982949 0.145671 0.5
33 2 0.036133 0.174565 0.5
24 2 0.0953618 0.21504 0.5
66 4 0.0821567 0.148738 0.5
37 2 0.45155 0.208067 0.5
62 4 0.273413 0.248766 0.5
26 2 0.812273 0.241868 0.5
4 1 0.994866 0.236679 0.5
74 4 0.442214 0.285333 0.5
29 2 0.876206 0.284423 0.5
70 4 0.923776 0.288637 0.5
55 3 0.983062 0.293979 0.5
73 4 0.949014 0.313068 0.5
44 3 0.0110947 0.39346 0.5
23 2 0.0948165 0.369705 0.5
1 1 0.151898 0.41903 0.5
75 4 0.433473 0.385861 0.5
28 2 0.0422776 0.465417 0.5
48 3 0.983255 0.444263 0.5
40 2 0.574845 0.468382 0.5
8 1 0.11363 0.491378 0.5
51 3 0.165225 0.519911 0.5
9 1 0.431429 0.515445 0.5
58 3 0.493729 0.48979 0.5
49 3 0.873617 0.516656 0.5
67 4 0.071194 0.548413 0.5
45 3 0.389086 0.573784 0.5
17 1 0.604063 0.538582 0.5
78 4 0.66119 0.53026 0.5
6 1 0.713522 0.568221 0.5
80 4 0.736789 0.524271 0.5
77 4 0.800312 0.539004 0.5
47 3 0.0523953 0.611009 0.5
30 2 0.172369 0.594977 0.5
11 1 0.548492 0.619968 0.5
15 1 0.644571 0.627479 0.5
57 3 0.815024 0.618 0.5
16 1 0.859827 0.582459 0.5
19 1 0.925436 0.579899 0.5
12 1 0.982164 0.604636 0.5
14 1 0.115752 0.654035 0.5
31 2 0.990253 0.668095 0.5
38 2 0.288573 0.728071 0.5
21 2 0.606927 0.708728 0.5
20 1 0.668964 0.734628 0.5
64 4 0.897682 0.698097 0.5
59 3 0.230365 0.738705 0.5
65 4 0.324535 0.76884 0.5
50 3 0.726036 0.759221 0.5
41 3 0.778058 0.759442 0.5
10 1 0.88121 0.74958 0.5
35 2 0.859199 0.811237 0.5
63 4 0.09919 0.797151 0.5
72 4 0.130632 0.82234 0.5
25 2 0.201491 0.800886 0.5
54 3 0.264481 0.797237 0.5
43 3 0.965778 0.830544 0.5
61 4 0.360317 0.845861 0.5
60 3 0.584271 0.846126 0.5
39 2 0.795129 0.87762 0.5
18 1 0.134286 0.944794 0.5
56 3 0.514703 0.906989 0.5
69 4 0.482294 0.935726 0.5
42 3 0.569589 0.938193 0.5
32 2 0.624449 0.931692 0.5
53 3 0.957025 0.934363 0.5
2 1 0.671977 0.963992 0.5
7 1 0.754869 0.993431 0.5
ITEM: TIMESTEP
100
ITEM: NUMBER OF ATOMS
80
ITEM: BOX BOUNDS pp pp pp
-6.7075257730876396e+00 6.7075257730876396e+00
-6.7075257730876396e+00 6.7075257730876396e+00
-1.0000000000000001e-01 1.0000000000000001e-01
ITEM: ATOMS id type xs ys zs
13 1 0.452212 0.018225 0.5
79 4 0.506502 0.0487103 0.5
3 1 0.567857 0.0563617 0.5
46 3 0.673975 0.0316876 0.5
34 2 0.942332 0.0149711 0.5
68 4 0.153989 0.0992486 0.5
76 4 0.345278 0.0945332 0.5
52 3 0.616792 0.0646016 0.5
71 4 0.257996 0.138616 0.5
27 2 0.769453 0.146543 0.5
5 1 0.84962 0.122513 0.5
22 2 0.922527 0.143342 0.5
36 2 0.98231 0.144139 0.5
33 2 0.0336807 0.1734 0.5
24 2 0.0989313 0.218468 0.5
66 4 0.0840084 0.145653 0.5
37 2 0.45155 0.208067 0.5
62 4 0.273413 0.248766 0.5
26 2 0.811319 0.241241 0.5
4 1 0.993933 0.237684 0.5
74 4 0.442214 0.285333 0.5
29 2 0.876394 0.284952 0.5
70 4 0.921045 0.287468 0.5
55 3 0.987012 0.294076 0.5
73 4 0.94803 0.31567 0.5
44 3 0.0112072 0.38863 0.5
23 2 0.0927776 0.367711 0.5
1 1 0.154552 0.418908 0.5
75 4 0.433473 0.385861 0.5
28 2 0.0459328 0.468877 0.5
48 3 0.978942 0.445427 0.5
40 2 0.574412 0.467515 0.5
8 1 0.110115 0.490887 0.5
51 3 0.168932 0.522238 0.5
9 1 0.429461 0.515762 0.5
58 3 0.496292 0.488689 0.5
49 3 0.873697 0.514212 0.5
67 4 0.0709137 0.54874 0.5
45 3 0.388468 0.574574 0.5
17 1 0.598461 0.53682 0.5
78 4 0.663247 0.528175 0.5
6 1 0.717733 0.569628 0.5
80 4 0.73821 0.522591 0.5
77 4 0.799928 0.53873 0.5
47 3 0.0529015 0.610428 0.5
30 2 0.173823 0.593701 0.5
11 1 0.546932 0.620495 0.5
15 1 0.644586 0.631287 0.5
57 3 0.81268 0.619813 0.5
16 1 0.859091 0.582812 0.5
19 1 0.924511 0.577733 0.5
12 1 0.983704 0.601906 0.5
14 1 0.115113 0.655937 0.5
31 2 0.99172 0.673657 0.5
38 2 0.290442 0.725908 0.5
21 2 0.602101 0.707152 0.5
20 1 0.672915 0.736522 0.5
64 4 0.897968 0.697218 0.5
59 3 0.228228 0.73695 0.5
65 4 0.3254 0.769608 0.5
50 3 0.724626 0.759521 0.5
41 3 0.780256 0.759469 0.5
10 1 0.882727 0.745404 0.5
35 2 0.857433 0.816255 0.5
63 4 0.0985042 0.796601 0.5
72 4 0.131308 0.822893 0.5
25 2 0.198366 0.802376 0.5
54 3 0.267018 0.798896 0.5
43 3 0.965778 0.830544 0.5
61 4 0.360317 0.845861 0.5
60 3 0.584271 0.846126 0.5
39 2 0.795094 0.877657 0.5
18 1 0.134286 0.944794 0.5
56 3 0.516171 0.905386 0.5
69 4 0.480596 0.937213 0.5
42 3 0.567764 0.93837 0.5
32 2 0.623908 0.929761 0.5
53 3 0.957052 0.934215 0.5
2 1 0.672095 0.962004 0.5
7 1 0.757953 0.993774 0.5
ITEM: TIMESTEP
110
ITEM: NUMBER OF ATOMS
80
ITEM: BOX BOUNDS pp pp pp
-6.7791969654264745e+00 6.7791969654264745e+00
-6.7791969654264745e+00 6.7791969654264745e+00
-1.0000000000000001e-01 1.0000000000000001e-01
ITEM: ATOMS id type xs ys zs
13 1 0.446751 0.0159674 0.5
79 4 0.504906 0.0493899 0.5
3 1 0.573406 0.057669 0.5
46 3 0.673475 0.0352519 0.5
34 2 0.942301 0.0151403 0.5
68 4 0.153989 0.0992486 0.5
76 4 0.345278 0.0945332 0.5
52 3 0.618186 0.0649423 0.5
71 4 0.257996 0.138616 0.5
27 2 0.768806 0.146705 0.5
5 1 0.845466 0.121038 0.5
22 2 0.926228 0.144569 0.5
36 2 0.981703 0.142424 0.5
33 2 0.0314235 0.172189 0.5
24 2 0.102531 0.221893 0.5
66 4 0.0859176 0.142573 0.5
37 2 0.45155 0.208067 0.5
62 4 0.273413 0.248766 0.5
26 2 0.810284 0.240559 0.5
4 1 0.992939 0.238678 0.5
74 4 0.442214 0.285333 0.5
29 2 0.876479 0.285529 0.5
70 4 0.918514 0.286273 0.5
55 3 0.990952 0.29438 0.5
73 4 0.947019 0.31834 0.5
44 3 0.0113353 0.383853 0.5
23 2 0.0906496 0.365638 0.5
1 1 0.157415 0.418709 0.5
75 4 0.433473 0.385861 0.5
28 2 0.0493432 0.472208 0.5
48 3 0.974602 0.446585 0.5
40 2 0.573943 0.466438 0.5
8 1 0.106695 0.490511 0.5
51 3 0.172729 0.524513 0.5
9 1 0.42748 0.515995 0.5
58 3 0.498922 0.487557 0.5
49 3 0.873746 0.511562 0.5
67 4 0.0705794 0.549148 0.5
45 3 0.387765 0.575487 0.5
17 1 0.592957 0.535131 0.5
78 4 0.665302 0.526048 0.5
6 1 0.721973 0.571184 0.5
80 4 0.739691 0.520736 0.5
77 4 0.799487 0.538415 0.5
47 3 0.0534714 0.609802 0.5
30 2 0.175354 0.592438 0.5
11 1 0.545172 0.621085 0.5
15 1 0.644714 0.635021 0.5
57 3 0.81019 0.621744 0.5
16 1 0.858235 0.583252 0.5
19 1 0.923689 0.575529 0.5
12 1 0.985347 0.599116 0.5
14 1 0.114491 0.657987 0.5
31 2 0.993181 0.679336 0.5
38 2 0.292359 0.72361 0.5
21 2 0.597138 0.705685 0.5
20 1 0.676742 0.738411 0.5
64 4 0.898319 0.696131 0.5
59 3 0.226021 0.735165 0.5
65 4 0.326325 0.770456 0.5
50 3 0.723369 0.759926 0.5
41 3 0.782533 0.759496 0.5
10 1 0.884211 0.741341 0.5
35 2 0.855677 0.821325 0.5
63 4 0.0977803 0.796021 0.5
72 4 0.131994 0.823484 0.5
25 2 0.195186 0.803914 0.5
54 3 0.2696 0.800581 0.5
43 3 0.965778 0.830544 0.5
61 4 0.360317 0.845861 0.5
60 3 0.584271 0.846126 0.5
39 2 0.795013 0.877738 0.5
18 1 0.134286 0.944794 0.5
56 3 0.517608 0.9037 0.5
69 4 0.478857 0.938736 0.5
42 3 0.565863 0.938621 0.5
32 2 0.62329 0.927655 0.5
53 3 0.957083 0.934046 0.5
2 1 0.672312 0.960001 0.5
7 1 0.761172 0.99416 0.5
ITEM: TIMESTEP
120
ITEM: NUMBER OF ATOMS
80
ITEM: BOX BOUNDS pp pp pp
-6.8193732965885676e+00 6.8193732965885676e+00
-6.8193732965885676e+00 6.8193732965885676e+00
-1.0000000000000001e-01 1.0000000000000001e-01
ITEM: ATOMS id type xs ys zs
13 1 0.441277 0.0136966 0.5
79 4 0.503335 0.0501049 0.5
3 1 0.578624 0.0589111 0.5
46 3 0.673048 0.0388604 0.5
34 2 0.942268 0.0153227 0.5
68 4 0.153989 0.0992486 0.5
76 4 0.345278 0.0945332 0.5
52 3 0.61983 0.0653677 0.5
71 4 0.257996 0.138616 0.5
27 2 0.768003 0.146921 0.5
5 1 0.841405 0.119488 0.5
22 2 0.92974 0.145829 0.5
36 2 0.981152 0.140527 0.5
33 2 0.0294095 0.170957 0.5
24 2 0.106119 0.225294 0.5
66 4 0.0878639 0.139509 0.5
37 2 0.45155 0.208067 0.5
62 4 0.273413 0.248766 0.5
26 2 0.809176 0.239828 0.5
4 1 0.991876 0.239628 0.5
74 4 0.442214 0.285333 0.5
29 2 0.876436 0.286153 0.5
70 4 0.916204 0.285057 0.5
55 3 0.994889 0.29491 0.5
73 4 0.945989 0.321049 0.5
44 3 0.0114447 0.379153 0.5
23 2 0.0884665 0.363505 0.5
1 1 0.160462 0.418437 0.5
75 4 0.433473 0.385861 0.5
28 2 0.0524276 0.475398 0.5
48 3 0.970294 0.447721 0.5
40 2 0.573463 0.465131 0.5
8 1 0.103446 0.490245 0.5
51 3 0.176587 0.526701 0.5
9 1 0.425506 0.516134 0.5
58 3 0.501581 0.48641 0.5
49 3 0.873765 0.50873 0.5
67 4 0.0701938 0.549641 0.5
45 3 0.386983 0.576522 0.5