ITEM: TIMESTEP
500
ITEM: NUMBER OF ATOMS
56
ITEM: BOX BOUNDS pp pp pp
-4.8077620949440165e+00 4.8077620949440165e+00
-4.8096293657595464e+00 4.8096293657595464e+00
-1.0000000000000001e-01 1.0000000000000001e-01
ITEM: ATOMS id type xs ys zs
25 1 0.186023 0.999705 0.499232
3 1 0.327939 0.0309931 0.499922
67 1 0.434391 0.0293458 0.500285
58 1 0.465085 0.102595 0.501151
32 1 0.570399 0.087072 0.502682
80 1 0.498445 0.0276661 0.501564
18 1 0.715845 0.0849462 0.499107
34 1 0.367754 0.156221 0.501006
55 1 0.480819 0.188594 0.50087
30 1 0.623851 0.182691 0.498735
33 1 0.814229 0.167702 0.500056
11 1 0.0680223 0.369777 0.499899
37 1 0.173238 0.265799 0.500359
29 1 0.293493 0.246476 0.500316
39 1 0.409921 0.272756 0.499593
8 1 0.543049 0.292504 0.499682
44 1 0.760653 0.272692 0.500197
69 1 0.841121 0.250685 0.50066
35 1 0.181411 0.462396 0.498677
54 1 0.241885 0.352287 0.498914
65 1 0.345267 0.4183 0.50226
42 1 0.41311 0.37398 0.499716
12 1 0.700693 0.373504 0.500092
16 1 0.863444 0.367637 0.499864
6 1 0.975456 0.499608 0.499415
40 1 0.0957564 0.559954 0.49931
49 1 0.270559 0.432058 0.502842
77 1 0.327458 0.495186 0.500129
27 1 0.425678 0.478533 0.500593
17 1 0.562556 0.443272 0.501047
53 1 0.622434 0.562983 0.500341
15 1 0.810552 0.504387 0.499477
2 1 0.224524 0.608496 0.497942
21 1 0.363725 0.586867 0.499611
14 1 0.502178 0.587744 0.500397
79 1 0.698777 0.580955 0.50021
26 1 0.775898 0.638507 0.49951
23 1 0.895665 0.612518 0.502554
28 1 0.0922946 0.676752 0.498696
10 1 0.183481 0.777109 0.498363
24 1 0.301784 0.706288 0.499881
59 1 0.404919 0.6871 0.499226
13 1 0.511057 0.748558 0.500382
7 1 0.654853 0.674995 0.501455
68 1 0.762237 0.716507 0.500713
5 1 0.100816 0.906605 0.501809
72 1 0.204991 0.877535 0.501698
57 1 0.316856 0.805375 0.500546
43 1 0.404164 0.787597 0.500058
41 1 0.643 0.808835 0.499976
1 1 0.767195 0.818233 0.499593
22 1 0.275717 0.901257 0.499398
9 1 0.422273 0.909419 0.501821
48 1 0.529166 0.960003 0.499082
52 1 0.543266 0.858572 0.498836
4 1 0.661264 0.930777 0.499967
ITEM: TIMESTEP
750
ITEM: NUMBER OF ATOMS
56
ITEM: BOX BOUNDS pp pp pp
-4.8065599067695173e+00 4.8065599067695173e+00
-4.8109928332938763e+00 4.8109928332938763e+00
-1.0000000000000001e-01 1.0000000000000001e-01
ITEM: ATOMS id type xs ys zs
25 1 0.187222 1.0001 0.497672
3 1 0.328812 0.0312616 0.49955
67 1 0.434593 0.0289838 0.501786
58 1 0.464911 0.102334 0.502103
32 1 0.570577 0.08726 0.502179
80 1 0.498837 0.0277393 0.498242
18 1 0.716691 0.0846122 0.497446
34 1 0.367949 0.156667 0.502605
55 1 0.480204 0.188557 0.499862
30 1 0.624433 0.1825 0.50052
33 1 0.813603 0.168963 0.50095
11 1 0.0674116 0.369569 0.499409
37 1 0.173185 0.266055 0.498471
29 1 0.29341 0.246074 0.501624
39 1 0.409705 0.273708 0.500496
8 1 0.543197 0.29226 0.49941
44 1 0.759891 0.273459 0.498527
69 1 0.840687 0.251808 0.498153
35 1 0.180308 0.462638 0.497613
54 1 0.242511 0.352024 0.499223
65 1 0.344618 0.419361 0.503192
42 1 0.412024 0.374483 0.501152
12 1 0.700092 0.374729 0.499581
16 1 0.863965 0.36868 0.500067
6 1 0.975388 0.499681 0.497573
40 1 0.0956478 0.560468 0.498106
49 1 0.269001 0.43206 0.501008
77 1 0.326494 0.495439 0.498796
27 1 0.425408 0.479094 0.502839
17 1 0.561654 0.442658 0.502139
53 1 0.622073 0.562312 0.501786
15 1 0.810218 0.504862 0.499372
2 1 0.225057 0.608646 0.498753
21 1 0.363938 0.587035 0.502062
14 1 0.502054 0.587858 0.498869
79 1 0.699105 0.581753 0.502628
26 1 0.776238 0.638791 0.500439
23 1 0.895838 0.612691 0.503289
28 1 0.0934897 0.676571 0.497587
10 1 0.1841 0.776742 0.498673
24 1 0.303159 0.706766 0.498519
59 1 0.406652 0.685803 0.499684
13 1 0.511391 0.74861 0.50098
7 1 0.654148 0.674807 0.502392
68 1 0.762307 0.716733 0.502226
5 1 0.101724 0.906548 0.50179
72 1 0.205844 0.8768 0.501485
57 1 0.31734 0.806636 0.500636
43 1 0.404384 0.786839 0.500878
41 1 0.644758 0.809284 0.500707
1 1 0.769402 0.818852 0.498267
22 1 0.275894 0.901074 0.49985
9 1 0.422507 0.908984 0.502897
48 1 0.528688 0.959959 0.500238
52 1 0.543656 0.858468 0.498122
4 1 0.661971 0.931048 0.499562
ITEM: TIMESTEP
1000
ITEM: NUMBER OF ATOMS
56
ITEM: BOX BOUNDS pp pp pp
-4.8053577185950171e+00 4.8053577185950171e+00
-4.8120801597693497e+00 4.8120801597693497e+00
-1.0000000000000001e-01 1.0000000000000001e-01
ITEM: ATOMS id type xs ys zs
25 1 0.186835 0.999814 0.499903
3 1 0.32909 0.0309905 0.499057
67 1 0.435383 0.0303029 0.501274
58 1 0.466168 0.103109 0.501847
32 1 0.571654 0.0877278 0.502169
80 1 0.499695 0.0278522 0.498114
18 1 0.717406 0.0832767 0.495147
34 1 0.368353 0.156352 0.50352
55 1 0.480524 0.189392 0.499516
30 1 0.626248 0.182733 0.49979
33 1 0.813262 0.169136 0.500179
11 1 0.0674467 0.36901 0.498049
37 1 0.174384 0.267058 0.499705
29 1 0.294252 0.246136 0.500878
39 1 0.409616 0.273425 0.49996
8 1 0.544095 0.292039 0.500059
44 1 0.760141 0.274211 0.496697
69 1 0.840242 0.251652 0.497837
35 1 0.180701 0.462706 0.497195
54 1 0.244068 0.352557 0.501103
65 1 0.34496 0.420256 0.503891
42 1 0.411283 0.37457 0.500435
12 1 0.699449 0.375328 0.499856
16 1 0.863149 0.36845 0.499566
6 1 0.975256 0.499843 0.497439
40 1 0.0959141 0.560465 0.498821
49 1 0.269403 0.43268 0.501532
77 1 0.326915 0.495404 0.49989
27 1 0.425696 0.479364 0.5031
17 1 0.561807 0.442866 0.500704
53 1 0.622173 0.562401 0.50095
15 1 0.81044 0.505344 0.501294
2 1 0.224768 0.60887 0.499667
21 1 0.363783 0.586947 0.501322
14 1 0.501797 0.588418 0.500238
79 1 0.69879 0.580738 0.503029
26 1 0.776147 0.638466 0.499094
23 1 0.89639 0.613092 0.503795
28 1 0.0919668 0.676651 0.496227
10 1 0.184072 0.775938 0.498635
24 1 0.302689 0.706232 0.499189
59 1 0.406197 0.686387 0.50151
13 1 0.511665 0.749 0.502017
7 1 0.6547 0.674822 0.504772
68 1 0.762465 0.716424 0.501499
5 1 0.101543 0.905341 0.501995
72 1 0.20535 0.876021 0.501152
57 1 0.317083 0.805792 0.498042
43 1 0.404428 0.787233 0.501265
41 1 0.646796 0.808519 0.502803
1 1 0.770891 0.818321 0.498516
22 1 0.275692 0.900921 0.49872
9 1 0.423363 0.908944 0.502414
48 1 0.529502 0.960415 0.499448
52 1 0.544746 0.859002 0.498282
4 1 0.662697 0.929908 0.500164
ITEM: TIMESTEP
1250
ITEM: NUMBER OF ATOMS
56
ITEM: BOX BOUNDS pp pp pp
-4.8041555304205170e+00 4.8041555304205170e+00
-4.8163268986951726e+00 4.8163268986951726e+00
-1.0000000000000001e-01 1.0000000000000001e-01
ITEM: ATOMS id type xs ys zs
25 1 0.187699 1.0007 0.499749
3 1 0.329734 0.0311572 0.498133
67 1 0.436382 0.0298016 0.50076
58 1 0.466757 0.102576 0.501487
32 1 0.57163 0.0884019 0.502185
80 1 0.500534 0.0280838 0.497772
18 1 0.717559 0.0834884 0.496027
34 1 0.368953 0.155711 0.501998
55 1 0.481531 0.188641 0.499246
30 1 0.626376 0.182972 0.499721
33 1 0.813138 0.169283 0.499446
11 1 0.0682769 0.369913 0.496013
37 1 0.174662 0.26652 0.499803
29 1 0.294793 0.24553 0.501596
39 1 0.410412 0.272888 0.497296
8 1 0.54411 0.291913 0.50164
44 1 0.76052 0.273886 0.49864
69 1 0.840602 0.252138 0.498506
35 1 0.180822 0.464158 0.496897
54 1 0.244909 0.352076 0.500818
65 1 0.344575 0.419093 0.505116
42 1 0.411746 0.374053 0.498097
12 1 0.699389 0.374224 0.501055
16 1 0.86314 0.368976 0.499882
6 1 0.97502 0.500343 0.49721
40 1 0.096064 0.561196 0.499736
49 1 0.268939 0.43278 0.502762
77 1 0.325934 0.49597 0.499502
27 1 0.424557 0.478731 0.502907
17 1 0.561429 0.442712 0.501268
53 1 0.622492 0.562153 0.499775
15 1 0.809346 0.504705 0.501649
2 1 0.224852 0.608532 0.5003
21 1 0.363903 0.586797 0.502474
14 1 0.502326 0.587754 0.500241
79 1 0.699364 0.580353 0.503934
26 1 0.776182 0.638017 0.500104
23 1 0.896149 0.613652 0.504468
28 1 0.0919633 0.676485 0.494819
10 1 0.184414 0.776036 0.499524
24 1 0.302822 0.706263 0.497077
59 1 0.406198 0.686136 0.499929
13 1 0.512258 0.747886 0.502584
7 1 0.655028 0.673771 0.505129
68 1 0.762985 0.716045 0.50033
5 1 0.103212 0.906852 0.50279
72 1 0.206663 0.875397 0.501863
57 1 0.317347 0.80589 0.496855
43 1 0.404657 0.786874 0.501818
41 1 0.646 0.807844 0.502684
1 1 0.770823 0.81829 0.498312
22 1 0.275801 0.901599 0.498774
9 1 0.422707 0.90845 0.502419
48 1 0.528511 0.959901 0.498763
52 1 0.543265 0.858487 0.496788
4 1 0.663001 0.930079 0.501659
ITEM: TIMESTEP
1500
ITEM: NUMBER OF ATOMS
56
ITEM: BOX BOUNDS pp pp pp
-4.8029533422460169e+00 4.8029533422460169e+00
-4.8166033049960211e+00 4.8166033049960211e+00
-1.0000000000000001e-01 1.0000000000000001e-01
ITEM: ATOMS id type xs ys zs
25 1 0.187158 0.999636 0.499368
3 1 0.328766 0.0310536 0.498353
67 1 0.435686 0.0291285 0.50087
58 1 0.466519 0.101979 0.498055
32 1 0.571977 0.0874868 0.501368
80 1 0.500021 0.0271724 0.496794
18 1 0.717642 0.084086 0.495689
34 1 0.368943 0.156368 0.502775
55 1 0.481711 0.188154 0.500373
30 1 0.626062 0.182523 0.500496
33 1 0.813838 0.169119 0.499448
11 1 0.0683012 0.36964 0.497233
37 1 0.174495 0.266866 0.498535
29 1 0.294454 0.246222 0.501714
39 1 0.410871 0.273096 0.497754
8 1 0.544415 0.291922 0.502716
44 1 0.760275 0.273617 0.499425
69 1 0.840987 0.252123 0.499288
35 1 0.18012 0.465003 0.496326
54 1 0.244257 0.352485 0.500386
65 1 0.343633 0.419978 0.503972
42 1 0.410801 0.374508 0.497625
12 1 0.700376 0.373854 0.5012
16 1 0.863621 0.369032 0.499778
6 1 0.975302 0.500058 0.498311
40 1 0.0951033 0.561481 0.498546
49 1 0.268394 0.433295 0.503155
77 1 0.326256 0.495408 0.500353
27 1 0.42499 0.47825 0.503111
17 1 0.562071 0.442208 0.500208
53 1 0.621904 0.561334 0.499942
15 1 0.811353 0.505153 0.501695
2 1 0.224185 0.609888 0.501509
21 1 0.363288 0.586742 0.500885
14 1 0.50146 0.586843 0.498814
79 1 0.698648 0.580255 0.504538
26 1 0.775916 0.638125 0.501479
23 1 0.896621 0.61318 0.504483
28 1 0.0911821 0.677411 0.49427
10 1 0.183988 0.776664 0.498979
24 1 0.302701 0.70683 0.498572
59 1 0.405444 0.685921 0.498788
13 1 0.511566 0.747592 0.502591
7 1 0.654411 0.673318 0.50516
68 1 0.762039 0.716379 0.500685
5 1 0.100843 0.905978 0.504216
72 1 0.205374 0.877171 0.503648
57 1 0.316436 0.806146 0.496874
43 1 0.404256 0.786893 0.502851
41 1 0.646853 0.807333 0.5044
1 1 0.771241 0.817687 0.500039
22 1 0.275664 0.901274 0.499484
9 1 0.422397 0.908336 0.499091
48 1 0.528512 0.95881 0.49988
52 1 0.543143 0.857431 0.494328
4 1 0.664459 0.929616 0.503228
ITEM: TIMESTEP
1750
ITEM: NUMBER OF ATOMS
56
ITEM: BOX BOUNDS pp pp pp
-4.8017511540715168e+00 4.8017511540715168e+00
-4.8146387555926999e+00 4.8146387555926999e+00
-1.0000000000000001e-01 1.0000000000000001e-01
ITEM: ATOMS id type xs ys zs
25 1 0.186053 0.999586 0.49831
3 1 0.327621 0.0313775 0.498872
67 1 0.434722 0.0293978 0.502291
58 1 0.465786 0.102163 0.497162
32 1 0.571608 0.0865947 0.500388
80 1 0.499257 0.027333 0.49627
18 1 0.717826 0.0843791 0.498486
34 1 0.367856 0.155536 0.503012
55 1 0.48055 0.188542 0.499592
30 1 0.625186 0.182071 0.501113
33 1 0.814197 0.169822 0.498597
11 1 0.0686909 0.370057 0.498365
37 1 0.173494 0.265761 0.499173
29 1 0.293896 0.245872 0.501141
39 1 0.410071 0.272852 0.499228
8 1 0.543104 0.292002 0.503217
44 1 0.760112 0.274057 0.4998
69 1 0.840887 0.252755 0.499258
35 1 0.180394 0.464775 0.497014
54 1 0.243809 0.351744 0.500227
65 1 0.343808 0.420478 0.503797
42 1 0.410235 0.374191 0.499338
12 1 0.700172 0.375534 0.50242
16 1 0.863769 0.369556 0.501277
6 1 0.974709 0.499575 0.499039
40 1 0.0949709 0.561175 0.499176
49 1 0.268552 0.433146 0.503791
77 1 0.326668 0.495169 0.501167
27 1 0.425192 0.479369 0.504438
17 1 0.56119 0.4427 0.500315
53 1 0.621651 0.56182 0.499104
15 1 0.810107 0.504332 0.499971
2 1 0.224141 0.608971 0.501579
21 1 0.363251 0.58644 0.50267
14 1 0.50175 0.587782 0.499521
79 1 0.698554 0.580088 0.505403
26 1 0.775177 0.637438 0.501572
23 1 0.895559 0.61272 0.505253
28 1 0.0917287 0.677259 0.494122
10 1 0.184586 0.77601 0.49877
24 1 0.301875 0.706438 0.499107
59 1 0.405255 0.685618 0.498476
13 1 0.510219 0.748521 0.502574
7 1 0.653269 0.673585 0.505795
68 1 0.761865 0.71502 0.502011
5 1 0.100904 0.90571 0.505907
72 1 0.205528 0.876167 0.505938
57 1 0.316075 0.805873 0.498864
43 1 0.403202 0.786948 0.503697
41 1 0.647509 0.807571 0.505613
1 1 0.772264 0.81597 0.501605
22 1 0.275505 0.901407 0.499954
9 1 0.422435 0.909108 0.497605
48 1 0.52898 0.959706 0.500385
52 1 0.543922 0.858328 0.49369
4 1 0.667256 0.929345 0.501086
ITEM: TIMESTEP
2000
ITEM: NUMBER OF ATOMS
56
ITEM: BOX BOUNDS pp pp pp
-4.8005489658970175e+00 4.8005489658970175e+00
-4.8152840245696726e+00 4.8152840245696726e+00
-1.0000000000000001e-01 1.0000000000000001e-01
ITEM: ATOMS id type xs ys zs
25 1 0.18655 0.999371 0.499404
3 1 0.328295 0.0310211 0.498693
67 1 0.435141 0.0292959 0.50438
58 1 0.465947 0.1018 0.496955
32 1 0.57077 0.0875323 0.501938
80 1 0.499802 0.0268889 0.495495
18 1 0.716861 0.0845709 0.49937
34 1 0.368929 0.156115 0.505727
55 1 0.482087 0.187925 0.499207
30 1 0.624761 0.182588 0.50075
33 1 0.813243 0.169542 0.497232
11 1 0.0696695 0.369624 0.498046
37 1 0.175036 0.265307 0.498927
29 1 0.295382 0.24715 0.501773
39 1 0.411276 0.273464 0.49918
8 1 0.544081 0.292053 0.502775
44 1 0.761114 0.274473 0.498408
69 1 0.841272 0.252288 0.499045
35 1 0.180871 0.464944 0.497761
54 1 0.242917 0.3524 0.501122
65 1 0.344224 0.420281 0.504874
42 1 0.410398 0.374212 0.499672
12 1 0.700356 0.3755 0.500668
16 1 0.864206 0.368648 0.500711
6 1 0.974703 0.498437 0.499438
40 1 0.0944567 0.560555 0.498877
49 1 0.268714 0.433154 0.503043
77 1 0.325438 0.49676 0.501701
27 1 0.424619 0.478843 0.504876
17 1 0.561252 0.443088 0.499931
53 1 0.621697 0.562195 0.500544
15 1 0.81015 0.50419 0.500351
2 1 0.224204 0.608807 0.500588
21 1 0.36347 0.5877 0.503088
14 1 0.502008 0.587663 0.496733
79 1 0.698506 0.58025 0.50534
26 1 0.775597 0.637705 0.500159
23 1 0.896102 0.61252 0.503453
28 1 0.0914911 0.677165 0.493788
10 1 0.182512 0.776379 0.499005
24 1 0.301521 0.706772 0.498822
59 1 0.405438 0.686894 0.497959
13 1 0.510307 0.748254 0.503193
7 1 0.653428 0.673697 0.506365
68 1 0.761571 0.715614 0.501213
5 1 0.101153 0.907005 0.505564
72 1 0.205039 0.876649 0.505981
57 1 0.315757 0.805431 0.497051
43 1 0.403739 0.787731 0.503612
41 1 0.64885 0.808318 0.503817
1 1 0.773666 0.816995 0.499556
22 1 0.275113 0.901101 0.499966
9 1 0.422108 0.908652 0.496472
48 1 0.529462 0.959098 0.501718
52 1 0.542987 0.857604 0.492769
4 1 0.666934 0.929663 0.500555
ITEM: TIMESTEP
2250
ITEM: NUMBER OF ATOMS
56
ITEM: BOX BOUNDS pp pp pp
-4.7993467777225174e+00 4.7993467777225174e+00
-4.8141788608941489e+00 4.8141788608941489e+00
-1.0000000000000001e-01 1.0000000000000001e-01
ITEM: ATOMS id type xs ys zs
25 1 0.186606 0.999962 0.499401
3 1 0.328388 0.0312175 0.49848
67 1 0.434922 0.0299328 0.502419
58 1 0.466551 0.102597 0.495266
32 1 0.571885 0.0860818 0.502081
80 1 0.499246 0.0273257 0.495431
18 1 0.717326 0.0857852 0.500406
34 1 0.368613 0.15587 0.506891
55 1 0.480956 0.188877 0.499675
30 1 0.62315 0.182456 0.500626
33 1 0.814628 0.169647 0.496739
11 1 0.069072 0.368553 0.495753
37 1 0.17458 0.265551 0.499349
29 1 0.294085 0.245192 0.503014
39 1 0.409739 0.273537 0.501409
8 1 0.543432 0.292614 0.500832
44 1 0.760758 0.274284 0.498678
69 1 0.841163 0.252109 0.499229
35 1 0.179975 0.465858 0.497948
54 1 0.243519 0.35192 0.500517
65 1 0.343126 0.42041 0.502869
42 1 0.410024 0.374836 0.498221
12 1 0.700181 0.375394 0.502372
16 1 0.864222 0.368787 0.499827
6 1 0.974575 0.497768 0.501344
40 1 0.0934644 0.561565 0.498901
49 1 0.267702 0.433019 0.503121
77 1 0.325927 0.495354 0.50257
27 1 0.424326 0.478913 0.507199
17 1 0.561342 0.442527 0.498566
53 1 0.621353 0.561884 0.499562
15 1 0.809975 0.503695 0.499807
2 1 0.223085 0.60818 0.498636
21 1 0.362484 0.587149 0.502061
14 1 0.501697 0.587392 0.495639
79 1 0.698039 0.580137 0.50511
26 1 0.775546 0.637418 0.500119
23 1 0.895928 0.610883 0.504883
28 1 0.0911589 0.67775 0.496117
10 1 0.182954 0.777673 0.499068
24 1 0.300898 0.706403 0.498881
59 1 0.4048 0.686456 0.497868
13 1 0.511084 0.748671 0.50269
7 1 0.653931 0.673824 0.506867
68 1 0.762179 0.715543 0.5004
5 1 0.10095 0.907491 0.505963
72 1 0.204976 0.877562 0.506864
57 1 0.315968 0.806002 0.498806
43 1 0.403825 0.788138 0.501225
41 1 0.649567 0.808475 0.502887
1 1 0.773782 0.817613 0.497814
22 1 0.275503 0.901695 0.500389
9 1 0.423162 0.91 0.494987
48 1 0.529862 0.960088 0.501566
52 1 0.543992 0.858569 0.493486
4 1 0.667065 0.930265 0.500084
ITEM: TIMESTEP
2500
ITEM: NUMBER OF ATOMS
56
ITEM: BOX BOUNDS pp pp pp
-4.7981445895480173e+00 4.7981445895480173e+00
-4.8146328750156213e+00 4.8146328750156213e+00
-1.0000000000000001e-01 1.0000000000000001e-01
ITEM: ATOMS id type xs ys zs
25 1 0.18632 0.999731 0.501306
3 1 0.328489 0.0310829 0.49837
67 1 0.435046 0.0290754 0.501122
58 1 0.465435 0.101919 0.495739
32 1 0.571502 0.0868712 0.501423
80 1 0.499482 0.0274996 0.493444
18 1 0.718077 0.0850122 0.499408
34 1 0.367895 0.155752 0.507055
55 1 0.480279 0.188143 0.501137
30 1 0.625213 0.181849 0.501456
33 1 0.81415 0.170006 0.494497
11 1 0.0686559 0.367855 0.49798
37 1 0.173627 0.264874 0.499824
29 1 0.294049 0.245732 0.502962
39 1 0.409589 0.273128 0.499327
8 1 0.543857 0.291555 0.500491
44 1 0.759934 0.273726 0.498836
69 1 0.840373 0.253063 0.501065
35 1 0.179699 0.465101 0.495636
54 1 0.242656 0.351776 0.502589
65 1 0.343317 0.420486 0.500792
42 1 0.409692 0.374183 0.49843
12 1 0.699766 0.374892 0.501816
16 1 0.863495 0.369367 0.500286
6 1 0.973995 0.497271 0.501574
40 1 0.0933629 0.561273 0.501483
49 1 0.267717 0.432865 0.503612
77 1 0.325558 0.495638 0.501945
27 1 0.424254 0.479151 0.507632
17 1 0.561207 0.442461 0.49933
53 1 0.622016 0.562008 0.500175
15 1 0.809353 0.504137 0.500153
2 1 0.223468 0.608019 0.49977
21 1 0.363042 0.587161 0.500464
14 1 0.501491 0.587444 0.494729
79 1 0.698975 0.580866 0.504526
26 1 0.775947 0.638556 0.500162
23 1 0.896009 0.6109 0.50569
28 1 0.0919318 0.677499 0.495768
10 1 0.182928 0.776656 0.499458
24 1 0.301793 0.706522 0.499456
59 1 0.405936 0.686645 0.499347
13 1 0.511759 0.748659 0.50358
7 1 0.653998 0.673891 0.507581
68 1 0.762273 0.716575 0.498805
5 1 0.0999866 0.906707 0.506337
72 1 0.205111 0.877309 0.505529
57 1 0.317074 0.805559 0.500049
43 1 0.404946 0.787393 0.499319
41 1 0.649399 0.808778 0.501514
1 1 0.77487 0.818507 0.496529
22 1 0.275394 0.900749 0.499288
9 1 0.422131 0.909419 0.494352
48 1 0.529278 0.959845 0.501598
52 1 0.543213 0.858847 0.492518
4 1 0.667552 0.930558 0.498937
ITEM: TIMESTEP
2750
ITEM: NUMBER OF ATOMS
56
ITEM: BOX BOUNDS pp pp pp
-4.7969424013735171e+00 4.7969424013735171e+00
-4.8100238029178914e+00 4.8100238029178914e+00
-1.0000000000000001e-01 1.0000000000000001e-01
ITEM: ATOMS id type xs ys zs
25 1 0.186141 0.998341 0.50368
3 1 0.327787 0.0311645 0.496895
67 1 0.434735 0.0290133 0.500379
58 1 0.465322 0.101683 0.494448
32 1 0.571098 0.0864515 0.502935
80 1 0.499137 0.0273728 0.491107
18 1 0.718095 0.0849039 0.498998
34 1 0.368103 0.156665 0.505781
55 1 0.481661 0.187955 0.500678
30 1 0.625314 0.181615 0.502774
33 1 0.813673 0.169197 0.495156
11 1 0.0679094 0.369079 0.497577
37 1 0.172815 0.265658 0.499241
29 1 0.294309 0.246621 0.500909
39 1 0.410879 0.272674 0.499071
8 1 0.544674 0.291869 0.502311
44 1 0.759557 0.272829 0.499721
69 1 0.840128 0.252232 0.501558
35 1 0.178581 0.464071 0.495474
54 1 0.241982 0.352061 0.502341
65 1 0.343334 0.419458 0.502061
42 1 0.410662 0.373936 0.498523
12 1 0.699479 0.374514 0.501857
16 1 0.863417 0.368563 0.498705
6 1 0.97381 0.498215 0.503975
40 1 0.0933553 0.561656 0.50105
49 1 0.267363 0.432616 0.504084
77 1 0.325804 0.494861 0.501764
27 1 0.424735 0.478446 0.506359
17 1 0.5607 0.442659 0.501322
53 1 0.622132 0.561401 0.499497
15 1 0.808858 0.504306 0.502578
2 1 0.223373 0.607539 0.499948
21 1 0.362746 0.586301 0.500446
14 1 0.50139 0.587819 0.497927
79 1 0.69852 0.580765 0.50622
26 1 0.775903 0.638107 0.501508
23 1 0.895571 0.611604 0.506498
28 1 0.0913944 0.677909 0.496664
10 1 0.183611 0.77716 0.498884
24 1 0.301393 0.706025 0.498954
59 1 0.405102 0.685897 0.498709
13 1 0.511239 0.7481 0.503671
7 1 0.654196 0.674169 0.507566
68 1 0.762502 0.715942 0.499086
5 1 0.0993283 0.905568 0.50645
72 1 0.204298 0.877755 0.505478
57 1 0.315977 0.805202 0.499555
43 1 0.403774 0.786679 0.497931
41 1 0.648988 0.808543 0.500697
1 1 0.773863 0.818323 0.496772
22 1 0.275027 0.90068 0.499268
9 1 0.422541 0.908748 0.494227
48 1 0.529241 0.959602 0.49972
52 1 0.544321 0.858074 0.493584
4 1 0.666009 0.930202 0.498855
ITEM: TIMESTEP
3000
ITEM: NUMBER OF ATOMS
56
ITEM: BOX BOUNDS pp pp pp
-4.7957402131990170e+00 4.7957402131990170e+00
-4.8090198296335895e+00 4.8090198296335895e+00
-1.0000000000000001e-01 1.0000000000000001e-01
ITEM: ATOMS id type xs ys zs
25 1 0.185838 0.999275 0.501009
3 1 0.328078 0.0305215 0.498222
67 1 0.43508 0.0289325 0.499013
58 1 0.465269 0.101871 0.494057
32 1 0.571292 0.0867303 0.502517
80 1 0.499544 0.0275887 0.489506
18 1 0.717917 0.0833945 0.49779
34 1 0.368215 0.15636 0.507744
55 1 0.482104 0.187647 0.500685
30 1 0.625055 0.181851 0.503112
33 1 0.815209 0.167661 0.495462
11 1 0.0674843 0.369115 0.497968
37 1 0.17343 0.265108 0.498435
29 1 0.294069 0.246427 0.49862
39 1 0.410891 0.272704 0.498737
8 1 0.544078 0.291215 0.50265
44 1 0.759881 0.271508 0.498049
69 1 0.84059 0.251228 0.503482
35 1 0.179302 0.464307 0.496951
54 1 0.241757 0.351899 0.501855
65 1 0.343144 0.419759 0.501415
42 1 0.409794 0.374253 0.496944
12 1 0.699171 0.372973 0.501062
16 1 0.862785 0.368357 0.499635
6 1 0.973452 0.498233 0.504541
40 1 0.0935924 0.561574 0.501647
49 1 0.267775 0.432429 0.503951
77 1 0.325205 0.495572 0.499216
27 1 0.424248 0.478677 0.507612
17 1 0.560751 0.442245 0.501429
53 1 0.621222 0.561072 0.501129
15 1 0.808428 0.504369 0.504529
2 1 0.223297 0.608436 0.499956
21 1 0.362476 0.586572 0.499711
14 1 0.501398 0.587272 0.497701
79 1 0.698252 0.580131 0.506385
26 1 0.774414 0.638417 0.502302
23 1 0.894718 0.612992 0.50709
28 1 0.0914294 0.678139 0.495213
10 1 0.183819 0.776921 0.499763
24 1 0.301372 0.70602 0.499731
59 1 0.404813 0.685293 0.49705
13 1 0.510241 0.748444 0.504056
7 1 0.652776 0.673317 0.507739
68 1 0.759979 0.716797 0.500361
5 1 0.0994439 0.905761 0.506665
72 1 0.204304 0.877802 0.505042
57 1 0.315772 0.805341 0.49973
43 1 0.403543 0.786368 0.495783
41 1 0.646933 0.807685 0.50061
1 1 0.771795 0.817789 0.495143
22 1 0.274763 0.900976 0.497353
9 1 0.422409 0.908732 0.493238
48 1 0.528832 0.959524 0.499308
52 1 0.543419 0.858128 0.491266
4 1 0.663969 0.929957 0.499349
ITEM: TIMESTEP
3250
ITEM: NUMBER OF ATOMS
56
ITEM: BOX BOUNDS pp pp pp
-4.7945380250245178e+00 4.7945380250245178e+00
-4.8089232815513938e+00 4.8089232815513938e+00
-1.0000000000000001e-01 1.0000000000000001e-01
ITEM: ATOMS id type xs ys zs
25 1 0.185277 1.00001 0.503379
3 1 0.327516 0.0313759 0.498714
67 1 0.434954 0.0295315 0.499732
58 1 0.466221 0.102604 0.494193
32 1 0.57176 0.0870682 0.500806
80 1 0.499592 0.0281487 0.490033
18 1 0.718649 0.083185 0.494465
34 1 0.368057 0.156668 0.507322
55 1 0.481406 0.188284 0.502888
30 1 0.627083 0.181353 0.503171
33 1 0.815602 0.167908 0.495534
11 1 0.0684181 0.368713 0.4991
37 1 0.17272 0.263999 0.497987
29 1 0.293896 0.247019 0.498232
39 1 0.41042 0.273064 0.50075
8 1 0.544661 0.290865 0.502603
44 1 0.759578 0.271263 0.498882
69 1 0.840579 0.251561 0.50519
35 1 0.17901 0.465437 0.497202
54 1 0.241071 0.352049 0.50189
65 1 0.342614 0.420589 0.500521
42 1 0.409267 0.374306 0.496457
12 1 0.698237 0.372353 0.501156
16 1 0.862264 0.36885 0.500476
6 1 0.973056 0.497939 0.504114
40 1 0.0921938 0.56097 0.501463
49 1 0.267079 0.432655 0.504853
77 1 0.325203 0.495183 0.500389
27 1 0.424034 0.47869 0.507692
17 1 0.560018 0.441776 0.501202
53 1 0.620504 0.561045 0.499577
15 1 0.808518 0.50521 0.507165
2 1 0.222931 0.606002 0.499439
21 1 0.361937 0.586206 0.498998
14 1 0.500188 0.587646 0.495037
79 1 0.697664 0.579963 0.505359
26 1 0.774384 0.638453 0.50156
23 1 0.894902 0.612372 0.506611
28 1 0.0919719 0.676986 0.494929
10 1 0.183393 0.77739 0.499571
24 1 0.300907 0.705271 0.5027
59 1 0.404437 0.685348 0.497348
13 1 0.510036 0.748815 0.501755
7 1 0.652188 0.673289 0.508244
68 1 0.760336 0.716262 0.499765
5 1 0.0989595 0.906982 0.505781
72 1 0.202915 0.877942 0.506157
57 1 0.314794 0.805466 0.500407
43 1 0.402987 0.786766 0.496776
41 1 0.645708 0.807915 0.500151
1 1 0.770205 0.818693 0.495552
22 1 0.273914 0.90071 0.499124
9 1 0.421696 0.90886 0.493884
48 1 0.528494 0.959955 0.497339
52 1 0.543243 0.85854 0.491109
4 1 0.661704 0.93004 0.498868
ITEM: TIMESTEP
3500
ITEM: NUMBER OF ATOMS
56
ITEM: BOX BOUNDS pp pp pp
-4.7933358368500176e+00 4.7933358368500176e+00
-4.8134952216465843e+00 4.8134952216465843e+00
-1.0000000000000001e-01 1.0000000000000001e-01
ITEM: ATOMS id type xs ys zs
25 1 0.185671 1.00069 0.504384
3 1 0.327746 0.0317937 0.49881
67 1 0.434874 0.0304081 0.500599
58 1 0.466448 0.102964 0.493968
32 1 0.57192 0.0878445 0.501793
80 1 0.499748 0.02827 0.489617
18 1 0.71814 0.0823769 0.495409
34 1 0.368914 0.157223 0.505579
55 1 0.482313 0.189072 0.503294
30 1 0.627621 0.181863 0.504006
33 1 0.814952 0.167272 0.495719
11 1 0.0672546 0.368661 0.496957
37 1 0.17363 0.264648 0.497717
29 1 0.29458 0.246564 0.49807
39 1 0.411201 0.273648 0.500427
8 1 0.545344 0.291678 0.502717
44 1 0.761741 0.272357 0.499066
69 1 0.841796 0.250338 0.506025
35 1 0.178761 0.464363 0.497996
54 1 0.241702 0.352224 0.503261
65 1 0.342902 0.420403 0.500438
42 1 0.409595 0.374806 0.495805
12 1 0.696588 0.370804 0.50232
16 1 0.860864 0.367145 0.499144
6 1 0.973156 0.498135 0.502872
40 1 0.0930223 0.561119 0.501878
49 1 0.266991 0.432896 0.5058
77 1 0.325111 0.494935 0.500051
27 1 0.424175 0.47868 0.504122
17 1 0.559541 0.44223 0.501278
53 1 0.620597 0.561111 0.500601
15 1 0.808154 0.50431 0.506931
2 1 0.222747 0.607589 0.499389
21 1 0.362094 0.586456 0.498576
14 1 0.500754 0.588372 0.493885
79 1 0.697237 0.580851 0.506319
26 1 0.773957 0.638571 0.503417
23 1 0.893704 0.61171 0.505109
28 1 0.0913134 0.677593 0.495373
10 1 0.182581 0.777876 0.499167
24 1 0.300368 0.70589 0.502098
59 1 0.403202 0.686368 0.497342
13 1 0.509009 0.749317 0.501762
7 1 0.651051 0.673632 0.507827
68 1 0.75924 0.716273 0.501914
5 1 0.0993137 0.908007 0.506662
72 1 0.203211 0.878176 0.5056
57 1 0.313186 0.805109 0.501157
43 1 0.400966 0.787742 0.495703
41 1 0.644932 0.807671 0.501498
1 1 0.769708 0.817744 0.495948
22 1 0.27396 0.901398 0.497893
9 1 0.421203 0.909118 0.493467
48 1 0.527913 0.959778 0.496646
52 1 0.54277 0.858777 0.491858
4 1 0.661664 0.929479 0.496741
ITEM: TIMESTEP
3750
ITEM: NUMBER OF ATOMS
56
ITEM: BOX BOUNDS pp pp pp
-4.7921336486755175e+00 4.7921336486755175e+00
-4.8122980090276704e+00 4.8122980090276704e+00
-1.0000000000000001e-01 1.0000000000000001e-01
ITEM: ATOMS id type xs ys zs
25 1 0.186862 1.00073 0.505609
3 1 0.329296 0.0315138 0.49747
67 1 0.436254 0.0288697 0.501369
58 1 0.465705 0.102334 0.495389
32 1 0.571671 0.0883327 0.502357
80 1 0.50061 0.0282134 0.491654
18 1 0.718832 0.0827917 0.496569
34 1 0.36836 0.156416 0.506229
55 1 0.481794 0.188122 0.50342
30 1 0.627521 0.181927 0.504928
33 1 0.815914 0.166873 0.496494
11 1 0.0669184 0.368294 0.496658
37 1 0.173628 0.265496 0.497018
29 1 0.29394 0.245549 0.497427
39 1 0.411005 0.272998 0.501148
8 1 0.544729 0.291426 0.502425
44 1 0.761509 0.271314 0.498767
69 1 0.841885 0.249836 0.505503
35 1 0.178096 0.463126 0.495846
54 1 0.2432 0.351861 0.504866
65 1 0.342453 0.419352 0.498919
42 1 0.409763 0.374375 0.496097
12 1 0.697195 0.37003 0.502024
16 1 0.86073 0.367706 0.498193
6 1 0.973274 0.498242 0.505126
40 1 0.0934634 0.560608 0.501717
49 1 0.267044 0.433071 0.505048
77 1 0.325139 0.495347 0.498463
27 1 0.423562 0.478724 0.504573
17 1 0.559742 0.442485 0.502963
53 1 0.620303 0.561216 0.497856
15 1 0.8083 0.504155 0.508759
2 1 0.223348 0.608178 0.500705
21 1 0.362181 0.586676 0.496061
14 1 0.500332 0.587613 0.495041
79 1 0.697426 0.580251 0.506905
26 1 0.774388 0.637812 0.503008
23 1 0.894321 0.612568 0.505498
28 1 0.0917492 0.67725 0.494947
10 1 0.182832 0.777973 0.499268
24 1 0.301184 0.706555 0.500686
59 1 0.404879 0.68566 0.497663
13 1 0.510488 0.749035 0.502513
7 1 0.652171 0.672944 0.508966
68 1 0.759944 0.715785 0.502825
5 1 0.100008 0.908025 0.504601
72 1 0.204001 0.878252 0.506561
57 1 0.314526 0.80595 0.500366
43 1 0.402215 0.787058 0.49471
41 1 0.6439 0.807129 0.500091
1 1 0.768327 0.817662 0.494835
22 1 0.274658 0.901754 0.496782
9 1 0.421414 0.908382 0.494472
48 1 0.527346 0.959371 0.496632
52 1 0.542544 0.858851 0.491451
4 1 0.661576 0.930112 0.495488
ITEM: TIMESTEP
4000
ITEM: NUMBER OF ATOMS
56
ITEM: BOX BOUNDS pp pp pp
-4.7909314605010174e+00 4.7909314605010174e+00
-4.8090967439853207e+00 4.8090967439853207e+00
-1.0000000000000001e-01 1.0000000000000001e-01
ITEM: ATOMS id type xs ys zs
25 1 0.186248 1.0017 0.503921
3 1 0.329281 0.031626 0.497906
67 1 0.435551 0.0294506 0.501108
58 1 0.466056 0.102283 0.497133
32 1 0.571893 0.0878073 0.499553
80 1 0.499948 0.027731 0.489303
18 1 0.717271 0.0824907 0.497181
34 1 0.36876 0.156652 0.50621
55 1 0.481408 0.188378 0.504288
30 1 0.627007 0.182219 0.504933
33 1 0.814842 0.166295 0.498075
11 1 0.066037 0.367513 0.497539
37 1 0.173032 0.264592 0.496084
29 1 0.293979 0.245468 0.496794
39 1 0.410137 0.273681 0.503064
8 1 0.544746 0.291722 0.501872
44 1 0.761015 0.270977 0.498185
69 1 0.841389 0.249078 0.50571
35 1 0.176845 0.462961 0.495682
54 1 0.242666 0.351765 0.504078
65 1 0.342356 0.420308 0.497815
42 1 0.409375 0.375174 0.49553
12 1 0.697736 0.370206 0.502302
16 1 0.861932 0.366491 0.499128
6 1 0.974076 0.49893 0.504611
40 1 0.0932228 0.562021 0.504099
49 1 0.266481 0.433387 0.504371
77 1 0.325315 0.495321 0.497585
27 1 0.423883 0.479239 0.504858
17 1 0.560307 0.442011 0.503588
53 1 0.620881 0.560873 0.498438
15 1 0.809778 0.503549 0.508664
2 1 0.223144 0.60861 0.502243
21 1 0.362196 0.587227 0.493524
14 1 0.501236 0.587459 0.494976
79 1 0.697837 0.580027 0.506611
26 1 0.774593 0.637533 0.504058
23 1 0.894937 0.612234 0.506224
28 1 0.0913338 0.678699 0.49444
10 1 0.18336 0.777324 0.500244
24 1 0.301631 0.70673 0.499217
59 1 0.404569 0.68639 0.497211
13 1 0.50979 0.748644 0.501444
7 1 0.652028 0.673106 0.510038
68 1 0.760302 0.715645 0.502293
5 1 0.100145 0.908074 0.503465
72 1 0.20477 0.877532 0.506482
57 1 0.314447 0.806153 0.502153
43 1 0.402439 0.786986 0.494727