LAMMPS (23 Jun 2022 - Update 4)
  using 1 OpenMP thread(s) per MPI task
# Compute elastic constant tensor for a crystal
#
# Written by Aidan Thompson (Sandia, athomps@sandia.gov)
#
#  This script uses the following three include files.
#
#   init.mod      (must be modified for different crystal structures)
# 	       	  Define units, deformation parameters and initial
#		  configuration of the atoms and simulation cell.
#
#
#   potential.mod    (must be modified for different pair styles)
# 		     Define pair style and other attributes
#		     not stored in restart file
#
#
#   displace.mod    (displace.mod should not need to be modified)
# 		    Perform positive and negative box displacements
# 		    in direction ${dir} and size ${up}.
# 		    It uses the resultant changes
#		    in stress to compute one
# 		    row of the elastic stiffness tensor
#
#		    Inputs variables:
#		    	   dir = the Voigt deformation component
#		    		    (1,2,3,4,5,6)
#		    Global constants:
#       	    	   up = the deformation magnitude (strain units)
#       		   cfac = conversion from LAMMPS pressure units to
#               	   output units for elastic constants
#
#
#  To run this on a different system, it should only be necessary to
#  modify the files init.mod and potential.mod. In order to calculate
#  the elastic constants correctly, care must be taken to specify
#  the correct units in init.mod (units, cfac and cunits). It is also
#  important to verify that the minimization of energy w.r.t atom
#  positions in the deformed cell is fully converged.
#  One indication of this is that the elastic constants are insensitive
#  to the choice of the variable ${up} in init.mod. Another is to check
#  the final max and two-norm forces reported in the log file. If you know
#  that minimization is not required, you can set maxiter = 0.0 in
#  init.mod.
#



variable dt equal 0.01
variable strain equal 0.05
variable srate equal 1e-4
variable M equal 1000 # averaging time for properties
variable strainsteps equal ${strain}/${dt}/${srate}
variable strainsteps equal 0.05/${dt}/${srate}
variable strainsteps equal 0.05/0.01/${srate}
variable strainsteps equal 0.05/0.01/0.0001


dimension 2
include init.mod
# NOTE: This script can be modified for different atomic structures,
# units, etc. See in.elastic for more info.
#

# Define the finite deformation size. Try several values of this
# variable to verify that results do not depend on it.
variable up equal 1.0e-1

# Define the amount of random jiggle for atoms
# This prevents atoms from staying on saddle points
variable atomjiggle equal 1.0e-6

# Uncomment one of these blocks, depending on what units
# you are using in LAMMPS and for output

# metal units, elastic constants in eV/A^3
#units		metal
#variable cfac equal 6.2414e-7
#variable cunits string eV/A^3

# Choose potential
# metal units, elastic constants in GPa
units		metal
atom_style	full
#pair_style      lj/cut 1.0
#pair_style      yukawa 1.0 2.0
#pair_modify     mix arithmetic
bond_style      harmonic
angle_style     harmonic
dihedral_style  zero
special_bonds   amber
variable cfac equal 1.0e-4
variable cunits string GPa
boundary	p p p

# Need to set mass to something, just to satisfy LAMMPS
#mass 1 1.0e-20
read_data network.lmp
Reading data file ...
  orthogonal box = (-4.808753 -4.808753 -0.1) to (4.808753 4.808753 0.1)
  1 by 1 by 1 MPI processor grid
WARNING: Atom style in data file differs from currently defined atom style (src/read_data.cpp:538)
  reading atoms ...
  56 atoms
WARNING: Bond style in data file differs from currently defined bond style (src/read_data.cpp:630)
  scanning bonds ...
  5 = max bonds/atom
  reading bonds ...
  114 bonds
Finding 1-2 1-3 1-4 neighbors ...
  special bond factors lj:    0        0        0.5     
  special bond factors coul:  0        0        0.8333333333333334
     8 = max # of 1-2 neighbors
    32 = max # of 1-3 neighbors
   160 = max # of 1-4 neighbors
    34 = max # of special neighbors
  special bonds CPU = 0.000 seconds
  read_data CPU = 0.003 seconds

# real units, elastic constants in GPa
#units		real
#variable cfac equal 1.01325e-4
#variable cunits string GPa

# Define minimization parameters
variable etol equal 0.0
variable ftol equal 5.0e-10
variable maxiter equal 100000
variable maxeval equal 20000
variable dmax equal 1.0e-2


include potential.mod
# NOTE: This script can be modified for different pair styles
# See in.elastic for more info.

# Setup neighbor style
neighbor 3.0 nsq
neigh_modify once no every 1 delay 0 check yes
comm_modify cutoff 2.0

# Setup minimization style
min_style	     cg
min_modify	     dmax ${dmax} line quadratic
min_modify	     dmax 0.01 line quadratic

timestep	0.001


# Setup output
thermo		500
thermo_style custom step temp pe ebond eangle edihed press pxx pyy pzz pxy pxz pyz lx ly lz vol
thermo_modify norm no


#change_box all triclinic
comm_modify mode single cutoff 10.0 vel yes
atom_modify sort 0 0



# Compute initial state

#dump rela all atom 1 traj_relax.lmpstrj
fix 3 all box/relax x 0 y 0 # xy 0  #MS comment: relax if the network is periodic
minimize ${etol} ${ftol} ${maxiter} ${maxeval}
minimize 0 ${ftol} ${maxiter} ${maxeval}
minimize 0 5e-10 ${maxiter} ${maxeval}
minimize 0 5e-10 100000 ${maxeval}
minimize 0 5e-10 100000 20000
Neighbor list info ...
  update every 1 steps, delay 0 steps, check yes
  max neighbors/atom: 2000, page size: 100000
  master list distance cutoff = 0
  ghost atom cutoff = 10
  0 neighbor lists, perpetual/occasional/extra = 0 0 0
WARNING: Inconsistent image flags (src/domain.cpp:819)
Per MPI rank memory allocation (min/avg/max) = 9.087 | 9.087 | 9.087 Mbytes
   Step          Temp          PotEng         E_bond        E_angle        E_dihed         Press           Pxx            Pyy            Pzz            Pxy            Pxz            Pyz             Lx             Ly             Lz           Volume    
         0   0              2.4720596e-11  2.4720596e-11  0              0              0.0091691985   0.037921875   -0.019583478    0              0.11352877     0              0              9.617506       9.617506       0.2            92.496422    
       294   0              5.0668503e-19  5.0668503e-19  0              0              1.7528042e-07  7.2937923e-07 -3.7881839e-07  0              2.1798364e-06  0              0              9.6175054      9.617506       0.2            92.496416    
Loop time of 0.0165726 on 1 procs for 294 steps with 56 atoms

100.0% CPU use with 1 MPI tasks x 1 OpenMP threads

Minimization stats:
  Stopping criterion = force tolerance
  Energy initial, next-to-last, final = 
    2.47205960766331e-11 5.43662267716116e-19 5.06685034141938e-19
  Force two-norm initial, final = 1.669702e-05 4.6524572e-10
  Force max component initial, final = 4.3679734e-06 1.2208561e-10
  Final line search alpha, max atom move = 1 1.2208561e-10
  Iterations, force evaluations = 294 588

MPI task timing breakdown:
Section |  min time  |  avg time  |  max time  |%varavg| %total
---------------------------------------------------------------
Pair    | 0          | 0          | 0          |   0.0 |  0.00
Bond    | 0.0021978  | 0.0021978  | 0.0021978  |   0.0 | 13.26
Neigh   | 0          | 0          | 0          |   0.0 |  0.00
Comm    | 0.0049375  | 0.0049375  | 0.0049375  |   0.0 | 29.79
Output  | 0          | 0          | 0          |   0.0 |  0.00
Modify  | 0          | 0          | 0          |   0.0 |  0.00
Other   |            | 0.009437   |            |       | 56.94

Nlocal:             56 ave          56 max          56 min
Histogram: 1 0 0 0 0 0 0 0 0 0
Nghost:            463 ave         463 max         463 min
Histogram: 1 0 0 0 0 0 0 0 0 0
Neighs:              0 ave           0 max           0 min
Histogram: 1 0 0 0 0 0 0 0 0 0

Total # of neighbors = 0
Ave neighs/atom = 0
Ave special neighs/atom = 22.428571
Neighbor list builds = 0
Dangerous builds = 0
#dump rela all atom 1 traj_relax.lmpstrj
thermo 100
unfix 3

fix 2d all enforce2d



#dump dump0 all xyz 1000000 cfg0.xyz
#dump_modify dump0 format line "%d %20.10g %20.10g %20.10g"
#minimize ${etol} ${ftol} ${maxiter} ${maxeval}

#undump rela

#write_restart restart.equil

# These formulas define the derivatives w.r.t. strain components
# Constants uses $, variables use v_


timestep        ${dt}
timestep        0.01
variable nsteps equal round(${strainsteps})
variable nsteps equal round(50000)

fix             4 all nve
fix             5 all langevin 0.1 0.1 1 904297
#fix		6 all press/berendsen y  0.0 0.0 1 x 0.0 0.0 10
fix             6 all nph y 0.0 0.0 10 ptemp 0.1 # x 0.0 0.0 10

# For PLUMED2
# fix 22 all plumed plumedfile plumed.dat outfile plumed.out

#fix             6 all nph x 0.0 0.0 10
fix     	9 all deform 1 x erate -${srate} units box remap x
fix     	9 all deform 1 x erate -0.0001 units box remap x

#fix     8 all deform 1 xy erate ${srate} units box remap x



#fix    10 all ave/time

dump 1 all atom 250 deform_dump.lammpstrj


#To avoid flying ice cube phenomenon:
#fix 21 all momentum 100 linear 1 1 1 angular


run  ${nsteps}
run  50000
WARNING: One or more atoms are time integrated more than once (src/modify.cpp:292)
WARNING: Inconsistent image flags (src/domain.cpp:819)
Per MPI rank memory allocation (min/avg/max) = 7.962 | 7.962 | 7.962 Mbytes
   Step          Temp          PotEng         E_bond        E_angle        E_dihed         Press           Pxx            Pyy            Pzz            Pxy            Pxz            Pyz             Lx             Ly             Lz           Volume    
       294   0              5.0668503e-19  5.0668503e-19  0              0              1.7528042e-07  7.2937923e-07 -3.7881839e-07  0              2.1798364e-06  0              0              9.6175054      9.617506       0.2            92.496416    
       300   0.035211616    2.4394491e-06  2.4394491e-06  0              0              34.557384      44.894867      24.035604      0             -21.104413      0              0              9.6174477      9.6176806      0.2            92.49754     
       400   0.20043765     0.00080208657  0.00080208657  0              0             -178.68376     -340.08379     -17.460361      0              708.45142      0              0              9.6164859      9.6152939      0.2            92.465338    
       500   0.26684663     0.00094773568  0.00094773568  0              0              232.49466      562.66406     -97.844871      0              438.46641      0              0              9.6155242      9.6192587      0.2            92.494215    
       600   0.16998076     0.0010077966   0.0010077966   0              0             -454.76362     -741.45792     -168.22954      0              644.59047      0              0              9.6145624      9.6199534      0.2            92.491643    
       700   0.17317437     0.00079681253  0.00079681253  0              0              48.556192      225.76097     -128.83593      0              21.312638      0              0              9.6136007      9.6221918      0.2            92.50391     
       800   0.16224859     0.00081593189  0.00081593189  0              0              1.6841562      47.492288     -44.258297      0             -104.35771      0              0              9.6126389      9.6223983      0.2            92.49664     
       900   0.2509452      0.00091937726  0.00091937726  0              0              88.74634       89.93847       87.377736      0             -555.37285      0              0              9.6116772      9.6248441      0.2            92.510894    
      1000   0.25421876     0.00088863747  0.00088863747  0              0              22.421767     -158.03477      202.72196      0             -29.893263      0              0              9.6107154      9.6241603      0.2            92.495066    
      1100   0.24760536     0.00072093536  0.00072093536  0              0             -255.74224     -579.41705      67.771977      0              47.201121      0              0              9.6097537      9.6261154      0.2            92.504598    
      1200   0.23312477     0.0011306879   0.0011306879   0              0              69.589708      214.60976     -75.579318      0             -104.91911      0              0              9.6087919      9.6327949      0.2            92.559522    
      1300   0.20525022     0.00088832578  0.00088832578  0              0             -138.74402     -45.345359     -232.32823      0             -278.94917      0              0              9.6078302      9.6340748      0.2            92.562554    
      1400   0.20376749     0.00092805481  0.00092805481  0              0             -570.54317     -878.64901     -262.62041      0             -451.58997      0              0              9.6068684      9.6339289      0.2            92.551888    
      1500   0.2221843      0.00092811097  0.00092811097  0              0             -245.32922     -199.59491     -291.22122      0              115.40028      0              0              9.6059067      9.6332066      0.2            92.535684    
      1600   0.20691145     0.00088753522  0.00088753522  0              0              2.9282671      209.43578     -203.74503      0              146.93222      0              0              9.6049449      9.6324115      0.2            92.518782    
      1700   0.19641903     0.001053012    0.001053012    0              0              222.7322       508.48074     -63.15206       0             -373.74322      0              0              9.6039832      9.6333899      0.2            92.518915    
      1800   0.23921038     0.0007435501   0.0007435501   0              0             -220.66469     -569.21943      127.71119      0              94.127518      0              0              9.6030214      9.6269463      0.2            92.447772    
      1900   0.19917474     0.00094365791  0.00094365791  0              0              604.02097      920.79229      287.06694      0              190.49819      0              0              9.6020597      9.6345533      0.2            92.511556    
      2000   0.14902446     0.001213167    0.001213167    0              0              470.37482      513.68349      426.90028      0              862.37315      0              0              9.6010979      9.630568       0.2            92.464027    
      2100   0.18629903     0.0010101035   0.0010101035   0              0              220.27093     -37.413371      477.77626      0              77.735276      0              0              9.6001362      9.6214754      0.2            92.367474    
      2200   0.22520993     0.00085884302  0.00085884302  0              0              207.67934     -20.190506      435.35612      0              185.47221      0              0              9.5991744      9.6225132      0.2            92.368183    
      2300   0.20948689     0.00095251055  0.00095251055  0              0              114.61557     -6.4801528      235.5497       0              16.639171      0              0              9.5982127      9.6229952      0.2            92.363555    
      2400   0.25699116     0.0009325474   0.0009325474   0              0             -204.29511     -366.77067     -42.003382      0             -134.32769      0              0              9.5972509      9.622585       0.2            92.350363    
      2500   0.25008549     0.00097513736  0.00097513736  0              0             -536.32623     -631.71669     -441.09566      0             -598.00582      0              0              9.5962892      9.6292658      0.2            92.405219    
      2600   0.21287557     0.00093324874  0.00093324874  0              0             -359.87693     -62.989348     -656.87973      0             -771.13941      0              0              9.5953274      9.6252555      0.2            92.357478    
      2700   0.24517452     0.0010912715   0.0010912715   0              0             -1232.7767     -1778.2705     -687.44492      0             -120.43637      0              0              9.5943657      9.6290722      0.2            92.384839    
      2800   0.21248763     0.00078061844  0.00078061844  0              0             -476.87736     -620.01353     -333.91228      0             -378.47679      0              0              9.5934039      9.6241741      0.2            92.328589    
      2900   0.25746688     0.0009241589   0.0009241589   0              0             -263.17899     -648.3936       121.8964       0              179.94308      0              0              9.5924422      9.6227362      0.2            92.305541    
      3000   0.20003776     0.00096325398  0.00096325398  0              0              357.50091      198.87306      515.96309      0              378.57144      0              0              9.5914804      9.6180397      0.2            92.251239    
      3100   0.22265433     0.00084260107  0.00084260107  0              0              693.62602      643.34202      743.75551      0              51.784938      0              0              9.5905187      9.6161179      0.2            92.223558    
      3200   0.19680734     0.00097313181  0.00097313181  0              0              21.537565     -621.96484      664.85773      0             -304.55351      0              0              9.5895569      9.6133352      0.2            92.187625    
      3300   0.19447021     0.00094355067  0.00094355067  0              0              148.42808     -144.16239      440.86825      0              95.911776      0              0              9.5885952      9.6094422      0.2            92.141051    
      3400   0.19695159     0.00094369106  0.00094369106  0              0              154.33522      362.66475     -54.137046      0              169.18811      0              0              9.5876334      9.6192393      0.2            92.225741    
      3500   0.20551395     0.00093140337  0.00093140337  0              0             -208.63817     -0.45394767    -416.97437      0              381.8249       0              0              9.5866717      9.6269904      0.2            92.290797    
      3600   0.22928941     0.00093421843  0.00093421843  0              0             -736.98161     -756.48047     -717.6751       0              143.95478      0              0              9.5857099      9.6270211      0.2            92.281832    
      3700   0.15856322     0.0010837553   0.0010837553   0              0             -93.113363      546.42568     -732.8202       0              310.55712      0              0              9.5847482      9.6284388      0.2            92.286161    
      3800   0.21541657     0.00069341121  0.00069341121  0              0              62.563977      605.64135     -480.68706      0              18.850768      0              0              9.5837864      9.6304497      0.2            92.296173    
      3900   0.17365144     0.001035035    0.001035035    0              0              440.10954      935.06914     -55.018603      0              676.67314      0              0              9.5828247      9.6248758      0.2            92.233497    
      4000   0.19875118     0.0010225597   0.0010225597   0              0              671.10549      840.1332       501.88507      0              452.74643      0              0              9.5818629      9.6181935      0.2            92.160212    
      4100   0.20707189     0.0012168081   0.0012168081   0              0              500.68993      198.5258       802.66399      0              1020.4627      0              0              9.5809012      9.6178773      0.2            92.147932    
      4200   0.1873729      0.00088601366  0.00088601366  0              0              347.3022      -225.97284      920.39818      0              739.42762      0              0              9.5799394      9.6137615      0.2            92.099253    
      4300   0.25310381     0.0010892773   0.0010892773   0              0              482.4759       341.86124      622.9566       0              245.34854      0              0              9.5789777      9.6143685      0.2            92.095821    
      4400   0.18933314     0.00085919756  0.00085919756  0              0              315.27209      448.42458      181.94911      0              176.81306      0              0              9.5780159      9.6215946      0.2            92.155786    
      4500   0.25440162     0.0008430785   0.0008430785   0              0             -53.673442      176.50539     -284.02571      0              73.886303      0              0              9.5770542      9.619781       0.2            92.129164    
      4600   0.209181       0.0010707569   0.0010707569   0              0             -770.57489     -994.95432     -546.37649      0              80.387965      0              0              9.5760924      9.6188123      0.2            92.110635    
      4700   0.19981774     0.00094311951  0.00094311951  0              0             -500.65399     -459.56949     -541.85951      0             -352.98322      0              0              9.5751307      9.6214524      0.2            92.126664    
      4800   0.17666326     0.00096861654  0.00096861654  0              0             -409.29846     -499.15004     -319.61848      0             -83.539906      0              0              9.5741689      9.6222653      0.2            92.125193    
      4900   0.23019821     0.00085912999  0.00085912999  0              0             -55.228955     -99.590911     -10.986596      0              81.385648      0              0              9.5732072      9.619599       0.2            92.090414    
      5000   0.20188781     0.00084057053  0.00084057053  0              0             -16.650899     -269.01142      235.50718      0              333.73577      0              0              9.5722454      9.6252169      0.2            92.134938    
      5100   0.21330907     0.0011992353   0.0011992353   0              0              419.95946      453.54851      386.21055      0              252.19687      0              0              9.5712837      9.6117873      0.2            91.997143    
      5200   0.23116154     0.0011973309   0.0011973309   0              0              468.64343      494.17855      442.95493      0              99.200561      0              0              9.5703219      9.6133295      0.2            92.002658    
      5300   0.20528019     0.0010245315   0.0010245315   0              0              464.72719      638.96154      290.32402      0             -51.30401       0              0              9.5693602      9.6236839      0.2            92.092498    
      5400   0.21610396     0.00076669823  0.00076669823  0              0              469.61398      824.3729       114.71326      0             -313.40132      0              0              9.5683984      9.6232642      0.2            92.079226    
      5500   0.22111831     0.00080981101  0.00080981101  0              0              234.28404      589.48766     -121.05057      0              55.760086      0              0              9.5674367      9.6256346      0.2            92.092649    
      5600   0.18813403     0.00094688452  0.00094688452  0              0              299.98433      890.83556     -291.05957      0             -232.1482       0              0              9.5664749      9.6303945      0.2            92.128927    
      5700   0.20668332     0.00089944422  0.00089944422  0              0             -208.80492     -89.017758     -328.77077      0             -545.55764      0              0              9.5655132      9.6238886      0.2            92.057433    
      5800   0.215364       0.0010844893   0.0010844893   0              0             -747.56479     -1273.6996     -221.58755      0              341.11836      0              0              9.5645514      9.6208359      0.2            92.01898     
      5900   0.22147448     0.00084483511  0.00084483511  0              0             -49.149682     -113.1796       14.716126      0             -111.36987      0              0              9.5635897      9.6213802      0.2            92.014932    
      6000   0.22138274     0.00083769118  0.00083769118  0              0             -564.46322     -1362.891       233.75228      0             -50.690603      0              0              9.5626279      9.619137       0.2            91.984228    
      6100   0.18772261     0.00087620757  0.00087620757  0              0              262.50048      114.32676      410.51193      0             -366.60394      0              0              9.5616662      9.6145869      0.2            91.931471    
      6200   0.20733758     0.00094234636  0.00094234636  0              0              15.000715     -310.0095       339.85824      0              251.53592      0              0              9.5607044      9.6185651      0.2            91.960258    
      6300   0.2117901      0.00095293214  0.00095293214  0              0             -62.450272     -167.61083      42.545278      0             -34.639698      0              0              9.5597427      9.6166649      0.2            91.932842    
      6400   0.2159287      0.00076826209  0.00076826209  0              0             -253.9439      -386.2013      -121.83063      0             -288.39986      0              0              9.5587809      9.6134582      0.2            91.892941    
      6500   0.18840564     0.00095622155  0.00095622155  0              0             -883.02586     -1505.5942     -260.62271      0              10.313973      0              0              9.5578192      9.6124867      0.2            91.874409    
      6600   0.18013675     0.0009290991   0.0009290991   0              0             -778.30515     -1149.9463     -406.81674      0             -38.594913      0              0              9.5568574      9.6128651      0.2            91.868781    
      6700   0.21810242     0.0010328165   0.0010328165   0              0             -1053.7115     -1718.9142     -388.67897      0             -174.13255      0              0              9.5558957      9.6112144      0.2            91.843762    
      6800   0.17570209     0.0011765989   0.0011765989   0              0             -1177.3726     -2082.3658     -272.51055      0             -67.329249      0              0              9.5549339      9.6206964      0.2            91.925118    
      6900   0.20644966     0.0010665217   0.0010665217   0              0             -576.81382     -1339.2132      185.40485      0             -334.07594      0              0              9.5539722      9.6151191      0.2            91.86258     
      7000   0.18168077     0.00085971698  0.00085971698  0              0              396.29204      264.74478      527.67629      0             -301.74225      0              0              9.5530104      9.6253037      0.2            91.950627    
      7100   0.23739458     0.0010112611   0.0010112611   0              0              366.74273     -112.0435       845.35864      0             -367.03745      0              0              9.5520487      9.6193326      0.2            91.884333    
      7200   0.18625196     0.00077180105  0.00077180105  0              0              118.63158     -664.55309      901.66017      0             -603.40952      0              0              9.5510869      9.6200424      0.2            91.881861    
      7300   0.21338893     0.00090170982  0.00090170982  0              0              516.60747      390.46687      642.58559      0             -699.83679      0              0              9.5501252      9.619313       0.2            91.865643    
      7400   0.21104183     0.00092797238  0.00092797238  0              0             -313.18167     -695.57625      69.04194       0             -135.23254      0              0              9.5491634      9.6259583      0.2            91.919849    
      7500   0.1944819      0.00075213006  0.00075213006  0              0              171.73703      883.85074     -540.5428       0              61.618067      0              0              9.5482017      9.6282271      0.2            91.932254    
      7600   0.16766628     0.00072594192  0.00072594192  0              0             -293.52568      360.23742     -947.41527      0              314.60205      0              0              9.5472399      9.6267523      0.2            91.908914    
      7700   0.22437103     0.00096344969  0.00096344969  0              0             -678.72518     -269.16827     -1088.4573      0             -169.51576      0              0              9.5462782      9.6233908      0.2            91.867566    
      7800   0.21731584     0.0010181981   0.0010181981   0              0             -359.2961       169.41002     -888.21624      0             -368.1312       0              0              9.5453164      9.6297972      0.2            91.919461    
      7900   0.18598568     0.0010599817   0.0010599817   0              0              106.99189      426.81293     -212.99975      0              2.447662       0              0              9.5443546      9.6191752      0.2            91.808819    
      8000   0.17552929     0.00086341175  0.00086341175  0              0              763.76783      1072.7473      454.61079      0              359.62841      0              0              9.5433929      9.61572        0.2            91.766594    
      8100   0.22378009     0.00087684581  0.00087684581  0              0              1085.4199      1327.4784      843.19832      0             -145.40335      0              0              9.5424311      9.6068971      0.2            91.673154    
      8200   0.18773194     0.00085228253  0.00085228253  0              0              971.96328      998.96625      944.80027      0              3.6853855      0              0              9.5414694      9.6086676      0.2            91.680808    
      8300   0.18639861     0.0010083462   0.0010083462   0              0              1052.6853      1376.4132      728.76519      0              133.8846       0              0              9.5405076      9.6171002      0.2            91.752018    
      8400   0.24065617     0.0010029747   0.0010029747   0              0              965.06536      1871.8456      58.11644       0              65.606982      0              0              9.5395459      9.6176604      0.2            91.748113    
      8500   0.2067189      0.00097216433  0.00097216433  0              0             -549.51807     -510.38332     -588.81991      0              41.61949       0              0              9.5385841      9.617863       0.2            91.740795    
      8600   0.20000147     0.00075539629  0.00075539629  0              0             -321.44982      353.09566     -996.13603      0             -431.51381      0              0              9.5376224      9.6229987      0.2            91.780527    
      8700   0.22714198     0.0010413263   0.0010413263   0              0              130.92897      1194.1103     -932.41273      0              72.776784      0              0              9.5366606      9.6236552      0.2            91.777534    
      8800   0.24012313     0.00099407937  0.00099407937  0              0             -61.295732      333.05934     -455.80611      0              54.877308      0              0              9.5356989      9.6154692      0.2            91.690219    
      8900   0.23497914     0.00083506112  0.00083506112  0              0              702.17431      1201.237       202.97288      0             -616.64581      0              0              9.5347371      9.6178504      0.2            91.703676    
      9000   0.23881386     0.00089381323  0.00089381323  0              0              1018.1809      1327.2264      708.95607      0             -116.01769      0              0              9.5337754      9.6233574      0.2            91.746928    
      9100   0.25666114     0.00088724296  0.00088724296  0              0              1203.1567      1656.8736      749.24724      0             -564.10154      0              0              9.5328136      9.6163063      0.2            91.670456    
      9200   0.16779325     0.0010306539   0.0010306539   0              0              936.40626      1319.33        553.29422      0             -185.38209      0              0              9.5318519      9.6222614      0.2            91.71797     
      9300   0.20100165     0.00098286405  0.00098286405  0              0              729.62299      1267.0866      192.0058       0              157.74524      0              0              9.5308901      9.6223849      0.2            91.709894    
      9400   0.16526439     0.00090926475  0.00090926475  0              0              687.65736      1518.6025     -143.48325      0             -181.00976      0              0              9.5299284      9.6204964      0.2            91.682642    
      9500   0.20607033     0.00078501054  0.00078501054  0              0              473.71914      1367.584      -420.30904      0             -263.4083       0              0              9.5289666      9.6251562      0.2            91.717792    
      9600   0.21076867     0.00090429624  0.00090429624  0              0             -25.708099      443.43558     -495.01454      0             -427.75642      0              0              9.5280049      9.6231622      0.2            91.689536    
      9700   0.18596582     0.0010317523   0.0010317523   0              0              225.12895      790.31357     -340.24395      0             -157.6546       0              0              9.5270431      9.6207378      0.2            91.657184    
      9800   0.1957274      0.00084639364  0.00084639364  0              0              503.70619      1082.0608     -74.793485      0              141.04694      0              0              9.5260814      9.6186755      0.2            91.628286    
      9900   0.19625187     0.00093241795  0.00093241795  0              0              58.4233        11.805761      104.8719       0             -159.301        0              0              9.5251196      9.6175458      0.2            91.608274    
     10000   0.22814396     0.001008894    0.001008894    0              0              508.71452      719.41022      297.85572      0              132.75311      0              0              9.5241579      9.6120455      0.2            91.546639    
     10100   0.19607186     0.00087130692  0.00087130692  0              0              370.08199      477.91325      262.09825      0             -215.74235      0              0              9.5231961      9.6203607      0.2            91.616582    
     10200   0.17390608     0.0011138728   0.0011138728   0              0             -117.16835     -418.66564      184.10412      0             -383.28096      0              0              9.5222344      9.6165061      0.2            91.570625    
     10300   0.23618776     0.00090237927  0.00090237927  0              0              485.80932      959.90798      11.531557      0             -721.38369      0              0              9.5212726      9.614292       0.2            91.540296    
     10400   0.18496098     0.00086073969  0.00086073969  0              0              302.62992      828.04493     -222.95013      0             -1003.1886      0              0              9.5203109      9.6235973      0.2            91.619638    
     10500   0.22267101     0.00093329057  0.00093329057  0              0              335.77473      929.78498     -258.44538      0              111.28508      0              0              9.5193491      9.6223334      0.2            91.598351    
     10600   0.22208092     0.00088690254  0.00088690254  0              0             -291.28297     -354.90835     -227.85648      0             -347.55238      0              0              9.5183874      9.621246       0.2            91.578747    
     10700   0.21808253     0.0011050744   0.0011050744   0              0             -32.903509      57.904782     -123.87437      0             -1095.7502      0              0              9.5174256      9.6229745      0.2            91.585944    
     10800   0.21368229     0.00092897328  0.00092897328  0              0              549.6974       1088.4494      10.795991      0             -227.80239      0              0              9.5164639      9.6235445      0.2            91.582113    
     10900   0.21397888     0.0010716686   0.0010716686   0              0              1087.3902      2063.7399      110.8711       0             -582.62576      0              0              9.5155021      9.6227203      0.2            91.565016    
     11000   0.20930641     0.00091538725  0.00091538725  0              0              745.69641      1350.2561      140.96092      0             -433.73594      0              0              9.5145404      9.6273038      0.2            91.599371    
     11100   0.19858187     0.0010147352   0.0010147352   0              0              768.48694      1377.2516      159.54984      0             -593.71482      0              0              9.5135786      9.6277274      0.2            91.594141    
     11200   0.20938587     0.00095000956  0.00095000956  0              0              287.71089      423.35966      151.88141      0             -249.58699      0              0              9.5126169      9.6298074      0.2            91.604668    
     11300   0.18913117     0.00097214244  0.00097214244  0              0              173.4165       253.22139      93.458797      0             -359.19171      0              0              9.5116551      9.6280723      0.2            91.578903    
     11400   0.22588038     0.00090094347  0.00090094347  0              0             -49.795304     -30.055238     -69.699231      0             -425.09641      0              0              9.5106934      9.627853       0.2            91.567558    
     11500   0.21549386     0.00079296112  0.00079296112  0              0              538.68225      1255.7969     -178.58827      0             -81.824066      0              0              9.5097316      9.6295678      0.2            91.574605    
     11600   0.18442112     0.00078513558  0.00078513558  0              0              278.47105      883.49636     -326.72477      0              15.529433      0              0              9.5087699      9.6317453      0.2            91.586049    
     11700   0.22721164     0.00094415071  0.00094415071  0              0              358.04605      1063.5099     -347.61177      0             -290.58434      0              0              9.5078081      9.6354278      0.2            91.611799    
     11800   0.21210259     0.0007928731   0.0007928731   0              0              187.83581      506.454       -130.95508      0             -319.80016      0              0              9.5068464      9.6326292      0.2            91.575926    
     11900   0.18429758     0.001061685    0.001061685    0              0              660.76586      1196.5799      124.80235      0             -377.58336      0              0              9.5058846      9.6396552      0.2            91.63345     
     12000   0.19194645     0.0010871733   0.0010871733   0              0              584.40135      845.11612      323.51226      0             -626.45805      0              0              9.5049229      9.6343506      0.2            91.57376     
     12100   0.1800104      0.00098402633  0.00098402633  0              0              426.29683      465.40678      387.01816      0             -214.02906      0              0              9.5039611      9.6339269      0.2            91.560467    
     12200   0.1873544      0.00087370254  0.00087370254  0              0              1046.2335      1757.5475      334.73748      0              367.81588      0              0              9.5029994      9.6376663      0.2            91.586737    
     12300   0.17679853     0.00072268433  0.00072268433  0              0              677.61662      1210.1305      144.91402      0             -147.06647      0              0              9.5020376      9.6386113      0.2            91.586447    
     12400   0.23539303     0.00078078038  0.00078078038  0              0              339.25085      666.40019      11.931886      0             -208.79321      0              0              9.5010759      9.6388795      0.2            91.579726    
     12500   0.18332643     0.00096041795  0.00096041795  0              0              398.0905       903.35607     -107.34257      0              319.511        0              0              9.5001141      9.6339827      0.2            91.523935    
     12600   0.2249774      0.00096541261  0.00096541261  0              0              481.1698       1165.1387     -202.9679       0              209.28887      0              0              9.4991524      9.6333457      0.2            91.508619    
     12700   0.19123044     0.00097319635  0.00097319635  0              0             -53.405029      68.740197     -175.71605      0             -503.99935      0              0              9.4981906      9.6292098      0.2            91.460071    
     12800   0.23723782     0.00077493476  0.00077493476  0              0              244.07369      520.46022     -32.47862       0             -409.9917       0              0              9.4972289      9.6268319      0.2            91.428226    
     12900   0.19733874     0.00093090155  0.00093090155  0              0              363.58758      715.45749      11.575503      0              20.33757       0              0              9.4962671      9.6274974      0.2            91.425287    
     13000   0.19914482     0.00085303401  0.00085303401  0              0              69.678544      75.014265      64.138822      0              10.604848      0              0              9.4953054      9.6232691      0.2            91.375879    
     13100   0.22197841     0.0010153325   0.0010153325   0              0              225.67787      387.15343      63.998751      0              718.00787      0              0              9.4943436      9.6313149      0.2            91.443014    
     13200   0.18535226     0.0011619441   0.0011619441   0              0              593.39622      1068.0522      118.5705       0              23.779759      0              0              9.4933819      9.6307491      0.2            91.428379    
     13300   0.22325379     0.00094382542  0.00094382542  0              0             -19.866004     -72.638821      32.72319       0             -92.746304      0              0              9.4924201      9.6267619      0.2            91.381268    
     13400   0.19530083     0.00090579125  0.00090579125  0              0              146.94015      398.30192     -104.57246      0             -5.2735962      0              0              9.4914584      9.6318774      0.2            91.420564    
     13500   0.14816254     0.00093234561  0.00093234561  0              0              50.223029      228.94908     -128.64708      0             -343.92547      0              0              9.4904966      9.6324447      0.2            91.416684    
     13600   0.22908035     0.0011356453   0.0011356453   0              0             -443.71186     -757.64898     -129.99185      0             -180.67008      0              0              9.4895349      9.6305205      0.2            91.389161    
     13700   0.19032761     0.0011173265   0.0011173265   0              0              429.3026       888.60064     -30.148135      0              757.5155       0              0              9.4885731      9.63236        0.2            91.397352    
     13800   0.20521354     0.00095735734  0.00095735734  0              0              310.34097      529.11378      91.376451      0             -346.01131      0              0              9.4876114      9.6263913      0.2            91.33146     
     13900   0.25418594     0.0010637833   0.0010637833   0              0              222.98881      278.09382      167.68747      0              246.716        0              0              9.4866496      9.6251801      0.2            91.310711    
     14000   0.16774172     0.00086264429  0.00086264429  0              0             -1.7258252     -162.29246      158.66136      0             -151.94234      0              0              9.4856879      9.6294963      0.2            91.342396    
     14100   0.16080118     0.0010447706   0.0010447706   0              0              46.085852     -68.197144      160.16073      0              871.70295      0              0              9.4847261      9.6288255      0.2            91.326772    
     14200   0.26515288     0.0010500505   0.0010500505   0              0              427.90671      794.88113      60.758567      0             -239.07151      0              0              9.4837644      9.623288       0.2            91.264996    
     14300   0.22491006     0.00097956941  0.00097956941  0              0              470.68643      1017.1246     -75.937446      0              162.66593      0              0              9.4828026      9.6297208      0.2            91.316741    
     14400   0.20773421     0.00089379264  0.00089379264  0              0             -55.138494      61.602179     -172.04237      0             -261.52535      0              0              9.4818409      9.6343749      0.2            91.351609    
     14500   0.22524941     0.00088992203  0.00088992203  0              0              61.300158      364.95729     -242.49069      0             -552.75609      0              0              9.4808791      9.6294062      0.2            91.295237    
     14600   0.17630456     0.00085981721  0.00085981721  0              0              52.395171      306.36717     -201.75879      0             -549.20769      0              0              9.4799174      9.6259042      0.2            91.252777    
     14700   0.22863047     0.00086353021  0.00086353021  0              0             -185.86279     -237.41986     -134.47681      0             -538.79411      0              0              9.4789556      9.6262117      0.2            91.246433    
     14800   0.24001263     0.00075959196  0.00075959196  0              0             -166.4782      -319.33278     -13.798267      0             -541.40576      0              0              9.4779939      9.6267749      0.2            91.242513    
     14900   0.20197608     0.00088376841  0.00088376841  0              0             -155.74315     -445.94709      134.25772      0             -668.85554      0              0              9.4770321      9.6250927      0.2            91.217313    
     15000   0.18586263     0.00087686911  0.00087686911  0              0              44.383002     -142.09514      230.74196      0             -184.11811      0              0              9.4760704      9.6241752      0.2            91.199362    
     15100   0.19328444     0.0009119882   0.0009119882   0              0              677.32921      1142.1965      212.27934      0             -383.80034      0              0              9.4751086      9.6271151      0.2            91.217961    
     15200   0.1691942      0.00084700209  0.00084700209  0              0              480.86145      721.12229      240.44724      0             -401.69807      0              0              9.4741469      9.6240688      0.2            91.179841    
     15300   0.2006455      0.0012632002   0.0012632002   0              0              599.99435      986.45293      213.36111      0             -461.27197      0              0              9.4731851      9.6214497      0.2            91.145774    
     15400   0.19292691     0.00091861632  0.00091861632  0              0             -50.656937     -216.41397      114.94026      0             -220.34029      0              0              9.4722234      9.6284073      0.2            91.202425    
     15500   0.18868748     0.00097737363  0.00097737363  0              0              414.65094      853.30687     -24.168135      0              212.83655      0              0              9.4712616      9.6320615      0.2            91.227774    
     15600   0.20348491     0.00093671805  0.00093671805  0              0              112.21336      433.63777     -209.36826      0              751.01801      0              0              9.4702999      9.6337401      0.2            91.234408    
     15700   0.17980508     0.0009705846   0.0009705846   0              0             -390.37416     -436.44188     -344.46906      0              85.120447      0              0              9.4693381      9.6263864      0.2            91.155508    
     15800   0.23211117     0.00090279662  0.00090279662  0              0             -4.0425363      384.99348     -393.2547       0              111.174        0              0              9.4683764      9.6249508      0.2            91.132656    
     15900   0.21632858     0.00099467664  0.00099467664  0              0              164.0883       701.23664     -373.24164      0              315.40138      0              0              9.4674146      9.6268121      0.2            91.141021    
     16000   0.25512614     0.00077288064  0.00077288064  0              0             -604.05328     -913.58118     -294.67648      0              224.67192      0              0              9.4664529      9.6342426      0.2            91.202103    
     16100   0.19469202     0.00094605294  0.00094605294  0              0             -96.634301     -83.138069     -110.30708      0             -339.74945      0              0              9.4654911      9.6288748      0.2            91.142029    
     16200   0.12685868     0.00078963394  0.00078963394  0              0              592.65782      1048.6695      136.49494      0             -295.90744      0              0              9.4645294      9.6315849      0.2            91.158418    
     16300   0.17958032     0.00087172778  0.00087172778  0              0              448.89411      554.86168      342.80339      0             -149.07191      0              0              9.4635676      9.6188071      0.2            91.028232    
     16400   0.21253246     0.00087271455  0.00087271455  0              0              447.5768       486.92036      408.06556      0              258.52605      0              0              9.4626059      9.6195606      0.2            91.02611     
     16500   0.21174095     0.00094123773  0.00094123773  0              0              335.4837       208.44482      462.32283      0             -227.37739      0              0              9.4616441      9.6191236      0.2            91.012724    
     16600   0.19919914     0.0012351503   0.0012351503   0              0              20.094022     -341.56605      381.54701      0              61.296694      0              0              9.4606824      9.623391       0.2            91.043846    
     16700   0.20310147     0.0011107687   0.0011107687   0              0             -66.079342     -208.08755      75.760526      0             -174.13297      0              0              9.4597206      9.6206558      0.2            91.008716    
     16800   0.1830608      0.00083562934  0.00083562934  0              0             -289.57572     -365.7381      -213.56868      0             -300.64703      0              0              9.4587589      9.6270943      0.2            91.060364    
     16900   0.23394898     0.0010023131   0.0010023131   0              0             -40.816473      415.67456     -497.48418      0             -346.06413      0              0              9.4577971      9.6260636      0.2            91.041356    
     17000   0.16429781     0.0011125565   0.0011125565   0              0             -358.52075     -117.41385     -599.80477      0             -170.9359       0              0              9.4568354      9.6268841      0.2            91.039858    
     17100   0.23794853     0.00094920976  0.00094920976  0              0              16.194734      570.81573     -538.57419      0             -319.40531      0              0              9.4558736      9.6315293      0.2            91.074524    
     17200   0.21664608     0.00091513273  0.00091513273  0              0              192.34042      717.06342     -332.51932      0             -513.07138      0              0              9.4549118      9.6265771      0.2            91.018437    
     17300   0.25153666     0.00074252236  0.00074252236  0              0             -115.33599     -180.99037     -49.849879      0             -0.38764478     0              0              9.4539501      9.6240536      0.2            90.985323    
     17400   0.22477775     0.0010007031   0.0010007031   0              0              500.10006      723.41433      276.59082      0             -133.73502      0              0              9.4529883      9.6142981      0.2            90.883848    
     17500   0.2036588      0.0010616877   0.0010616877   0              0              414.97151      286.46633      543.31916      0             -736.4273       0              0              9.4520266      9.6101         0.2            90.834921    
     17600   0.21081126     0.00094027168  0.00094027168  0              0              379.58216      217.78448      541.21019      0             -320.14306      0              0              9.4510648      9.6076177      0.2            90.802218    
     17700   0.17772658     0.001171531    0.001171531    0              0              1.5430009     -466.88426      469.79493      0             -328.76125      0              0              9.4501031      9.6001808      0.2            90.722699    
     17800   0.19305672     0.0010601545   0.0010601545   0              0             -177.73248     -557.84816      202.24821      0             -532.52125      0              0              9.4491413      9.6037778      0.2            90.747454    
     17900   0.18332328     0.00087872924  0.00087872924  0              0             -552.92906     -1080.0086     -26.036505      0              127.00295      0              0              9.4481796      9.6098846      0.2            90.795916    
     18000   0.20417021     0.00088237345  0.00088237345  0              0             -393.74102     -403.56435     -384.08389      0             -301.45389      0              0              9.4472178      9.6160513      0.2            90.844932    
     18100   0.20979177     0.00071669821  0.00071669821  0              0             -392.73611     -153.94469     -631.69798      0             -221.73414      0              0              9.4462561      9.6222084      0.2            90.893845    
     18200   0.22853352     0.0008560404   0.0008560404   0              0             -437.75169     -131.32743     -744.40658      0             -46.081289      0              0              9.4452943      9.6256071      0.2            90.916692    
     18300   0.15559601     0.0010045896   0.0010045896   0              0             -497.66786     -423.61212     -571.88651      0             -428.36042      0              0              9.4443326      9.6277809      0.2            90.927965    
     18400   0.23508258     0.0009511337   0.0009511337   0              0              483.77054      1230.3723     -262.96716      0             -854.20805      0              0              9.4433708      9.6291396      0.2            90.931536    
     18500   0.14811409     0.0011580859   0.0011580859   0              0              152.5138       164.91607      139.93137      0             -1085.4554      0              0              9.4424091      9.622279       0.2            90.857494    
     18600   0.20201718     0.001086135    0.001086135    0              0              946.27437      1407.8742      484.52536      0             -475.00833      0              0              9.4414473      9.6233249      0.2            90.858115    
     18700   0.19216128     0.0010215209   0.0010215209   0              0              1000.9208      1258.4037      743.29964      0             -450.81143      0              0              9.4404856      9.6269829      0.2            90.883393    
     18800   0.16796822     0.00092900926  0.00092900926  0              0              808.93946      802.57727      815.12245      0             -408.6651       0              0              9.4395238      9.6186738      0.2            90.795701    
     18900   0.19464915     0.0008883393   0.0008883393   0              0              254.08951     -235.04176      743.08254      0             -247.45609      0              0              9.4385621      9.6191005      0.2            90.790478    
     19000   0.22010952     0.00094240048  0.00094240048  0              0              648.03487      935.85207      360.0524       0             -653.28199      0              0              9.4376003      9.6222964      0.2            90.811388    
     19100   0.21391894     0.00084624678  0.00084624678  0              0              189.65049      466.42992     -87.293569      0             -199.10344      0              0              9.4366386      9.6225142      0.2            90.804189    
     19200   0.2034463      0.0011614847   0.0011614847   0              0              751.61749      2030.1116     -527.04937      0              223.70388      0              0              9.4356768      9.627813       0.2            90.844932    
     19300   0.18603487     0.00081154095  0.00081154095  0              0             -62.443254      839.18582     -964.28101      0             -350.765        0              0              9.4347151      9.6293578      0.2            90.850247    
     19400   0.23766405     0.00086297893  0.00086297893  0              0             -396.59978      408.65985     -1202.0547      0              45.802946      0              0              9.4337533      9.6317805      0.2            90.863842    
     19500   0.1750307      0.00089446274  0.00089446274  0              0             -259.53528      594.49663     -1113.7569      0             -462.40059      0              0              9.4327916      9.6316769      0.2            90.853601    
     19600   0.22798958     0.00089669572  0.00089669572  0              0             -155.45939      445.19514     -756.29348      0              425.03578      0              0              9.4318298      9.6317953      0.2            90.845454    
     19700   0.19004437     0.00095584927  0.00095584927  0              0              59.136877      339.11967     -221.03226      0              346.14629      0              0              9.4308681      9.6257811      0.2            90.779472    
     19800   0.21965075     0.00081510893  0.00081510893  0              0              473.07799      677.97907      268.02061      0              164.6942       0              0              9.4299063      9.6228245      0.2            90.742334    
     19900   0.22427155     0.00098828165  0.00098828165  0              0              339.1407      -171.63711      849.73904      0              559.49024      0              0              9.4289446      9.6167852      0.2            90.676134    
     20000   0.18222507     0.00087892319  0.00087892319  0              0              523.11997     -93.039551      1139.1052      0             -369.11036      0              0              9.4279828      9.6203989      0.2            90.700955    
     20100   0.2154567      0.0010236834   0.0010236834   0              0              880.46824      563.98278      1196.7486      0             -484.10313      0              0              9.4270211      9.6174654      0.2            90.664049    
     20200   0.19649159     0.00082479097  0.00082479097  0              0              1117.9869      1369.7866      865.99447      0             -492.93286      0              0              9.4260593      9.6241765      0.2            90.718059    
     20300   0.19524029     0.0010081758   0.0010081758   0              0              381.90356      317.59409      446.04721      0             -462.61497      0              0              9.4250976      9.6205951      0.2            90.675048    
     20400   0.22820538     0.00087490561  0.00087490561  0              0              274.20436      511.04229      37.179455      0             -645.61738      0              0              9.4241358      9.62314        0.2            90.689779    
     20500   0.21677534     0.0010399337   0.0010399337   0              0              445.35053      1284.1394     -393.59255      0             -152.17733      0              0              9.4231741      9.6291722      0.2            90.737366    
     20600   0.17788235     0.0011038208   0.0011038208   0              0              55.983607      690.39315     -578.60655      0             -204.17083      0              0              9.4222123      9.6307939      0.2            90.743385    
     20700   0.16965036     0.0010303346   0.0010303346   0              0             -596.89151     -547.5252      -646.40877      0             -62.677018      0              0              9.4212506      9.624861       0.2            90.678227    
     20800   0.21923043     0.00087599374  0.00087599374  0              0             -19.782479      506.20102     -545.92393      0             -60.895602      0              0              9.4202888      9.6276915      0.2            90.695635    
     20900   0.22210221     0.0011262278   0.0011262278   0              0             -448.4601      -544.63986     -352.47596      0             -278.28771      0              0              9.4193271      9.6242883      0.2            90.654319    
     21000   0.21493138     0.0010585923   0.0010585923   0              0              492.16796      1131.4994     -147.34132      0              24.602241      0              0              9.4183653      9.6182641      0.2            90.588325    
     21100   0.23482339     0.00090805084  0.00090805084  0              0             -8.8272991     -61.029094      43.187967      0             -485.3695       0              0              9.4174036      9.6186395      0.2            90.58261     
     21200   0.26028832     0.00083127762  0.00083127762  0              0              86.907472     -115.89145      289.5279       0             -524.95902      0              0              9.4164418      9.6144165      0.2            90.533594    
     21300   0.2193286      0.0009664535   0.0009664535   0              0              294.9943       114.24067      475.5696       0             -314.34026      0              0              9.4154801      9.6104479      0.2            90.486981    
     21400   0.22541127     0.0011622805   0.0011622805   0              0              91.340051     -166.9886       349.49427      0             -716.42677      0              0              9.4145183      9.6141353      0.2            90.512453    
     21500   0.19671977     0.00087761098  0.00087761098  0              0              576.66218      903.80573      249.36852      0             -177.65498      0              0              9.4135566      9.6226998      0.2            90.583829    
     21600   0.21505371     0.00076845955  0.00076845955  0              0              1132.1312      2140.1401      123.9464       0             -58.88642       0              0              9.4125948      9.6225623      0.2            90.57328     
     21700   0.26397058     0.00085123635  0.00085123635  0              0              603.82041      1181.1658      26.3465        0             -28.405422      0              0              9.4116331      9.6185097      0.2            90.525884    
     21800   0.21045414     0.00096567478  0.00096567478  0              0              249.23918      639.22797     -140.90563      0             -172.54967      0              0              9.4106713      9.6210889      0.2            90.540905    
     21900   0.21411237     0.00079105128  0.00079105128  0              0              8.3116754      287.42533     -271.02165      0             -897.49135      0              0              9.4097096      9.622679       0.2            90.546614    
     22000   0.21010482     0.0010092672   0.0010092672   0              0             -679.91941     -984.40354     -375.65203      0             -630.7756       0              0              9.4087478      9.6213987      0.2            90.525314    
     22100   0.20289159     0.0010198137   0.0010198137   0              0             -357.55527     -345.17897     -370.09694      0             -494.17053      0              0              9.4077861      9.6235658      0.2            90.536448    
     22200   0.18741145     0.00073744185  0.00073744185  0              0             -131.50341      16.865651     -280.06702      0             -437.97108      0              0              9.4068243      9.6184789      0.2            90.479341    
     22300   0.17277223     0.00099110966  0.00099110966  0              0              152.44681      413.51595     -108.80095      0             -256.19377      0              0              9.4058626      9.615679       0.2            90.443755    
     22400   0.21470272     0.00077934933  0.00077934933  0              0              146.07342      242.64326      49.33261       0             -688.29766      0              0              9.4049008      9.6146001      0.2            90.42436     
     22500   0.21328566     0.0010032247   0.0010032247   0              0             -70.622352     -357.0329       215.61905      0             -327.81357      0              0              9.4039391      9.6089389      0.2            90.361876    
     22600   0.16086953     0.00089703895  0.00089703895  0              0              369.63672      302.64827      436.46385      0             -160.87861      0              0              9.4029773      9.6105013      0.2            90.367326    
     22700   0.20909608     0.00099728749  0.00099728749  0              0             -25.080927     -472.88652      422.55208      0             -668.38189      0              0              9.4020156      9.6076622      0.2            90.33139     
     22800   0.25375111     0.001038872    0.001038872    0              0              278.04345      202.88445      352.98685      0             -643.32678      0              0              9.4010538      9.6113219      0.2            90.356554    
     22900   0.21179424     0.0010371268   0.0010371268   0              0             -373.43195     -964.2175       217.18891      0             -491.29472      0              0              9.4000921      9.6085547      0.2            90.321299    
     23000   0.25691317     0.00097084956  0.00097084956  0              0             -53.008004     -102.97411     -3.1878098      0             -348.22662      0              0              9.3991303      9.6024328      0.2            90.254518    
     23100   0.2078203      0.00096057248  0.00096057248  0              0             -88.761125      189.57696     -367.28284      0             -109.21577      0              0              9.3981686      9.607155       0.2            90.289662    
     23200   0.20365912     0.0009104643   0.0009104643   0              0             -588.62801     -587.30355     -590.11016      0             -641.76786      0              0              9.3972068      9.6060732      0.2            90.270257    
     23300   0.21791831     0.00089231986  0.00089231986  0              0             -267.88401      73.335559     -609.27902      0             -334.21388      0              0              9.3962451      9.6077962      0.2            90.277207    
     23400   0.1834517      0.00076363967  0.00076363967  0              0              129.62119      770.63918     -511.55922      0             -321.66064      0              0              9.3952833      9.6092362      0.2            90.281496    
     23500   0.2222326      0.00089673016  0.00089673016  0              0              223.0321       638.66937     -192.73073      0             -555.75496      0              0              9.3943216      9.6064294      0.2            90.245887    
     23600   0.24240042     0.00076803298  0.00076803298  0              0              434.82613      687.00421      182.45625      0              31.409994      0              0              9.3933598      9.6092402      0.2            90.263051    
     23700   0.23777163     0.00097811626  0.00097811626  0              0              295.33529     -121.7923       712.28997      0             -359.9647       0              0              9.3923981      9.6026909      0.2            90.192296    
     23800   0.20791064     0.0010662294   0.0010662294   0              0              1073.2834      1121.3442      1025.0533      0             -624.2777       0              0              9.3914363      9.6020774      0.2            90.177298    
     23900   0.20912062     0.0011478269   0.0011478269   0              0              448.88204     -280.91874      1178.5027      0             -297.24391      0              0              9.3904746      9.6011013      0.2            90.158897    
     24000   0.20896052     0.00096881607  0.00096881607  0              0              1068.4599      1200.5692      936.20634      0             -622.42152      0              0              9.3895128      9.6056111      0.2            90.192008    
     24100   0.19341781     0.0010525177   0.0010525177   0              0              396.7181       343.10865      450.15675      0             -95.242224      0              0              9.3885511      9.6052298      0.2            90.17919     
     24200   0.17977822     0.00082743742  0.00082743742  0              0              86.22849       283.99622     -111.70372      0             -293.76306      0              0              9.3875893      9.6058161      0.2            90.175456    
     24300   0.19426628     0.00091896113  0.00091896113  0              0             -288.57954      50.768408     -628.10034      0             -477.55137      0              0              9.3866276      9.6082455      0.2            90.189022    
     24400   0.2005646      0.0010679511   0.0010679511   0              0             -467.60506      118.43469     -1053.8312      0             -347.27608      0              0              9.3856658      9.6068372      0.2            90.166563    
     24500   0.20722726     0.00082332355  0.00082332355  0              0             -532.4809       168.09583     -1233.222       0             -324.37236      0              0              9.3847041      9.6086528      0.2            90.174363    
     24600   0.20412826     0.00092396807  0.00092396807  0              0             -303.81922      419.70112     -1027.473       0             -263.56117      0              0              9.3837423      9.6118483      0.2            90.195107    
     24700   0.21121679     0.0010338109   0.0010338109   0              0              37.444144      532.63948     -457.88684      0             -465.95771      0              0              9.3827806      9.6075249      0.2            90.145298    
     24800   0.17014304     0.0011746755   0.0011746755   0              0              359.77636      442.29311      277.09803      0             -15.223093      0              0              9.3818188      9.6043096      0.2            90.105892    
     24900   0.19024983     0.001105901    0.001105901    0              0              1261.178       1572.1331      950.06462      0             -927.43619      0              0              9.3808571      9.599569       0.2            90.052184    
     25000   0.21175689     0.001127201    0.001127201    0              0              1211.2153      1262.1949      1160.0362      0              260.38972      0              0              9.3798953      9.6043373      0.2            90.087678    
     25100   0.21983611     0.0011186861   0.0011186861   0              0              1466.0379      1803.1685      1128.7519      0             -719.27598      0              0              9.3789336      9.6037332      0.2            90.072776    
     25200   0.1924211      0.00096112172  0.00096112172  0              0              1324.4805      1837.5993      811.20114      0             -233.9314       0              0              9.3779718      9.6072875      0.2            90.096871    
     25300   0.20985884     0.00084071625  0.00084071625  0              0              1136.668       1884.5178      388.66401      0             -248.30641      0              0              9.3770101      9.6068984      0.2            90.083982    
     25400   0.20799186     0.0011023697   0.0011023697   0              0              836.6142       1729.7762     -56.696494      0             -619.99358      0              0              9.3760483      9.6099995      0.2            90.10382     
     25500   0.18471066     0.00095093452  0.00095093452  0              0              513.52611      1434.9832     -408.12735      0             -514.30067      0              0              9.3750866      9.610813       0.2            90.102204    
     25600   0.24123541     0.00091731149  0.00091731149  0              0             -295.93486     -36.456026     -555.60923      0             -476.64466      0              0              9.3741248      9.6089908      0.2            90.075879    
     25700   0.22374363     0.00093935362  0.00093935362  0              0             -20.832115      566.64603     -608.47771      0             -490.39242      0              0              9.3731631      9.609272       0.2            90.069273    
     25800   0.20000771     0.00094580339  0.00094580339  0              0              473.03393      1381.9073     -435.99891      0             -178.67302      0              0              9.3722013      9.6128421      0.2            90.093491    
     25900   0.19554964     0.0010001139   0.0010001139   0              0              174.67437      464.67741     -115.49861      0             -401.76594      0              0              9.3712396      9.6078802      0.2            90.037747    
     26000   0.18340836     0.0011217909   0.0011217909   0              0              616.06766      1154.4049      77.549123      0             -144.07446      0              0              9.3702778      9.6080776      0.2            90.030356    
     26100   0.19075969     0.0010938322   0.0010938322   0              0              298.69632      265.4461       331.77645      0             -580.75353      0              0              9.3693161      9.6082833      0.2            90.023043    
     26200   0.22188287     0.00099506577  0.00099506577  0              0              623.16027      805.41515      440.71711      0             -668.45204      0              0              9.3683543      9.6080245      0.2            90.011378    
     26300   0.22945461     0.00098810111  0.00098810111  0              0              523.82752      545.18368      502.3089       0             -572.04979      0              0              9.3673926      9.6040039      0.2            89.964475    
     26400   0.17927146     0.0010428718   0.0010428718   0              0              1116.8349      1822.6433      410.87391      0             -758.25631      0              0              9.3664308      9.6031607      0.2            89.94734     
     26500   0.22490403     0.001021066    0.001021066    0              0              531.19018      799.33033      262.87187      0             -350.83467      0              0              9.365469       9.6082357      0.2            89.985634    
     26600   0.22075922     0.0009854024   0.0009854024   0              0              487.2358       956.03312      18.277218      0             -253.38822      0              0              9.3645073      9.6086732      0.2            89.980491    
     26700   0.18359494     0.00087752844  0.00087752844  0              0              474.90296      1160.658      -211.04968      0             -92.531027      0              0              9.3635455      9.6133679      0.2            90.015208    
     26800   0.18328345     0.00099676537  0.00099676537  0              0             -62.715112      203.43823     -329.02515      0             -24.926252      0              0              9.3625838      9.6089         0.2            89.964131    
     26900   0.20881781     0.001179188    0.001179188    0              0             -94.075798      216.48139     -404.81877      0             -183.12777      0              0              9.361622       9.605467       0.2            89.922752    
     27000   0.21340521     0.00084907971  0.00084907971  0              0             -232.33836     -174.69925     -290.1977       0             -837.38669      0              0              9.3606603      9.6069653      0.2            89.927538    
     27100   0.25917132     0.0010120529   0.0010120529   0              0              288.58393      680.34331     -103.36916      0             -280.95995      0              0              9.3596985      9.6125405      0.2            89.970481    
     27200   0.2567676      0.00093984795  0.00093984795  0              0             -96.044109     -175.5663      -16.74227       0             -611.27002      0              0              9.3587368      9.603302       0.2            89.874776    
     27300   0.1937554      0.00080460905  0.00080460905  0              0              200.23296      334.83763      65.465072      0             -686.36336      0              0              9.357775       9.6027461      0.2            89.860338    
     27400   0.22493013     0.00078257903  0.00078257903  0              0              561.95091      934.10521      189.64908      0             -281.466        0              0              9.3568133      9.5998625      0.2            89.824121    
     27500   0.19281994     0.0011888878   0.0011888878   0              0              249.71225      338.95905      160.23154      0              110.67794      0              0              9.3558515      9.6008671      0.2            89.824287    
     27600   0.24604961     0.0010543642   0.0010543642   0              0              615.32297      1099.3213      131.13259      0             -623.39475      0              0              9.3548898      9.6055592      0.2            89.858948    
     27700   0.2100817      0.00098337045  0.00098337045  0              0              234.84863      329.30733      140.21363      0             -294.87606      0              0              9.353928       9.6014511      0.2            89.811283    
     27800   0.22523483     0.00087303681  0.00087303681  0              0              319.02365      538.93776      98.966056      0             -285.27034      0              0              9.3529663      9.6019062      0.2            89.806305    
     27900   0.19137802     0.0010590984   0.0010590984   0              0              213.6155       358.42435      68.626276      0             -349.26244      0              0              9.3520045      9.6019988      0.2            89.797936    
     28000   0.23132468     0.00083500487  0.00083500487  0              0              144.91697      348.04083     -58.431979      0             -324.68999      0              0              9.3510428      9.5998725      0.2            89.768818    
[...]
     43000   0.17370754     0.0010161123   0.0010161123   0              0              471.79138      493.80477      449.6335       0             -127.27189      0              0              9.2067802      9.5969594      0.2            88.357095    
     43100   0.22614886     0.00073391546  0.00073391546  0              0              655.3739       763.01786      547.581        0             -466.96469      0              0              9.2058185      9.5944278      0.2            88.32456     
     43200   0.17624415     0.0010572829   0.0010572829   0              0              1027.0785      1532.817       521.11074      0              95.741689      0              0              9.2048567      9.5967486      0.2            88.336696    
     43300   0.21466954     0.00087304799  0.00087304799  0              0              528.59864      642.97276      414.05996      0             -788.48364      0              0              9.203895       9.5986564      0.2            88.345025    
     43400   0.21969454     0.0010888353   0.0010888353   0              0              50.352878     -182.2117       282.70147      0             -9.5893267      0              0              9.2029332      9.6042182      0.2            88.386979    
     43500   0.18862994     0.001098466    0.001098466    0              0              192.55328      208.23272      176.68868      0             -912.67708      0              0              9.2019715      9.6005618      0.2            88.344095    
     43600   0.20087177     0.0011300215   0.0011300215   0              0              274.0453       548.97028     -1.1003492      0              310.45201      0              0              9.2010097      9.6020908      0.2            88.348931    
     43700   0.1995677      0.0010809539   0.0010809539   0              0              372.13328      956.99004     -212.93137      0             -276.16738      0              0              9.200048       9.6073967      0.2            88.388511    
     43800   0.23714808     0.0010894059   0.0010894059   0              0              426.30517      1227.1438     -374.72206      0             -538.06382      0              0              9.1990862      9.612912       0.2            88.430006    
     43900   0.17584026     0.00099351966  0.00099351966  0              0              370.12976      1133.6228     -393.56013      0              370.60288      0              0              9.1981245      9.609731       0.2            88.391501    
     44000   0.16835018     0.0012064233   0.0012064233   0              0              158.66321      623.83718     -306.66219      0             -426.24849      0              0              9.1971627      9.607502       0.2            88.361759    
     44100   0.20385985     0.0010401899   0.0010401899   0              0             -64.913558      106.21524     -236.20628      0              92.227899      0              0              9.196201       9.6056695      0.2            88.335667    
     44200   0.17078999     0.00097018017  0.00097018017  0              0              116.13388      378.47559     -146.36108      0             -231.52011      0              0              9.1952392      9.6097143      0.2            88.363622    
     44300   0.18301102     0.00088698796  0.00088698796  0              0              37.410734      184.5803      -109.94592      0              18.639159      0              0              9.1942775      9.6081425      0.2            88.339928    
     44400   0.19558635     0.00097182972  0.00097182972  0              0              575.50117      1028.4737      122.33107      0              634.54715      0              0              9.1933157      9.6053102      0.2            88.304649    
     44500   0.18552679     0.00092265089  0.00092265089  0              0              225.66723      193.34372      257.81733      0             -172.98811      0              0              9.192354       9.5996332      0.2            88.243226    
     44600   0.2184892      0.00099196464  0.00099196464  0              0              329.92998      328.74658      330.9402       0              651.58472      0              0              9.1913922      9.60217        0.2            88.257311    
     44700   0.18626834     0.001213532    0.001213532    0              0             -100.2998      -584.7788       383.9911       0              941.22053      0              0              9.1904305      9.5993391      0.2            88.222058    
     44800   0.19109927     0.0011343436   0.0011343436   0              0              307.80055      256.93665      358.4787       0             -258.24452      0              0              9.1894687      9.5984691      0.2            88.204832    
     44900   0.20865244     0.0013212783   0.0013212783   0              0              175.807        45.866752      305.60214      0              285.73025      0              0              9.188507       9.603476       0.2            88.241606    
     45000   0.25500587     0.0012070893   0.0012070893   0              0              240.90308      204.49314      277.17096      0             -65.109833      0              0              9.1875452      9.6049118      0.2            88.245561    
     45100   0.27694853     0.0009094999   0.0009094999   0              0              458.49778      734.0792       182.78041      0              70.755591      0              0              9.1865834      9.6044375      0.2            88.231967    
     45200   0.20556965     0.0011499549   0.0011499549   0              0              463.20848      994.69787     -68.471734      0             -9.8073703      0              0              9.1856217      9.604241       0.2            88.220924    
     45300   0.20863764     0.0010903722   0.0010903722   0              0              540.69828      1335.1772     -253.94686      0             -496.04637      0              0              9.1846599      9.6112167      0.2            88.275757    
     45400   0.15765437     0.0011952667   0.0011952667   0              0              290.85252      1053.5885     -472.02332      0             -27.729248      0              0              9.1836982      9.6094358      0.2            88.250158    
     45500   0.21359479     0.0011981974   0.0011981974   0              0              265.93865      1081.9875     -550.28765      0              386.56287      0              0              9.1827364      9.6113675      0.2            88.258654    
     45600   0.25467315     0.0010904512   0.0010904512   0              0              280.33291      1292.82       -732.33684      0             -224.24587      0              0              9.1817747      9.6154703      0.2            88.287081    
     45700   0.21630692     0.0011365623   0.0011365623   0              0             -134.82882      555.72488     -825.49772      0             -291.30001      0              0              9.1808129      9.6125308      0.2            88.250847    
     45800   0.22498097     0.0010597173   0.0010597173   0              0             -63.35297       680.38276     -807.29889      0             -493.67915      0              0              9.1798512      9.6115014      0.2            88.232153    
     45900   0.20851967     0.0012609415   0.0012609415   0              0             -84.013679      498.00998     -666.1883       0             -768.67248      0              0              9.1788894      9.6065469      0.2            88.177432    
     46000   0.2118067      0.0014720936   0.0014720936   0              0              550.68105      1470.3766     -369.21721      0             -288.19787      0              0              9.1779277      9.6028595      0.2            88.13435     
     46100   0.22594084     0.0011344243   0.0011344243   0              0              826.89955      1696.0697     -42.452169      0             -94.392942      0              0              9.1769659      9.6017341      0.2            88.114787    
     46200   0.1963477      0.0011012895   0.0011012895   0              0              916.38272      1498.7192      333.8873       0             -29.524004      0              0              9.1760042      9.6020748      0.2            88.108678    
     46300   0.17582318     0.0011095806   0.0011095806   0              0              1355.1712      1803.6081      906.57191      0             -649.85246      0              0              9.1750424      9.5951409      0.2            88.035825    
     46400   0.21360424     0.0012178937   0.0012178937   0              0              1314.7791      1233.6061      1395.7835      0             -413.53485      0              0              9.1740807      9.5821536      0.2            87.907451    
     46500   0.23128646     0.0012516298   0.0012516298   0              0              1812.4822      1875.1726      1749.604       0             -681.26322      0              0              9.1731189      9.5764136      0.2            87.845581    
     46600   0.22470132     0.0010857132   0.0010857132   0              0              1272.3219      732.48115      1811.979       0              8.4848072      0              0              9.1721572      9.5833122      0.2            87.899646    
     46700   0.18755711     0.0014010222   0.0014010222   0              0              1060.1913      642.20889      1478.0202      0             -33.957818      0              0              9.1711954      9.5806146      0.2            87.865689    
     46800   0.22891653     0.00099360211  0.00099360211  0              0              129.58847     -417.1646       676.17601      0             -115.44338      0              0              9.1702337      9.5810312      0.2            87.860295    
     46900   0.22146175     0.00091071381  0.00091071381  0              0             -153.32118     -132.34761     -174.46969      0              2.6711678      0              0              9.1692719      9.5907237      0.2            87.939953    
     47000   0.21589066     0.0010557722   0.0010557722   0              0             -366.36273      179.12635     -912.03626      0             -112.66203      0              0              9.1683102      9.597846       0.2            87.996029    
     47100   0.2265398      0.0009788082   0.0009788082   0              0             -866.24335     -330.84229     -1401.7875      0             -405.64756      0              0              9.1673484      9.6005481      0.2            88.01157     
     47200   0.17834881     0.0011662679   0.0011662679   0              0             -1301.4362     -947.13994     -1655.9048      0              213.98546      0              0              9.1663867      9.5976454      0.2            87.975729    
     47300   0.19612748     0.00098432894  0.00098432894  0              0             -1202.0231     -886.58        -1517.6267      0              323.12337      0              0              9.1654249      9.6037909      0.2            88.022825    
     47400   0.14526546     0.00098974523  0.00098974523  0              0             -716.55032     -245.93465     -1187.361       0             -413.78695      0              0              9.1644632      9.5973303      0.2            87.95438     
     47500   0.19194958     0.0012056765   0.0012056765   0              0             -386.13732      36.986107     -809.46437      0              101.59337      0              0              9.1635014      9.5932219      0.2            87.907502    
     47600   0.19785094     0.0011815588   0.0011815588   0              0             -358.93987     -306.54079     -411.49571      0              29.550237      0              0              9.1625397      9.5921038      0.2            87.888032    
     47700   0.21017068     0.0010596865   0.0010596865   0              0              249.35621      466.56918      31.952988      0             -254.98698      0              0              9.1615779      9.5921986      0.2            87.879675    
     47800   0.23101062     0.0010243343   0.0010243343   0              0              624.96337      938.31809      311.41809      0              239.31718      0              0              9.1606162      9.5944697      0.2            87.891255    
     47900   0.23623483     0.00094359481  0.00094359481  0              0              1488.0006      2324.6641      651.16855      0             -688.58514      0              0              9.1596544      9.5921307      0.2            87.860603    
     48000   0.19344375     0.001142711    0.001142711    0              0              955.72132      1076.2021      835.07863      0              416.23527      0              0              9.1586927      9.5892052      0.2            87.824583    
     48100   0.2254446      0.0013233152   0.0013233152   0              0              484.85833      161.21423      808.31192      0              592.34141      0              0              9.1577309      9.5901037      0.2            87.823589    
     48200   0.24662477     0.001019461    0.001019461    0              0              990.22159      1184.1687      796.08056      0             -80.408519      0              0              9.1567692      9.5881155      0.2            87.796161    
     48300   0.22595565     0.0012231011   0.0012231011   0              0              894.39173      1154.088       634.51649      0              449.2397       0              0              9.1558074      9.5873882      0.2            87.78028     
     48400   0.26819247     0.00094372493  0.00094372493  0              0              733.47534      998.539        468.21725      0              416.01432      0              0              9.1548457      9.5863071      0.2            87.761162    
     48500   0.25049757     0.0011020766   0.0011020766   0              0              1008.2618      1728.4339      287.90139      0              446.9364       0              0              9.1538839      9.586877       0.2            87.75716     
     48600   0.22970224     0.0013411796   0.0013411796   0              0              139.50233      321.52947     -42.694196      0              291.53977      0              0              9.1529222      9.592293       0.2            87.797511    
     48700   0.23317552     0.00095113833  0.00095113833  0              0             -281.54939     -232.91403     -330.36387      0              357.56061      0              0              9.1519604      9.5895288      0.2            87.762988    
     48800   0.19184753     0.00097472231  0.00097472231  0              0             -131.4857       305.9759      -569.10842      0             -137.36168      0              0              9.1509987      9.5868665      0.2            87.729403    
     48900   0.1980194      0.00092383649  0.00092383649  0              0             -236.19146      288.11157     -760.66165      0             -284.24967      0              0              9.1500369      9.5903896      0.2            87.752419    
     49000   0.17993363     0.00088434133  0.00088434133  0              0              37.813149      888.06138     -812.62474      0             -12.041561      0              0              9.1490752      9.5918606      0.2            87.756654    
     49100   0.18998618     0.00089010123  0.00089010123  0              0              24.753059      727.02975     -677.72304      0              84.260628      0              0              9.1481134      9.5884153      0.2            87.71591     
     49200   0.27526429     0.0012294601   0.0012294601   0              0              451.77855      1385.09       -481.70459      0             -41.822194      0              0              9.1471517      9.5907034      0.2            87.727618    
     49300   0.18631316     0.00082839295  0.00082839295  0              0              387.4029       1072.9338     -298.29367      0             -531.96403      0              0              9.1461899      9.5936665      0.2            87.745496    
     49400   0.23336485     0.00087829766  0.00087829766  0              0              307.9312       750.25718     -134.58654      0              57.288967      0              0              9.1452282      9.5857948      0.2            87.664281    
     49500   0.19877092     0.00078893847  0.00078893847  0              0              715.63773      1245.3305      185.71477      0             -403.87091      0              0              9.1442664      9.5851495      0.2            87.649161    
     49600   0.21385045     0.00094939548  0.00094939548  0              0              198.24624      25.340841      370.94546      0              3.6293408      0              0              9.1433047      9.5859568      0.2            87.647324    
     49700   0.21922905     0.0012471159   0.0012471159   0              0              1179.3327      1826.7345      531.7397       0             -739.80074      0              0              9.1423429      9.5871944      0.2            87.649419    
     49800   0.18141072     0.0012266503   0.0012266503   0              0              1177.995       1800.9736      554.83545      0             -913.99509      0              0              9.1413812      9.5889039      0.2            87.655826    
     49900   0.23063869     0.0011213701   0.0011213701   0              0              1332.3228      2112.8183      551.67685      0             -798.81942      0              0              9.1404194      9.5903091      0.2            87.659447    
     50000   0.21058807     0.0010304222   0.0010304222   0              0              612.93671      820.32836      405.41146      0             -442.87756      0              0              9.1394577      9.5851452      0.2            87.603028    
     50100   0.14896723     0.00099339654  0.00099339654  0              0             -112.86332     -368.53724      142.5927       0             -869.20714      0              0              9.1384959      9.5839249      0.2            87.582659    
     50200   0.2090968      0.00098048222  0.00098048222  0              0             -237.51804     -373.03906     -102.16067      0             -689.97319      0              0              9.1375342      9.5808443      0.2            87.545292    
     50294   0.13933442     0.0010505408   0.0010505408   0              0              215.29887      353.95882      76.488851      0              210.17307      0              0              9.1366301      9.5831736      0.2            87.557912    
Loop time of 1.03423 on 1 procs for 50000 steps with 56 atoms

Performance: 41770.030 ns/day, 0.001 hours/ns, 48344.943 timesteps/s
98.4% CPU use with 1 MPI tasks x 1 OpenMP threads

MPI task timing breakdown:
Section |  min time  |  avg time  |  max time  |%varavg| %total
---------------------------------------------------------------
Pair    | 0          | 0          | 0          |   0.0 |  0.00
Bond    | 0.14861    | 0.14861    | 0.14861    |   0.0 | 14.37
Neigh   | 0          | 0          | 0          |   0.0 |  0.00
Comm    | 0.33734    | 0.33734    | 0.33734    |   0.0 | 32.62
Output  | 0.006695   | 0.006695   | 0.006695   |   0.0 |  0.65
Modify  | 0.51615    | 0.51615    | 0.51615    |   0.0 | 49.91
Other   |            | 0.02544    |            |       |  2.46

Nlocal:             56 ave          56 max          56 min
Histogram: 1 0 0 0 0 0 0 0 0 0
Nghost:            463 ave         463 max         463 min
Histogram: 1 0 0 0 0 0 0 0 0 0
Neighs:              0 ave           0 max           0 min
Histogram: 1 0 0 0 0 0 0 0 0 0

Total # of neighbors = 0
Ave neighs/atom = 0
Ave special neighs/atom = 22.428571
Neighbor list builds = 0
Dangerous builds = 0


Total wall time: 0:00:01
