LAMMPS data file.

     56 atoms
    114 bonds
      0 angles
      0 dihedrals
      0 impropers
      1 atom types
    114 bond types
      0 angle types
      0 dihedral types
      0 improper types
  -4.808753   4.808753 xlo xhi
  -4.808753   4.808753 ylo yhi
  -0.100000   0.100000 zlo zhi

Masses # ['atom_id', 'mass']

1 10000.0

Atoms # ['atomID', 'moleculeID', 'atomType', 'charge', 'x', 'y', 'z']

     25      1      1   0.000000  -3.015903   4.799929   0.000000
      3      1      1   0.000000  -1.654731  -4.512225   0.000000
     67      1      1   0.000000  -0.630748  -4.529505   0.000000
     58      1      1   0.000000  -0.338230  -3.825772   0.000000
     32      1      1   0.000000   0.675000  -3.967924   0.000000
     80      1      1   0.000000  -0.012805  -4.543142   0.000000
     18      1      1   0.000000   2.077465  -3.995433   0.000000
     34      1      1   0.000000  -1.276574  -3.308252   0.000000
     55      1      1   0.000000  -0.191730  -2.997724   0.000000
     30      1      1   0.000000   1.193398  -3.052425   0.000000
     33      1      1   0.000000   3.017059  -3.193610   0.000000
     11      1      1   0.000000  -4.156402  -1.260359   0.000000
     37      1      1   0.000000  -3.141881  -2.256731   0.000000
     29      1      1   0.000000  -1.987758  -2.444546   0.000000
     39      1      1   0.000000  -0.874439  -2.182725   0.000000
      8      1      1   0.000000   0.408301  -2.000611   0.000000
     44      1      1   0.000000   2.508576  -2.184361   0.000000
     69      1      1   0.000000   3.279190  -2.398654   0.000000
     35      1      1   0.000000  -3.067970  -0.362642   0.000000
     54      1      1   0.000000  -2.476246  -1.422462   0.000000
     65      1      1   0.000000  -1.487103  -0.774903   0.000000
     42      1      1   0.000000  -0.841443  -1.208133   0.000000
     12      1      1   0.000000   1.923860  -1.212951   0.000000
     16      1      1   0.000000   3.495906  -1.274036   0.000000
      6      1      1   0.000000   4.568278  -0.009127   0.000000
     40      1      1   0.000000  -3.887633   0.570465   0.000000
     49      1      1   0.000000  -2.213704  -0.651773   0.000000
     77      1      1   0.000000  -1.660212  -0.046381   0.000000
     27      1      1   0.000000  -0.712516  -0.203119   0.000000
     17      1      1   0.000000   0.597947  -0.551632   0.000000
     53      1      1   0.000000   1.173385   0.599381   0.000000
     15      1      1   0.000000   2.985968   0.037395   0.000000
      2      1      1   0.000000  -2.643512   1.028130   0.000000
     21      1      1   0.000000  -1.306402   0.833715   0.000000
     14      1      1   0.000000   0.021494   0.845380   0.000000
     79      1      1   0.000000   1.910185   0.777686   0.000000
     26      1      1   0.000000   2.652249   1.326115   0.000000
     23      1      1   0.000000   3.806901   1.078541   0.000000
     28      1      1   0.000000  -3.912853   1.688786   0.000000
     10      1      1   0.000000  -3.039620   2.656146   0.000000
     24      1      1   0.000000  -1.903730   1.978059   0.000000
     59      1      1   0.000000  -0.909214   1.792081   0.000000
     13      1      1   0.000000   0.106979   2.391255   0.000000
      7      1      1   0.000000   1.483674   1.678409   0.000000
     68      1      1   0.000000   2.522980   2.077422   0.000000
      5      1      1   0.000000  -3.839535   3.901707   0.000000
     72      1      1   0.000000  -2.836094   3.622816   0.000000
     57      1      1   0.000000  -1.764885   2.934627   0.000000
     43      1      1   0.000000  -0.921408   2.763779   0.000000
     41      1      1   0.000000   1.378193   2.970266   0.000000
      1      1      1   0.000000   2.575827   3.061208   0.000000
     22      1      1   0.000000  -2.160071   3.852998   0.000000
      9      1      1   0.000000  -0.746280   3.936499   0.000000
     48      1      1   0.000000   0.277401   4.423463   0.000000
     52      1      1   0.000000   0.416817   3.448557   0.000000
      4      1      1   0.000000   1.550862   4.142865   0.000000

Bond Coeffs # ['bondID', 'bondCoeff', 'd']

      1   1.427208   0.837060
      2   0.598502   1.292610
      3   1.229457   0.901869
      4   1.960817   0.714137
      5   1.841248   0.736960
      6   1.006832   0.996601
      7   0.456343   1.480315
      8   0.456343   1.480315
      9   0.547747   1.351170
     10   0.648283   1.241989
     11   0.718568   1.179685
     12   0.870839   1.071596
     13   1.720659   0.762347
     14   0.488355   1.430976
     15   0.468273   1.461338
     16   1.058936   0.971774
     17   0.711844   1.185243
     18   1.111421   0.948551
     19   0.416071   1.550302
     20   2.617535   0.618093
     21   0.798869   1.118825
     22   0.603880   1.286840
     23   0.600123   1.290862
     24   0.671286   1.220524
     25   0.508217   1.402735
     26   0.835873   1.093780
     27   0.455500   1.481685
     28   0.799183   1.118606
     29   0.548372   1.350400
     30   0.548372   1.350400
     31   0.929173   1.037413
     32   0.437840   1.511270
     33   0.762352   1.145308
     34   0.711266   1.185725
     35   1.078840   0.962768
     36   0.628581   1.261302
     37   1.083783   0.960569
     38   0.884709   1.063163
     39   0.569057   1.325630
     40   1.024723   0.987863
     41   1.508546   0.814181
     42   0.700023   1.195209
     43   0.595231   1.296156
     44   0.689825   1.204011
     45   0.700415   1.194874
     46   0.567306   1.327673
     47   0.877905   1.067275
     48   1.414174   0.840908
     49   0.580488   1.312513
     50   0.764508   1.143692
     51   0.823799   1.101766
     52   0.693194   1.201082
     53   1.051615   0.975150
     54   0.806863   1.113269
     55   0.417182   1.548237
     56   1.968924   0.712665
     57   1.968924   0.712665
     58   0.673323   1.218676
     59   1.563065   0.799855
     60   0.783001   1.130105
     61   0.953434   1.024129
     62   0.450342   1.490146
     63   0.655413   1.235215
     64   1.486208   0.820277
     65   0.720789   1.177866
     66   0.785352   1.128412
     67   0.588817   1.303197
     68   1.174492   0.922731
     69   0.568856   1.325864
     70   0.404031   1.573232
     71   0.513867   1.395002
     72   0.564281   1.331228
     73   0.513867   1.395002
     74   0.613826   1.276372
     75   0.793284   1.122757
     76   1.000422   0.999789
     77   0.974019   1.013249
     78   0.423241   1.537114
     79   0.543841   1.356014
     80   0.423241   1.537114
     81   0.610456   1.279891
     82   0.717095   1.180896
     83   1.031058   0.984824
     84   1.030262   0.985204
     85   0.502366   1.410879
     86   1.654082   0.777538
     87   0.456353   1.480299
     88   0.505079   1.407085
     89   1.721744   0.762107
     90   0.738404   1.163732
     91   1.740136   0.758068
     92   1.243855   0.896634
     93   0.498560   1.416254
     94   0.571412   1.322894
     95   0.399063   1.582994
     96   0.903444   1.052082
     97   0.494557   1.421974
     98   0.731382   1.169305
     99   1.070321   0.966591
    100   0.921937   1.041476
    101   0.567072   1.327947
    102   1.611549   0.787731
    103   0.405619   1.570149
    104   0.405619   1.570149
    105   0.777890   1.133812
    106   0.593391   1.298164
    107   0.593391   1.298164
    108   0.627922   1.261965
    109   0.955253   1.023153
    110   1.350179   0.860606
    111   0.976896   1.011756
    112   0.595739   1.295603
    113   0.778176   1.133603
    114   0.779256   1.132817

Bonds # ['ID', 'type', 'atom1', 'atom2']

         1         1        33        69
         2         2        18        30
         3         3        35        49
         4         4        72        22
         5         5        65        49
         6         6        79         7
         7         7         3         9
         8         8         9         3
         9         9         2        21
        10        10        35        40
        11        11        59        13
        12        12        58        34
        13        13        26        68
        14        14         2        28
        15        15         8        17
        16        16        59        43
        17        17        41         4
        18        18        77        21
        19        19        13         7
        20        20        67        80
        21        21        34        29
        22        22        17        53
        23        23        21        24
        24        24        26         7
        25        25        32        18
        26        26        13        43
        27        27        12        17
        28        28        40        28
        29        29         3        22
        30        30        22         3
        31        31        21        59
        32        32        17        14
        33        33        69        16
        34        34        43         9
        35        35        65        27
        36        36         9        52
        37        37        77        27
        38        38        55        39
        39        39        40         2
        40        40        10        72
        41        41        54        49
        42        42        34        39
        43        43         7        41
        44        44         2        24
        45        45        27        21
        46        46         6        23
        47        47        37        54
        48        48        58        55
        49        49        30         8
        50        50        29        39
        51        51        13        52
        52        52        41         1
        53        53        39        42
        54        54         7        68
        55        55        14        13
        56        56        80        48
        57        57        48        80
        58        58        25         5
        59        59        44        69
        60        60        33        44
        61        61         3        67
        62        62         1         4
        63        63        18        33
        64        64        49        77
        65        65        53        14
        66        66        34        55
        67        67        28        10
        68        68        79        26
        69        69        15        23
        70        70        12        16
        71        71        25         3
        72        72        15        26
        73        73         3        25
        74        74        25        22
        75        75        53         7
        76        76        57        22
        77        77        42        27
        78        78        11         6
        79        79        27        17
        80        80         6        11
        81        81        27        14
        82        82        26        23
        83        83        48        52
        84        84        68         1
        85        85        11        35
        86        86        65        42
        87        87        10         5
        88        88        16        15
        89        89        67        58
        90        90        55         8
        91        91        53        79
        92        92        32        80
        93        93        22         9
        94        94        10        24
        95        95         6        15
        96        96        32        30
        97        97        11        37
        98        98        37        29
        99        99        24        57
       100       100         5        72
       101       101        21        14
       102       102        58        80
       103       103        18         4
       104       104         4        18
       105       105        44        12
       106       106         6        40
       107       107        40         6
       108       108         3        34
       109       109        58        32
       110       110        57        43
       111       111        24        59
       112       112        39         8
       113       113         9        48
       114       114        29        54
