ITEM: TIMESTEP
500
ITEM: NUMBER OF ATOMS
58
ITEM: BOX BOUNDS pp pp pp
-4.8590505124552870e+00 4.8590505124552870e+00
-4.8609801511672117e+00 4.8609801511672117e+00
-1.0000000000000001e-01 1.0000000000000001e-01
ITEM: ATOMS id type xs ys zs
77 1 1.00008 0.0674208 0.501768
64 1 0.0697474 0.0633651 0.498805
6 1 0.164433 0.0272713 0.499816
43 1 0.306617 0.0519331 0.499665
74 1 0.472047 0.122032 0.501017
35 1 0.558719 0.0679674 0.500496
38 1 0.772985 0.989755 0.499817
42 1 0.668118 0.99386 0.499396
18 1 0.911753 0.998042 0.499706
10 1 0.11315 0.171818 0.498481
37 1 0.363084 0.138064 0.5002
33 1 0.440925 0.217002 0.50087
17 1 0.698599 0.11828 0.499302
19 1 0.844744 0.149841 0.500553
45 1 0.95291 0.119295 0.498833
27 1 0.0985788 0.321142 0.501622
69 1 0.167718 0.26095 0.500418
14 1 0.27134 0.224506 0.499891
9 1 0.584572 0.207677 0.500771
39 1 0.723401 0.244494 0.501111
4 1 0.974845 0.244697 0.499431
72 1 0.130417 0.406455 0.500239
25 1 0.206352 0.354389 0.500364
30 1 0.502827 0.326176 0.5016
54 1 0.547557 0.424362 0.501274
28 1 0.626835 0.337 0.500999
52 1 0.738736 0.359234 0.502093
31 1 0.847451 0.287152 0.500742
61 1 0.811908 0.397968 0.499724
7 1 0.0354091 0.449224 0.499599
36 1 0.517755 0.536956 0.500149
23 1 0.647144 0.51495 0.499263
24 1 0.753605 0.475488 0.50031
29 1 0.884527 0.460941 0.500093
11 1 0.163324 0.654689 0.49968
51 1 0.285349 0.630576 0.498463
15 1 0.416994 0.634312 0.500114
57 1 0.627828 0.606709 0.499701
3 1 0.737199 0.665601 0.498126
26 1 0.821904 0.562946 0.500584
2 1 0.950898 0.580168 0.499711
32 1 0.0719718 0.764702 0.49894
8 1 0.321722 0.757518 0.500389
56 1 0.624036 0.690827 0.500259
44 1 0.669555 0.772791 0.499733
46 1 0.757748 0.819592 0.501648
21 1 0.094046 0.890709 0.50151
5 1 0.194835 0.804018 0.501609
20 1 0.435682 0.865567 0.497328
13 1 0.969649 0.853525 0.500523
60 1 0.0407358 0.985618 0.503002
59 1 0.230455 0.925003 0.500631
22 1 0.3293 0.911484 0.500325
70 1 0.275166 0.988447 0.499826
16 1 0.427199 0.0196787 0.50059
1 1 0.565624 0.934144 0.499969
53 1 0.706444 0.90164 0.500262
34 1 0.832182 0.876258 0.49854
ITEM: TIMESTEP
750
ITEM: NUMBER OF ATOMS
58
ITEM: BOX BOUNDS pp pp pp
-4.8578355068260466e+00 4.8578355068260466e+00
-4.8540230405380367e+00 4.8540230405380367e+00
-1.0000000000000001e-01 1.0000000000000001e-01
ITEM: ATOMS id type xs ys zs
77 1 0.999827 0.0678194 0.503813
64 1 0.069351 0.0638998 0.497688
6 1 0.16386 0.0272883 0.499907
43 1 0.30691 0.0526377 0.500738
74 1 0.472669 0.122288 0.499584
35 1 0.559428 0.0679149 0.500108
38 1 0.773327 0.988446 0.500757
42 1 0.668653 0.994132 0.50105
18 1 0.911575 0.998307 0.498374
10 1 0.113026 0.172142 0.499315
37 1 0.363943 0.138188 0.499542
33 1 0.441202 0.217533 0.500075
17 1 0.699215 0.117761 0.498391
19 1 0.844879 0.150564 0.501341
45 1 0.952867 0.119778 0.498391
27 1 0.0973433 0.32134 0.502843
69 1 0.166868 0.261146 0.500412
14 1 0.2709 0.224108 0.50117
9 1 0.585225 0.207418 0.501606
39 1 0.72375 0.244394 0.501084
4 1 0.974227 0.24507 0.499219
72 1 0.130764 0.406188 0.501335
25 1 0.206584 0.354422 0.499462
30 1 0.503223 0.326001 0.501894
54 1 0.547572 0.424266 0.498084
28 1 0.627247 0.336711 0.500357
52 1 0.738684 0.359367 0.50297
31 1 0.847726 0.288408 0.501017
61 1 0.811958 0.397696 0.501241
7 1 0.0363793 0.450279 0.499602
36 1 0.517839 0.536873 0.49986
23 1 0.646833 0.514 0.499831
24 1 0.754284 0.476579 0.500281
29 1 0.885589 0.460016 0.501517
11 1 0.16337 0.654391 0.499894
51 1 0.28582 0.631278 0.497897
15 1 0.417626 0.634176 0.500948
57 1 0.628739 0.606418 0.499421
3 1 0.737194 0.665849 0.496595
26 1 0.823025 0.563636 0.499417
2 1 0.95168 0.581132 0.499739
32 1 0.0719091 0.765191 0.499494
8 1 0.3213 0.75785 0.500289
56 1 0.623307 0.690704 0.500879
44 1 0.669259 0.772414 0.498244
46 1 0.757477 0.819176 0.502726
21 1 0.0945925 0.891705 0.502617
5 1 0.19523 0.804201 0.502248
20 1 0.435382 0.865694 0.496333
13 1 0.969927 0.853929 0.500673
60 1 0.040514 0.985944 0.501532
59 1 0.230569 0.92502 0.500886
22 1 0.329653 0.912322 0.499776
70 1 0.274922 0.989386 0.50007
16 1 0.427583 0.0200345 0.501871
1 1 0.566445 0.933979 0.500303
53 1 0.706242 0.901823 0.501364
34 1 0.831905 0.875864 0.498512
ITEM: TIMESTEP
1000
ITEM: NUMBER OF ATOMS
58
ITEM: BOX BOUNDS pp pp pp
-4.8566205011968071e+00 4.8566205011968071e+00
-4.8551706218179973e+00 4.8551706218179973e+00
-1.0000000000000001e-01 1.0000000000000001e-01
ITEM: ATOMS id type xs ys zs
77 1 0.999653 0.0673712 0.501164
64 1 0.069424 0.0637002 0.494927
6 1 0.163486 0.0268606 0.49932
43 1 0.308254 0.0520896 0.500406
74 1 0.473517 0.122035 0.500996
35 1 0.56027 0.0675543 0.497851
38 1 0.772608 0.988335 0.501852
42 1 0.668193 0.993793 0.503034
18 1 0.91096 0.997779 0.498402
10 1 0.114438 0.172305 0.501449
37 1 0.363629 0.138385 0.498134
33 1 0.441291 0.217612 0.504794
17 1 0.698834 0.118002 0.498479
19 1 0.844613 0.150399 0.502398
45 1 0.952108 0.118845 0.497495
27 1 0.0983765 0.322226 0.502429
69 1 0.16777 0.261903 0.500455
14 1 0.271463 0.224648 0.50147
9 1 0.585289 0.207481 0.500726
39 1 0.724533 0.243726 0.500952
4 1 0.97539 0.245043 0.499198
72 1 0.13071 0.407358 0.501372
25 1 0.206303 0.355498 0.500038
30 1 0.502688 0.326084 0.502323
54 1 0.547828 0.423667 0.498791
28 1 0.627706 0.336784 0.499653
52 1 0.739584 0.358604 0.502046
31 1 0.847911 0.287781 0.501377
61 1 0.812908 0.397188 0.502741
7 1 0.03557 0.450958 0.499013
36 1 0.518099 0.536486 0.499198
23 1 0.647356 0.514067 0.500263
24 1 0.754571 0.475183 0.499227
29 1 0.885718 0.460737 0.50122
11 1 0.16355 0.655285 0.50165
51 1 0.286115 0.631084 0.498004
15 1 0.417981 0.634855 0.499593
57 1 0.629891 0.606448 0.498429
3 1 0.738912 0.66632 0.496829
26 1 0.822691 0.562797 0.496717
2 1 0.951012 0.581893 0.499147
32 1 0.0724127 0.764962 0.498273
8 1 0.32235 0.758238 0.500681
56 1 0.624953 0.690706 0.502163
44 1 0.670245 0.772222 0.49965
46 1 0.757792 0.819355 0.503695
21 1 0.0945628 0.892231 0.502213
5 1 0.195586 0.804256 0.501976
20 1 0.435149 0.866461 0.495909
13 1 0.970194 0.853506 0.50114
60 1 0.0400113 0.986081 0.501957
59 1 0.230277 0.925423 0.502572
22 1 0.328912 0.913152 0.49857
70 1 0.274409 0.9897 0.49823
16 1 0.42875 0.020103 0.500491
1 1 0.566697 0.933234 0.499657
53 1 0.706032 0.90157 0.500602
34 1 0.83264 0.874881 0.498818
ITEM: TIMESTEP
1250
ITEM: NUMBER OF ATOMS
58
ITEM: BOX BOUNDS pp pp pp
-4.8554054955675676e+00 4.8554054955675676e+00
-4.8640505654716417e+00 4.8640505654716417e+00
-1.0000000000000001e-01 1.0000000000000001e-01
ITEM: ATOMS id type xs ys zs
77 1 0.999691 0.067272 0.501567
64 1 0.0692766 0.0640121 0.495323
6 1 0.163683 0.0267603 0.500314
43 1 0.306833 0.0521831 0.501115
74 1 0.474328 0.122061 0.499074
35 1 0.560456 0.0676073 0.495885
38 1 0.772445 0.987936 0.500924
42 1 0.667987 0.993522 0.503164
18 1 0.911059 0.998071 0.496883
10 1 0.115549 0.17164 0.501194
37 1 0.363195 0.138044 0.496956
33 1 0.441683 0.21645 0.505179
17 1 0.699723 0.117949 0.499548
19 1 0.845077 0.150752 0.501916
45 1 0.952989 0.119168 0.498746
27 1 0.0980391 0.322286 0.503149
69 1 0.166976 0.261882 0.501225
14 1 0.271099 0.22437 0.50094
9 1 0.585461 0.207193 0.500339
39 1 0.724316 0.243635 0.50123
4 1 0.974852 0.245037 0.499063
72 1 0.131295 0.406878 0.502352
25 1 0.206931 0.354285 0.499813
30 1 0.503021 0.325236 0.503559
54 1 0.548211 0.422985 0.500377
28 1 0.628205 0.336485 0.499164
52 1 0.739488 0.358316 0.502028
31 1 0.847372 0.288976 0.500084
61 1 0.812407 0.397523 0.502807
7 1 0.0374787 0.451463 0.498199
36 1 0.517781 0.536417 0.498315
23 1 0.647109 0.513942 0.498034
24 1 0.754409 0.475242 0.499175
29 1 0.885481 0.460985 0.499935
11 1 0.163926 0.655244 0.501336
51 1 0.286839 0.630814 0.497943
15 1 0.418621 0.634843 0.500936
57 1 0.631127 0.606208 0.49843
3 1 0.739432 0.667294 0.497279
26 1 0.822403 0.56354 0.496928
2 1 0.951419 0.580882 0.498701
32 1 0.07245 0.765745 0.498827
8 1 0.322235 0.757694 0.501546
56 1 0.625634 0.69026 0.502706
44 1 0.669805 0.772774 0.500008
46 1 0.757911 0.818816 0.50614
21 1 0.0948201 0.892335 0.504636
5 1 0.195464 0.80396 0.502452
20 1 0.435759 0.865334 0.496518
13 1 0.970467 0.85437 0.499818
60 1 0.0400634 0.986325 0.501063
59 1 0.230486 0.925398 0.504075
22 1 0.329759 0.912919 0.498214
70 1 0.274714 0.989175 0.499371
16 1 0.428021 0.0206153 0.501313
1 1 0.566136 0.93338 0.500479
53 1 0.706144 0.901289 0.501006
34 1 0.832539 0.875177 0.497645
ITEM: TIMESTEP
1500
ITEM: NUMBER OF ATOMS
58
ITEM: BOX BOUNDS pp pp pp
-4.8541904899383281e+00 4.8541904899383281e+00
-4.8577993666248496e+00 4.8577993666248496e+00
-1.0000000000000001e-01 1.0000000000000001e-01
ITEM: ATOMS id type xs ys zs
77 1 0.999523 0.0668025 0.501408
64 1 0.0691828 0.0639521 0.497082
6 1 0.163635 0.0264697 0.499556
43 1 0.306633 0.0524931 0.498949
74 1 0.473994 0.121919 0.49878
35 1 0.560527 0.0671651 0.494275
38 1 0.772164 0.989144 0.50157
42 1 0.667746 0.993491 0.505127
18 1 0.910319 0.998304 0.498175
10 1 0.114412 0.171349 0.501026
37 1 0.363023 0.138311 0.496296
33 1 0.441423 0.216049 0.506787
17 1 0.699333 0.117597 0.499383
19 1 0.845121 0.151182 0.500995
45 1 0.95324 0.119647 0.49693
27 1 0.0975843 0.322628 0.503173
69 1 0.166587 0.261523 0.498779
14 1 0.269943 0.223366 0.502142
9 1 0.585202 0.207132 0.499482
39 1 0.72443 0.244248 0.501282
4 1 0.975026 0.245474 0.498772
72 1 0.13205 0.407074 0.501715
25 1 0.206893 0.353953 0.497325
30 1 0.502747 0.324266 0.502545
54 1 0.546812 0.422599 0.502365
28 1 0.627398 0.336151 0.50019
52 1 0.738947 0.35919 0.500846
31 1 0.848284 0.289146 0.500388
61 1 0.812423 0.397794 0.50447
7 1 0.0376549 0.452116 0.496882
36 1 0.517887 0.535691 0.499532
23 1 0.647354 0.512233 0.49756
24 1 0.754885 0.476126 0.499222
29 1 0.88536 0.460666 0.500576
11 1 0.163866 0.65485 0.502236
51 1 0.286229 0.630331 0.499205
15 1 0.418539 0.634965 0.501062
57 1 0.631068 0.605187 0.499002
3 1 0.739095 0.666509 0.496757
26 1 0.823155 0.563336 0.49661
2 1 0.951412 0.582082 0.500768
32 1 0.0719856 0.764954 0.499439
8 1 0.32071 0.756993 0.502373
56 1 0.624904 0.68954 0.500559
44 1 0.669843 0.77195 0.501903
46 1 0.757621 0.819077 0.507068
21 1 0.0942522 0.892038 0.504622
5 1 0.195406 0.804226 0.503367
20 1 0.435082 0.864866 0.496588
13 1 0.969483 0.853799 0.498533
60 1 0.0398057 0.986394 0.49932
59 1 0.230679 0.925062 0.504714
22 1 0.330058 0.912203 0.497064
70 1 0.275149 0.989177 0.498629
16 1 0.428063 0.0208989 0.501371
1 1 0.565797 0.933137 0.502289
53 1 0.706156 0.901702 0.504121
34 1 0.831831 0.875615 0.497996
ITEM: TIMESTEP
1750
ITEM: NUMBER OF ATOMS
58
ITEM: BOX BOUNDS pp pp pp
-4.8529754843090886e+00 4.8529754843090886e+00
-4.8637488140149410e+00 4.8637488140149410e+00
-1.0000000000000001e-01 1.0000000000000001e-01
ITEM: ATOMS id type xs ys zs
77 1 0.999446 0.0680945 0.501639
64 1 0.0692123 0.0636562 0.496702
6 1 0.164154 0.0272071 0.50116
43 1 0.305542 0.0528323 0.498197
74 1 0.473481 0.121735 0.499179
35 1 0.559775 0.0675936 0.494673
38 1 0.772043 0.989229 0.499334
42 1 0.667132 0.994354 0.507015
18 1 0.911202 0.998195 0.496952
10 1 0.113027 0.171892 0.50147
37 1 0.362831 0.137972 0.495817
33 1 0.441447 0.216309 0.505831
17 1 0.699074 0.119071 0.501808
19 1 0.844389 0.151564 0.501434
45 1 0.951943 0.1193 0.497077
27 1 0.0977038 0.323564 0.504968
69 1 0.165937 0.261721 0.501124
14 1 0.268834 0.222855 0.501664
9 1 0.5855 0.207459 0.498712
39 1 0.724696 0.244568 0.503064
4 1 0.975189 0.245586 0.500152
72 1 0.132809 0.407859 0.501503
25 1 0.207059 0.353666 0.498004
30 1 0.50207 0.324729 0.502785
54 1 0.54668 0.422094 0.50399
28 1 0.627234 0.336076 0.500516
52 1 0.738946 0.359427 0.503435
31 1 0.847974 0.289365 0.499643
61 1 0.812312 0.397973 0.503941
7 1 0.0380367 0.451978 0.496711
36 1 0.517093 0.534651 0.500186
23 1 0.645895 0.511479 0.499316
24 1 0.754277 0.475919 0.497622
29 1 0.885472 0.460781 0.500586
11 1 0.16407 0.655192 0.50158
51 1 0.286423 0.630013 0.498596
15 1 0.417817 0.634244 0.500221
57 1 0.631576 0.604387 0.498765
3 1 0.739159 0.666429 0.496583
26 1 0.822782 0.563191 0.498207
2 1 0.951437 0.581581 0.500496
32 1 0.0721215 0.764787 0.498778
8 1 0.320967 0.757253 0.500816
56 1 0.625921 0.688542 0.501359
44 1 0.669506 0.771192 0.500975
46 1 0.757005 0.819084 0.50752
21 1 0.0943908 0.890827 0.505905
5 1 0.195584 0.804137 0.503934
20 1 0.434745 0.864916 0.496775
13 1 0.969736 0.853338 0.498597
60 1 0.0404892 0.985563 0.501226
59 1 0.230422 0.925257 0.504996
22 1 0.329348 0.912283 0.49582
70 1 0.275033 0.988855 0.499182
16 1 0.427104 0.0207111 0.502439
1 1 0.565107 0.93368 0.502385
53 1 0.7057 0.902138 0.504217
34 1 0.831237 0.875964 0.497529
ITEM: TIMESTEP
2000
ITEM: NUMBER OF ATOMS
58
ITEM: BOX BOUNDS pp pp pp
-4.8517604786798483e+00 4.8517604786798483e+00
-4.8724844153201889e+00 4.8724844153201889e+00
-1.0000000000000001e-01 1.0000000000000001e-01
ITEM: ATOMS id type xs ys zs
77 1 1.00011 0.0670988 0.502187
64 1 0.0695224 0.064008 0.497335
6 1 0.164544 0.0280893 0.501515
43 1 0.30563 0.0528327 0.498861
74 1 0.473218 0.122026 0.500091
35 1 0.55945 0.0684493 0.493389
38 1 0.772715 0.98958 0.499037
42 1 0.667459 0.995845 0.506382
18 1 0.911187 0.997587 0.496129
10 1 0.112688 0.172304 0.502587
37 1 0.362647 0.138387 0.496159
33 1 0.441076 0.216503 0.505078
17 1 0.699709 0.117983 0.501683
19 1 0.84512 0.151444 0.50265
45 1 0.953293 0.118893 0.496419
27 1 0.0972247 0.323861 0.505348
69 1 0.16507 0.261721 0.502433
14 1 0.26868 0.22298 0.500948
9 1 0.585108 0.207723 0.498942
39 1 0.724978 0.244571 0.504627
4 1 0.976091 0.243906 0.500215
72 1 0.131623 0.407618 0.502794
25 1 0.206169 0.354102 0.498844
30 1 0.502652 0.325081 0.505586
54 1 0.54853 0.422459 0.501659
28 1 0.628055 0.335708 0.499832
52 1 0.739065 0.359661 0.504794
31 1 0.84849 0.288779 0.498695
61 1 0.812339 0.398484 0.503453
7 1 0.0375241 0.452517 0.497269
36 1 0.516948 0.534959 0.50102
23 1 0.645923 0.510812 0.495327
24 1 0.754546 0.47663 0.499073
29 1 0.885675 0.460964 0.500156
11 1 0.163251 0.655338 0.501224
51 1 0.285838 0.629889 0.498296
15 1 0.41829 0.633918 0.498044
57 1 0.634484 0.603808 0.500264
3 1 0.741667 0.667208 0.496249
26 1 0.823198 0.563062 0.497043
2 1 0.9512 0.582026 0.499958
32 1 0.0717759 0.764746 0.498792
8 1 0.320946 0.75639 0.50037
56 1 0.627389 0.687672 0.499923
44 1 0.669997 0.770812 0.501193
46 1 0.756289 0.820103 0.507235
21 1 0.0927528 0.890756 0.504989
5 1 0.195108 0.804974 0.503961
20 1 0.43525 0.86473 0.49659
13 1 0.968431 0.852702 0.499243
60 1 0.0410584 0.986175 0.500955
59 1 0.230667 0.925641 0.504762
22 1 0.329548 0.912467 0.496061
70 1 0.275583 0.988953 0.497337
16 1 0.427187 0.0207806 0.501693
1 1 0.565679 0.934667 0.501786
53 1 0.70574 0.903531 0.50364
34 1 0.830554 0.876437 0.496966
ITEM: TIMESTEP
2250
ITEM: NUMBER OF ATOMS
58
ITEM: BOX BOUNDS pp pp pp
-4.8505454730506088e+00 4.8505454730506088e+00
-4.8707818407522971e+00 4.8707818407522971e+00
-1.0000000000000001e-01 1.0000000000000001e-01
ITEM: ATOMS id type xs ys zs
77 1 0.999484 0.0677145 0.501658
64 1 0.0691528 0.0638756 0.495376
6 1 0.164316 0.027931 0.501429
43 1 0.30536 0.0529394 0.49983
74 1 0.471812 0.122475 0.497559
35 1 0.559006 0.0691828 0.492921
38 1 0.772179 0.990602 0.500657
42 1 0.667411 0.995754 0.506305
18 1 0.911195 0.997987 0.495774
10 1 0.113862 0.171749 0.501761
37 1 0.362396 0.138738 0.49611
33 1 0.441415 0.216781 0.504683
17 1 0.698637 0.118427 0.502474
19 1 0.843951 0.149166 0.500906
45 1 0.95234 0.118932 0.495965
27 1 0.097182 0.323266 0.503223
69 1 0.165314 0.261843 0.502849
14 1 0.269377 0.224616 0.503407
9 1 0.585546 0.207937 0.49756
39 1 0.724597 0.244365 0.506061
4 1 0.976014 0.243752 0.500473
72 1 0.13158 0.40722 0.501682
25 1 0.206761 0.354407 0.499099
30 1 0.503236 0.325987 0.506917
54 1 0.548511 0.423563 0.501986
28 1 0.628223 0.336509 0.500554
52 1 0.7391 0.35879 0.503866
31 1 0.848673 0.285873 0.498782
61 1 0.811937 0.397686 0.50497
7 1 0.0373435 0.452411 0.496527
36 1 0.517892 0.536555 0.502179
23 1 0.646431 0.510754 0.494605
24 1 0.754572 0.475639 0.49892
29 1 0.885409 0.460294 0.499678
11 1 0.163298 0.655352 0.501371
51 1 0.286112 0.629981 0.497039
15 1 0.418158 0.634984 0.498381
57 1 0.634088 0.60378 0.499735
3 1 0.74099 0.667765 0.497254
26 1 0.82241 0.562118 0.495948
2 1 0.950796 0.581525 0.501323
32 1 0.0711571 0.76548 0.497728
8 1 0.320795 0.756766 0.498624
56 1 0.627105 0.687837 0.501947
44 1 0.669255 0.771418 0.500264
46 1 0.755505 0.82124 0.506488
21 1 0.0929444 0.891252 0.50505
5 1 0.194503 0.804322 0.503014
20 1 0.435025 0.86418 0.493953
13 1 0.968386 0.853335 0.499625
60 1 0.0402606 0.986344 0.500813
59 1 0.230042 0.925329 0.503663
22 1 0.329407 0.912481 0.496506
70 1 0.274877 0.989186 0.4963
16 1 0.426982 0.0211898 0.501339
1 1 0.565428 0.935363 0.502885
53 1 0.704996 0.903924 0.50195
34 1 0.830734 0.876778 0.497949
ITEM: TIMESTEP
2500
ITEM: NUMBER OF ATOMS
58
ITEM: BOX BOUNDS pp pp pp
-4.8493304674213693e+00 4.8493304674213693e+00
-4.8631108717976952e+00 4.8631108717976952e+00
-1.0000000000000001e-01 1.0000000000000001e-01
ITEM: ATOMS id type xs ys zs
77 1 0.999858 0.0663526 0.502636
64 1 0.0696953 0.0643165 0.497536
6 1 0.164764 0.028736 0.501466
43 1 0.304485 0.0524906 0.501125
74 1 0.471671 0.121249 0.496569
35 1 0.558359 0.0679886 0.493819
38 1 0.771797 0.99078 0.498032
42 1 0.666816 0.994915 0.509385
18 1 0.910903 0.997707 0.494398
10 1 0.112604 0.172786 0.50133
37 1 0.362202 0.137639 0.495889
33 1 0.440527 0.216456 0.505706
17 1 0.698217 0.118621 0.501559
19 1 0.844663 0.149369 0.50099
45 1 0.952906 0.11829 0.496341
27 1 0.0981469 0.322515 0.503907
69 1 0.1669 0.261552 0.503254
14 1 0.27013 0.223986 0.5044
9 1 0.584546 0.207847 0.498986
39 1 0.724166 0.244064 0.50617
4 1 0.975763 0.243644 0.501929
72 1 0.131599 0.407271 0.501448
25 1 0.206756 0.354289 0.497219
30 1 0.502332 0.325558 0.507589
54 1 0.546295 0.423257 0.500987
28 1 0.627515 0.336574 0.500308
52 1 0.739407 0.358194 0.504079
31 1 0.848783 0.286698 0.499933
61 1 0.812669 0.397104 0.50564
7 1 0.0373885 0.451821 0.496812
36 1 0.518793 0.53671 0.501298
23 1 0.646426 0.511461 0.496053
24 1 0.754452 0.474846 0.497715
29 1 0.886107 0.460042 0.498215
11 1 0.164388 0.655916 0.499912
51 1 0.286081 0.62817 0.497347
15 1 0.418203 0.634624 0.499404
57 1 0.63407 0.6045 0.501813
3 1 0.741111 0.667189 0.496327
26 1 0.822352 0.562173 0.494866
2 1 0.950806 0.581614 0.500602
32 1 0.071655 0.76537 0.497405
8 1 0.320312 0.756233 0.498757
56 1 0.626897 0.688404 0.503295
44 1 0.669668 0.771471 0.498312
46 1 0.756223 0.819978 0.508015
21 1 0.0928956 0.89102 0.50635
5 1 0.194874 0.804354 0.502659
20 1 0.435036 0.86454 0.492836
13 1 0.968353 0.853159 0.497943
60 1 0.0408935 0.9865 0.499639
59 1 0.229786 0.925363 0.504683
22 1 0.328793 0.911609 0.494555
70 1 0.274881 0.988421 0.496777
16 1 0.426019 0.0201261 0.501784
1 1 0.56491 0.933789 0.502974
53 1 0.706207 0.902968 0.501
34 1 0.830003 0.877108 0.497705
ITEM: TIMESTEP
2750
ITEM: NUMBER OF ATOMS
58
ITEM: BOX BOUNDS pp pp pp
-4.8481154617921298e+00 4.8481154617921298e+00
-4.8701389176589558e+00 4.8701389176589558e+00
-1.0000000000000001e-01 1.0000000000000001e-01
ITEM: ATOMS id type xs ys zs
77 1 0.999534 0.0662686 0.504066
64 1 0.0692273 0.064561 0.497376
6 1 0.164633 0.0283545 0.502751
43 1 0.304886 0.0522842 0.502597
74 1 0.470328 0.121257 0.497624
35 1 0.557844 0.067871 0.492493
38 1 0.772199 0.990636 0.497864
42 1 0.666959 0.994558 0.509845
18 1 0.910601 0.997488 0.494271
10 1 0.113642 0.17271 0.500307
37 1 0.362366 0.137932 0.49556
33 1 0.440302 0.216651 0.50651
17 1 0.697891 0.118488 0.500094
19 1 0.844704 0.149483 0.500517
45 1 0.952834 0.118236 0.497781
27 1 0.0980717 0.322404 0.506776
69 1 0.167056 0.261452 0.503272
14 1 0.270763 0.224922 0.505074
9 1 0.584186 0.207263 0.49972
39 1 0.72314 0.244023 0.50691
4 1 0.975501 0.243859 0.503659
72 1 0.13144 0.407639 0.501433
25 1 0.206891 0.354706 0.497278
30 1 0.501608 0.324962 0.506219
54 1 0.546679 0.423207 0.49914
28 1 0.626433 0.336416 0.499183
52 1 0.738789 0.35859 0.502457
31 1 0.848098 0.286458 0.498666
61 1 0.812148 0.397385 0.506595
7 1 0.0369229 0.451056 0.497088
36 1 0.519158 0.537292 0.501079
23 1 0.647553 0.512698 0.495774
24 1 0.754328 0.475099 0.498522
29 1 0.885347 0.46014 0.497936
11 1 0.164238 0.655343 0.500542
51 1 0.286241 0.628204 0.496839
15 1 0.418327 0.63506 0.499872
57 1 0.634287 0.605146 0.500236
3 1 0.741725 0.667512 0.495109
26 1 0.82252 0.562477 0.494878
2 1 0.951114 0.580536 0.503629
32 1 0.0704914 0.764127 0.497641
8 1 0.319148 0.756001 0.499784
56 1 0.627456 0.688626 0.50411
44 1 0.669698 0.771423 0.498267
46 1 0.756173 0.819643 0.508175
21 1 0.0921302 0.891005 0.507736
5 1 0.193643 0.804632 0.500401
20 1 0.434163 0.862444 0.494822
13 1 0.967582 0.852599 0.498047
60 1 0.0406327 0.986699 0.498763
59 1 0.229419 0.924839 0.503547
22 1 0.328776 0.911337 0.495976
70 1 0.274612 0.988311 0.49724
16 1 0.425499 0.0198072 0.500041
1 1 0.564374 0.933655 0.501643
53 1 0.706079 0.903133 0.499352
34 1 0.83013 0.8768 0.497909
ITEM: TIMESTEP
3000
ITEM: NUMBER OF ATOMS
58
ITEM: BOX BOUNDS pp pp pp
-4.8469004561628903e+00 4.8469004561628903e+00
-4.8706090808800031e+00 4.8706090808800031e+00
-1.0000000000000001e-01 1.0000000000000001e-01
ITEM: ATOMS id type xs ys zs
77 1 0.999928 0.0670181 0.504518
64 1 0.0697147 0.0646655 0.497657
6 1 0.164472 0.0277238 0.503168
43 1 0.30422 0.0523229 0.502284
74 1 0.469891 0.121068 0.49752
35 1 0.556919 0.068368 0.495155
38 1 0.771206 0.990676 0.496617
42 1 0.665837 0.99572 0.508946
18 1 0.911171 0.998135 0.495476
10 1 0.11384 0.172075 0.499586
37 1 0.361358 0.137641 0.495351
33 1 0.43969 0.216388 0.506027
17 1 0.697911 0.117314 0.499523
19 1 0.84372 0.148663 0.4997
45 1 0.952771 0.118513 0.497782
27 1 0.0977613 0.321774 0.507005
69 1 0.166949 0.261599 0.503595
14 1 0.2702 0.224516 0.505825
9 1 0.584038 0.208053 0.496797
39 1 0.722628 0.243825 0.506801
4 1 0.975365 0.243668 0.504773
72 1 0.131063 0.40682 0.502041
25 1 0.206795 0.354545 0.496548
30 1 0.501053 0.325263 0.505914
54 1 0.545603 0.422951 0.498647
28 1 0.626623 0.336317 0.497016
52 1 0.738557 0.35821 0.500678
31 1 0.847446 0.285953 0.499543
61 1 0.811896 0.397235 0.505483
7 1 0.0354444 0.449632 0.498446
36 1 0.517291 0.536661 0.500594
23 1 0.646446 0.511193 0.495921
24 1 0.754256 0.474984 0.49878
29 1 0.884992 0.460327 0.498381
11 1 0.16427 0.655019 0.501624
51 1 0.286713 0.629671 0.494748
15 1 0.418962 0.636867 0.499941
57 1 0.633641 0.603817 0.500312
3 1 0.740563 0.666554 0.495243
26 1 0.822426 0.56202 0.494685
2 1 0.951218 0.58085 0.502826
32 1 0.070983 0.763917 0.498028
8 1 0.319307 0.756978 0.500579
56 1 0.626041 0.687522 0.501809
44 1 0.669264 0.770559 0.497355
46 1 0.755868 0.820783 0.507155
21 1 0.0921679 0.890622 0.507861
5 1 0.193402 0.803453 0.499956
20 1 0.433983 0.863562 0.493169
13 1 0.968024 0.85193 0.497975
60 1 0.041038 0.986834 0.499744
59 1 0.229126 0.92438 0.503859
22 1 0.327902 0.910373 0.495873
70 1 0.275207 0.987839 0.497495
16 1 0.424573 0.0196495 0.499739
1 1 0.563672 0.934755 0.501199
53 1 0.704413 0.903329 0.498802
34 1 0.830471 0.876955 0.497804
ITEM: TIMESTEP
3250
ITEM: NUMBER OF ATOMS
58
ITEM: BOX BOUNDS pp pp pp
-4.8456854505336500e+00 4.8456854505336500e+00
-4.8655925650397345e+00 4.8655925650397345e+00
-1.0000000000000001e-01 1.0000000000000001e-01
ITEM: ATOMS id type xs ys zs
77 1 0.998994 0.0668948 0.503173
64 1 0.068744 0.0650716 0.499225
6 1 0.163926 0.0275522 0.503501
43 1 0.304692 0.0524922 0.503094
74 1 0.469759 0.121687 0.496191
35 1 0.556811 0.0682495 0.495173
38 1 0.771491 0.991918 0.498852
42 1 0.665937 0.996818 0.510189
18 1 0.910313 0.997346 0.496826
10 1 0.115616 0.17199 0.499404
37 1 0.361635 0.138144 0.495429
33 1 0.439743 0.217135 0.507874
17 1 0.697525 0.117806 0.500332
19 1 0.843245 0.149527 0.500657
45 1 0.95181 0.11872 0.496762
27 1 0.0971996 0.322664 0.506168
69 1 0.166595 0.262232 0.504677
14 1 0.271195 0.226852 0.506945
9 1 0.583725 0.206952 0.497313
39 1 0.72285 0.244695 0.505765
4 1 0.974684 0.243548 0.505186
72 1 0.130073 0.407758 0.502053
25 1 0.205998 0.355582 0.496807
30 1 0.500976 0.325638 0.506869
54 1 0.546321 0.422758 0.498632
28 1 0.626106 0.335976 0.497635
52 1 0.737653 0.359011 0.50197
31 1 0.847328 0.286038 0.499214
61 1 0.811589 0.397189 0.505545
7 1 0.0351442 0.450483 0.498941
36 1 0.515815 0.535874 0.500623
23 1 0.645059 0.510168 0.492768
24 1 0.754111 0.475547 0.499609
29 1 0.885401 0.459876 0.498633
11 1 0.163505 0.655162 0.502597
51 1 0.286018 0.629685 0.494666
15 1 0.418158 0.636335 0.49994
57 1 0.633889 0.603077 0.500406
3 1 0.740257 0.666774 0.495937
26 1 0.822456 0.562017 0.494104
2 1 0.950637 0.581333 0.50261
32 1 0.0704683 0.764321 0.499532
8 1 0.319225 0.757046 0.500055
56 1 0.625971 0.686997 0.501869
44 1 0.668922 0.770289 0.498799
46 1 0.754461 0.820828 0.508236
21 1 0.0909511 0.890569 0.507716
5 1 0.193746 0.804235 0.499765
20 1 0.434473 0.863265 0.49477
13 1 0.966603 0.851703 0.496239
60 1 0.0398996 0.98728 0.498952
59 1 0.229478 0.925093 0.503337
22 1 0.328256 0.911128 0.495946
70 1 0.27507 0.988291 0.497358
16 1 0.425304 0.0198714 0.498413
1 1 0.564163 0.934886 0.501498
53 1 0.704979 0.904731 0.497397
34 1 0.828487 0.877992 0.497268
ITEM: TIMESTEP
3500
ITEM: NUMBER OF ATOMS
58
ITEM: BOX BOUNDS pp pp pp
-4.8444704449044105e+00 4.8444704449044105e+00
-4.8673840215823612e+00 4.8673840215823612e+00
-1.0000000000000001e-01 1.0000000000000001e-01
ITEM: ATOMS id type xs ys zs
77 1 0.999909 0.0661406 0.502605
64 1 0.0695906 0.064851 0.498977
6 1 0.164194 0.027635 0.504723
43 1 0.304353 0.0519521 0.502106
74 1 0.470725 0.12092 0.497292
35 1 0.557527 0.0670121 0.495382
38 1 0.771111 0.992589 0.497182
42 1 0.665399 0.995216 0.511922
18 1 0.910196 0.997634 0.496358
10 1 0.114883 0.172304 0.500233
37 1 0.360874 0.137222 0.496604
33 1 0.439784 0.216106 0.507137
17 1 0.697861 0.117777 0.49991
19 1 0.844374 0.149775 0.501702
45 1 0.953265 0.118315 0.497652
27 1 0.0973114 0.32305 0.505167
69 1 0.166438 0.26252 0.506153
14 1 0.270638 0.226001 0.507201
9 1 0.583965 0.20635 0.499113
39 1 0.723538 0.243735 0.506715
4 1 0.975638 0.243692 0.505561
72 1 0.130284 0.408092 0.500155
25 1 0.205755 0.355587 0.496067
30 1 0.501116 0.324424 0.505237
54 1 0.546522 0.422448 0.496941
28 1 0.626366 0.335258 0.498883
52 1 0.738331 0.358252 0.503727
31 1 0.848394 0.286383 0.499516
61 1 0.811692 0.39746 0.504335
7 1 0.0347044 0.450083 0.497831
36 1 0.51692 0.536083 0.500543
23 1 0.644953 0.509926 0.492348
24 1 0.753429 0.474761 0.498502
29 1 0.884887 0.460707 0.499341
11 1 0.163182 0.655588 0.503133
51 1 0.285931 0.629306 0.494345
15 1 0.417882 0.635307 0.498905
57 1 0.633577 0.60264 0.499832
3 1 0.740247 0.667101 0.495388
26 1 0.821584 0.562344 0.493573
2 1 0.95076 0.580825 0.503256
32 1 0.0699962 0.76495 0.499127
8 1 0.318932 0.756724 0.50031
56 1 0.62594 0.686801 0.502771
44 1 0.668333 0.770722 0.5006
46 1 0.755103 0.820179 0.507808
21 1 0.0910065 0.89107 0.507295
5 1 0.193067 0.804482 0.499344
20 1 0.434253 0.863607 0.493387
13 1 0.966625 0.852593 0.495672
60 1 0.0399235 0.98744 0.499015
59 1 0.229285 0.924618 0.501667
22 1 0.328564 0.910962 0.496011
70 1 0.274705 0.987739 0.497234
16 1 0.425347 0.0195099 0.498223
1 1 0.5639 0.933443 0.501085
53 1 0.705993 0.904163 0.496947
34 1 0.828619 0.877649 0.498157
ITEM: TIMESTEP
3750
ITEM: NUMBER OF ATOMS
58
ITEM: BOX BOUNDS pp pp pp
-4.8432554392751710e+00 4.8432554392751710e+00
-4.8670359922178204e+00 4.8670359922178204e+00
-1.0000000000000001e-01 1.0000000000000001e-01
ITEM: ATOMS id type xs ys zs
77 1 0.999581 0.0664721 0.503101
64 1 0.0694715 0.0653996 0.499021
6 1 0.164619 0.0281445 0.50495
43 1 0.304302 0.052034 0.502914
74 1 0.470447 0.120623 0.496573
35 1 0.557944 0.0666342 0.494654
38 1 0.771456 0.991145 0.497731
42 1 0.666189 0.994932 0.512586
18 1 0.910417 0.997775 0.495355
10 1 0.114901 0.173193 0.499895
37 1 0.361535 0.137754 0.495139
33 1 0.440271 0.216564 0.505597
17 1 0.698637 0.11695 0.499707
19 1 0.844545 0.149409 0.500494
45 1 0.952522 0.118232 0.50063
27 1 0.0974644 0.322554 0.505454
69 1 0.167381 0.262883 0.504205
14 1 0.271956 0.227108 0.507026
9 1 0.584239 0.205978 0.496632
39 1 0.723528 0.243237 0.50617
4 1 0.975267 0.244045 0.505389
72 1 0.129927 0.407537 0.50081
25 1 0.206235 0.356244 0.495908
30 1 0.501892 0.325296 0.504891
54 1 0.546881 0.422618 0.497131
28 1 0.626658 0.335414 0.498783
52 1 0.738351 0.358411 0.505515
31 1 0.848227 0.286913 0.498756
61 1 0.811764 0.397521 0.503532
7 1 0.0345085 0.449777 0.496952
36 1 0.516844 0.535165 0.50166
23 1 0.645686 0.510576 0.491985
24 1 0.753935 0.475079 0.496351
29 1 0.885265 0.460544 0.499249
11 1 0.162437 0.655374 0.504946
51 1 0.284459 0.628897 0.493834
15 1 0.417266 0.635 0.501114
57 1 0.635012 0.604216 0.500264
3 1 0.741381 0.668093 0.496322
26 1 0.822047 0.561938 0.495631
2 1 0.950749 0.581377 0.503058
32 1 0.0695089 0.763986 0.499263
8 1 0.319332 0.75573 0.499621
56 1 0.626314 0.687915 0.503307
44 1 0.667801 0.771249 0.501889
46 1 0.755147 0.819243 0.507656
21 1 0.0908619 0.89128 0.508722
5 1 0.192709 0.80445 0.499519
20 1 0.433975 0.862695 0.492039
13 1 0.966742 0.851956 0.498301
60 1 0.0403058 0.987892 0.498021
59 1 0.228917 0.924531 0.500501
22 1 0.328282 0.910121 0.496174
70 1 0.274712 0.987697 0.497926
16 1 0.425241 0.0193404 0.497805
1 1 0.563874 0.933196 0.501551
53 1 0.705305 0.903197 0.497197
34 1 0.828302 0.87732 0.498622
ITEM: TIMESTEP
4000
ITEM: NUMBER OF ATOMS
58
ITEM: BOX BOUNDS pp pp pp
-4.8420404336459315e+00 4.8420404336459315e+00
-4.8648263450316334e+00 4.8648263450316334e+00
-1.0000000000000001e-01 1.0000000000000001e-01
ITEM: ATOMS id type xs ys zs
77 1 0.99996 0.0649222 0.504967
64 1 0.069862 0.0650992 0.499625
6 1 0.164032 0.0279288 0.504403
43 1 0.304742 0.0514946 0.505149
74 1 0.469768 0.120688 0.496549
35 1 0.557506 0.0675943 0.494643
38 1 0.771086 0.990961 0.496159
42 1 0.666346 0.994991 0.513219
18 1 0.910203 0.997359 0.494974
10 1 0.115607 0.172543 0.497312
37 1 0.361944 0.137414 0.494149
33 1 0.440489 0.216326 0.504803
17 1 0.698232 0.117052 0.499585
19 1 0.845085 0.148244 0.499463
45 1 0.953969 0.117548 0.501182
27 1 0.0972303 0.322365 0.503339
69 1 0.167865 0.263098 0.503789
14 1 0.272791 0.228747 0.507158
9 1 0.584486 0.20719 0.496278
39 1 0.723279 0.243311 0.505797