LAMMPS (23 Jun 2022 - Update 4)
  using 1 OpenMP thread(s) per MPI task
# Compute elastic constant tensor for a crystal
#
# Written by Aidan Thompson (Sandia, athomps@sandia.gov)
#
#  This script uses the following three include files.
#
#   init.mod      (must be modified for different crystal structures)
# 	       	  Define units, deformation parameters and initial
#		  configuration of the atoms and simulation cell.
#
#
#   potential.mod    (must be modified for different pair styles)
# 		     Define pair style and other attributes
#		     not stored in restart file
#
#
#   displace.mod    (displace.mod should not need to be modified)
# 		    Perform positive and negative box displacements
# 		    in direction ${dir} and size ${up}.
# 		    It uses the resultant changes
#		    in stress to compute one
# 		    row of the elastic stiffness tensor
#
#		    Inputs variables:
#		    	   dir = the Voigt deformation component
#		    		    (1,2,3,4,5,6)
#		    Global constants:
#       	    	   up = the deformation magnitude (strain units)
#       		   cfac = conversion from LAMMPS pressure units to
#               	   output units for elastic constants
#
#
#  To run this on a different system, it should only be necessary to
#  modify the files init.mod and potential.mod. In order to calculate
#  the elastic constants correctly, care must be taken to specify
#  the correct units in init.mod (units, cfac and cunits). It is also
#  important to verify that the minimization of energy w.r.t atom
#  positions in the deformed cell is fully converged.
#  One indication of this is that the elastic constants are insensitive
#  to the choice of the variable ${up} in init.mod. Another is to check
#  the final max and two-norm forces reported in the log file. If you know
#  that minimization is not required, you can set maxiter = 0.0 in
#  init.mod.
#



variable dt equal 0.01
variable strain equal 0.05
variable srate equal 1e-4
variable M equal 1000 # averaging time for properties
variable strainsteps equal ${strain}/${dt}/${srate}
variable strainsteps equal 0.05/${dt}/${srate}
variable strainsteps equal 0.05/0.01/${srate}
variable strainsteps equal 0.05/0.01/0.0001


dimension 2
include init.mod
# NOTE: This script can be modified for different atomic structures,
# units, etc. See in.elastic for more info.
#

# Define the finite deformation size. Try several values of this
# variable to verify that results do not depend on it.
variable up equal 1.0e-1

# Define the amount of random jiggle for atoms
# This prevents atoms from staying on saddle points
variable atomjiggle equal 1.0e-6

# Uncomment one of these blocks, depending on what units
# you are using in LAMMPS and for output

# metal units, elastic constants in eV/A^3
#units		metal
#variable cfac equal 6.2414e-7
#variable cunits string eV/A^3

# Choose potential
# metal units, elastic constants in GPa
units		metal
atom_style	full
#pair_style      lj/cut 1.0
#pair_style      yukawa 1.0 2.0
#pair_modify     mix arithmetic
bond_style      harmonic
angle_style     harmonic
dihedral_style  zero
special_bonds   amber
variable cfac equal 1.0e-4
variable cunits string GPa
boundary	p p p

# Need to set mass to something, just to satisfy LAMMPS
#mass 1 1.0e-20
read_data network.lmp
Reading data file ...
  orthogonal box = (-4.860022 -4.860022 -0.1) to (4.860022 4.860022 0.1)
  1 by 1 by 1 MPI processor grid
WARNING: Atom style in data file differs from currently defined atom style (src/read_data.cpp:538)
  reading atoms ...
  58 atoms
WARNING: Bond style in data file differs from currently defined bond style (src/read_data.cpp:630)
  scanning bonds ...
  5 = max bonds/atom
  reading bonds ...
  126 bonds
Finding 1-2 1-3 1-4 neighbors ...
  special bond factors lj:    0        0        0.5     
  special bond factors coul:  0        0        0.8333333333333334
     8 = max # of 1-2 neighbors
    42 = max # of 1-3 neighbors
   224 = max # of 1-4 neighbors
    27 = max # of special neighbors
  special bonds CPU = 0.000 seconds
  read_data CPU = 0.003 seconds

# real units, elastic constants in GPa
#units		real
#variable cfac equal 1.01325e-4
#variable cunits string GPa

# Define minimization parameters
variable etol equal 0.0
variable ftol equal 5.0e-10
variable maxiter equal 100000
variable maxeval equal 20000
variable dmax equal 1.0e-2


include potential.mod
# NOTE: This script can be modified for different pair styles
# See in.elastic for more info.

# Setup neighbor style
neighbor 3.0 nsq
neigh_modify once no every 1 delay 0 check yes
comm_modify cutoff 2.0

# Setup minimization style
min_style	     cg
min_modify	     dmax ${dmax} line quadratic
min_modify	     dmax 0.01 line quadratic

timestep	0.001


# Setup output
thermo		500
thermo_style custom step temp pe ebond eangle edihed press pxx pyy pzz pxy pxz pyz lx ly lz vol
thermo_modify norm no


#change_box all triclinic
comm_modify mode single cutoff 10.0 vel yes
atom_modify sort 0 0



# Compute initial state

#dump rela all atom 1 traj_relax.lmpstrj
fix 3 all box/relax x 0 y 0 # xy 0  #MS comment: relax if the network is periodic
minimize ${etol} ${ftol} ${maxiter} ${maxeval}
minimize 0 ${ftol} ${maxiter} ${maxeval}
minimize 0 5e-10 ${maxiter} ${maxeval}
minimize 0 5e-10 100000 ${maxeval}
minimize 0 5e-10 100000 20000
Neighbor list info ...
  update every 1 steps, delay 0 steps, check yes
  max neighbors/atom: 2000, page size: 100000
  master list distance cutoff = 0
  ghost atom cutoff = 10
  0 neighbor lists, perpetual/occasional/extra = 0 0 0
WARNING: Inconsistent image flags (src/domain.cpp:819)
Per MPI rank memory allocation (min/avg/max) = 8.652 | 8.652 | 8.652 Mbytes
   Step          Temp          PotEng         E_bond        E_angle        E_dihed         Press           Pxx            Pyy            Pzz            Pxy            Pxz            Pyz             Lx             Ly             Lz           Volume    
         0   0              2.198368e-11   2.198368e-11   0              0              0.056531111    0.11833551    -0.0052732896   0             -0.0057515201   0              0              9.720044       9.720044       0.2            94.479255    
       300   0              9.9671776e-19  9.9671776e-19  0              0             -3.358501e-10   1.2820344e-06 -1.2827061e-06  0              1.6330736e-05  0              0              9.720045       9.7200434      0.2            94.47926     
Loop time of 0.0169185 on 1 procs for 300 steps with 58 atoms

95.0% CPU use with 1 MPI tasks x 1 OpenMP threads

Minimization stats:
  Stopping criterion = force tolerance
  Energy initial, next-to-last, final = 
    2.19836801721945e-11 1.03483116765822e-18 9.96717755625213e-19
  Force two-norm initial, final = 2.1500917e-05 4.591564e-10
  Force max component initial, final = 1.2174807e-05 1.4517742e-10
  Final line search alpha, max atom move = 1 1.4517742e-10
  Iterations, force evaluations = 300 600

MPI task timing breakdown:
Section |  min time  |  avg time  |  max time  |%varavg| %total
---------------------------------------------------------------
Pair    | 0          | 0          | 0          |   0.0 |  0.00
Bond    | 0.0023234  | 0.0023234  | 0.0023234  |   0.0 | 13.73
Neigh   | 0          | 0          | 0          |   0.0 |  0.00
Comm    | 0.005106   | 0.005106   | 0.005106   |   0.0 | 30.18
Output  | 0          | 0          | 0          |   0.0 |  0.00
Modify  | 0          | 0          | 0          |   0.0 |  0.00
Other   |            | 0.009489   |            |       | 56.09

Nlocal:             58 ave          58 max          58 min
Histogram: 1 0 0 0 0 0 0 0 0 0
Nghost:            491 ave         491 max         491 min
Histogram: 1 0 0 0 0 0 0 0 0 0
Neighs:              0 ave           0 max           0 min
Histogram: 1 0 0 0 0 0 0 0 0 0

Total # of neighbors = 0
Ave neighs/atom = 0
Ave special neighs/atom = 20.37931
Neighbor list builds = 0
Dangerous builds = 0
#dump rela all atom 1 traj_relax.lmpstrj
thermo 100
unfix 3

fix 2d all enforce2d



#dump dump0 all xyz 1000000 cfg0.xyz
#dump_modify dump0 format line "%d %20.10g %20.10g %20.10g"
#minimize ${etol} ${ftol} ${maxiter} ${maxeval}

#undump rela

#write_restart restart.equil

# These formulas define the derivatives w.r.t. strain components
# Constants uses $, variables use v_


timestep        ${dt}
timestep        0.01
variable nsteps equal round(${strainsteps})
variable nsteps equal round(50000)

fix             4 all nve
fix             5 all langevin 0.1 0.1 1 904297
#fix		6 all press/berendsen y  0.0 0.0 1 x 0.0 0.0 10
fix             6 all nph y 0.0 0.0 10 ptemp 0.1 # x 0.0 0.0 10

# For PLUMED2
# fix 22 all plumed plumedfile plumed.dat outfile plumed.out

#fix             6 all nph x 0.0 0.0 10
fix     	9 all deform 1 x erate -${srate} units box remap x
fix     	9 all deform 1 x erate -0.0001 units box remap x

#fix     8 all deform 1 xy erate ${srate} units box remap x



#fix    10 all ave/time

dump 1 all atom 250 deform_dump.lammpstrj


#To avoid flying ice cube phenomenon:
#fix 21 all momentum 100 linear 1 1 1 angular


run  ${nsteps}
run  50000
WARNING: One or more atoms are time integrated more than once (src/modify.cpp:292)
WARNING: Inconsistent image flags (src/domain.cpp:819)
Per MPI rank memory allocation (min/avg/max) = 7.527 | 7.527 | 7.527 Mbytes
   Step          Temp          PotEng         E_bond        E_angle        E_dihed         Press           Pxx            Pyy            Pzz            Pxy            Pxz            Pyz             Lx             Ly             Lz           Volume    
       300   0              9.9671776e-19  9.9671776e-19  0              0             -3.358501e-10   1.2820344e-06 -1.2827061e-06  0              1.6330736e-05  0              0              9.720045       9.7200434      0.2            94.47926     
       400   0.17056485     0.00079120889  0.00079120889  0              0              76.55349       90.716938      62.249484      0             -167.26828      0              0              9.719073       9.7146291      0.2            94.417189    
       500   0.21876879     0.00080882235  0.00080882235  0              0             -48.223403      58.286887     -154.89306      0             -707.20548      0              0              9.718101       9.7219603      0.2            94.478992    
       600   0.22216811     0.00098901166  0.00098901166  0              0              147.50456      276.87291      17.971228      0              189.97466      0              0              9.717129       9.7227801      0.2            94.477509    
       700   0.21287874     0.001010279    0.001010279    0              0              122.83539      162.77673      82.75011       0             -242.20929      0              0              9.716157       9.7131423      0.2            94.374416    
       800   0.23492775     0.00097532974  0.00097532974  0              0              263.43365      780.56721     -253.87177      0             -110.00931      0              0              9.715185       9.7156893      0.2            94.389719    
       900   0.19748507     0.0010330274   0.0010330274   0              0              275.4193       276.0034       274.68837      0             -9.5893225      0              0              9.714213       9.7166901      0.2            94.389998    
      1000   0.27233012     0.00097194504  0.00097194504  0              0              496.6555       1034.5144     -41.388172      0             -19.642654      0              0              9.713241       9.7103412      0.2            94.318885    
      1100   0.22390006     0.00074069383  0.00074069383  0              0              406.46132      1033.9381     -221.14745      0              240.12222      0              0              9.712269       9.7273266      0.2            94.474412    
      1200   0.19659149     0.00072345195  0.00072345195  0              0              419.10157      612.72839      225.28879      0              126.69692      0              0              9.711297       9.7262855      0.2            94.454847    
      1300   0.17869318     0.0010715123   0.0010715123   0              0              606.1471       1176.8933      35.237355      0              169.34343      0              0              9.710325       9.7174961      0.2            94.360045    
      1400   0.18201285     0.00096394548  0.00096394548  0              0              506.91693      1307.2415     -293.52207      0              127.63012      0              0              9.709353       9.7170474      0.2            94.346243    
      1500   0.22319806     0.00098038636  0.00098038636  0              0              305.95111      426.02937      185.69973      0              91.918838      0              0              9.708381       9.7155987      0.2            94.322734    
      1600   0.17228548     0.00093836731  0.00093836731  0              0              345.07701      402.63793      287.34896      0             -81.726426      0              0              9.707409       9.7271542      0.2            94.425464    
      1700   0.21148003     0.00085311659  0.00085311659  0              0             -385.50057     -197.93001     -573.28979      0             -628.92863      0              0              9.706437       9.7364513      0.2            94.506251    
      1800   0.27589233     0.00091601561  0.00091601561  0              0              226.77258      19.406996      433.98256      0             -483.64575      0              0              9.705465       9.7276031      0.2            94.410911    
      1900   0.25872378     0.0011069021   0.0011069021   0              0              93.703271     -100.34747      287.58144      0             -131.65338      0              0              9.704493       9.735989       0.2            94.482837    
      2000   0.18745548     0.0010330214   0.0010330214   0              0             -933.28644     -991.17952     -875.56753      0             -131.05502      0              0              9.703521       9.7449688      0.2            94.560509    
      2100   0.22576296     0.00070916986  0.00070916986  0              0             -78.936221     -489.84359      331.79354      0             -745.06756      0              0              9.702549       9.7299991      0.2            94.405793    
      2200   0.17597733     0.0009990737   0.0009990737   0              0              707.34917      816.81839      597.70292      0             -467.1666       0              0              9.7015769      9.7341129      0.2            94.436245    
      2300   0.21831609     0.00086950821  0.00086950821  0              0             -457.24473      42.020252     -956.70055      0             -325.94068      0              0              9.7006049      9.7426616      0.2            94.509711    
      2400   0.20405357     0.00085485052  0.00085485052  0              0              213.65231      215.15597      212.00663      0             -168.35011      0              0              9.6996329      9.7350485      0.2            94.426397    
      2500   0.22518408     0.00074878442  0.00074878442  0              0              493.63622      42.849158      944.24619      0              3.9198672      0              0              9.6986609      9.7262217      0.2            94.331327    
      2600   0.20923826     0.00093635318  0.00093635318  0              0             -692.61516     -520.38605     -865.02492      0             -882.67744      0              0              9.6976889      9.7500021      0.2            94.552487    
      2700   0.17941473     0.0010496328   0.0010496328   0              0             -367.95279     -525.92061     -210.20708      0              127.47156      0              0              9.6967169      9.7415163      0.2            94.460726    
      2800   0.18718306     0.0010402225   0.0010402225   0              0              962.50555      677.93712      1246.8654      0             -496.11019      0              0              9.6957449      9.7294015      0.2            94.333795    
      2900   0.24772595     0.00099124609  0.00099124609  0              0             -700.85021     -791.4152      -610.45346      0             -548.74039      0              0              9.6947729      9.739596       0.2            94.423171    
      3000   0.22115194     0.0010323346   0.0010323346   0              0             -588.65866     -314.12241     -863.34846      0             -518.22346      0              0              9.6938009      9.7412182      0.2            94.42943     
      3100   0.20372719     0.00091596898  0.00091596898  0              0              927.99415      660.77528      1195.0235      0              15.748185      0              0              9.6928289      9.718135       0.2            94.19622     
      3200   0.17967509     0.0009968237   0.0009968237   0              0             -669.22132     -1439.0114      100.36763      0             -16.178037      0              0              9.6918569      9.7376249      0.2            94.375667    
      3300   0.1942692      0.00095770331  0.00095770331  0              0             -782.7102      -281.83943     -1283.7785      0             -92.989647      0              0              9.6908849      9.7412111      0.2            94.400955    
      3400   0.17945984     0.001012313    0.001012313    0              0              619.07206      541.22022      696.79871      0             -103.15751      0              0              9.6899129      9.7244284      0.2            94.228864    
      3500   0.23354632     0.00075372277  0.00075372277  0              0              355.5478       73.189036      637.70151      0             -532.42884      0              0              9.6889409      9.734768       0.2            94.319592    
      3600   0.24920895     0.0011415271   0.0011415271   0              0             -1325.2921     -1572.2456     -1078.4984      0             -983.95195      0              0              9.6879689      9.7426866      0.2            94.386844    
      3700   0.25193385     0.00077443888  0.00077443888  0              0             -46.067848     -208.2366       115.95328      0             -320.03393      0              0              9.6869969      9.7269103      0.2            94.22455     
      3800   0.23495608     0.00068918659  0.00068918659  0              0              168.37596     -553.82484      890.41177      0             -178.28747      0              0              9.6860249      9.7159022      0.2            94.108471    
      3900   0.21443929     0.00075777692  0.00075777692  0              0              2.4297814      680.71172     -676.01703      0             -363.24117      0              0              9.6850529      9.7270197      0.2            94.2067      
      4000   0.19413633     0.0010642165   0.0010642165   0              0              209.55451      843.93574     -425.0018       0              111.27013      0              0              9.6840809      9.7296527      0.2            94.222743    
      4100   0.19842284     0.00082678619  0.00082678619  0              0              802.2455       791.42188      812.8946       0              5.6947911      0              0              9.6831089      9.7157458      0.2            94.078624    
      4200   0.19567213     0.00089832756  0.00089832756  0              0              142.58003      155.751        129.22386      0             -228.8246       0              0              9.6821369      9.7086702      0.2            94.000673    
      4300   0.2129068      0.00091644428  0.00091644428  0              0             -222.43925      451.44475     -896.47674      0             -271.9638       0              0              9.6811649      9.7141556      0.2            94.044342    
      4400   0.18056367     0.00075707072  0.00075707072  0              0              506.70805      688.54684      324.6797       0              114.91826      0              0              9.6801928      9.7051318      0.2            93.947547    
      4500   0.18650456     0.0010187754   0.0010187754   0              0              946.66533      1277.8885      615.29846      0              111.183        0              0              9.6792208      9.711054       0.2            93.995436    
      4600   0.22217699     0.0012032117   0.0012032117   0              0              6.2332392      615.92353     -603.61325      0              285.36672      0              0              9.6782488      9.7231463      0.2            94.103029    
      4700   0.19444397     0.00079354981  0.00079354981  0              0              42.481459      237.61955     -152.8336       0             -168.13772      0              0              9.6772768      9.7225387      0.2            94.087698    
      4800   0.19657032     0.001000552    0.001000552    0              0              605.8017       622.1399       589.30322      0             -253.54413      0              0              9.6763048      9.7289062      0.2            94.139862    
      4900   0.19422748     0.00090567176  0.00090567176  0              0              92.657604      519.04857     -333.89691      0              314.47744      0              0              9.6753328      9.7337133      0.2            94.176916    
      5000   0.21893095     0.00079977412  0.00079977412  0              0             -37.766262      288.73902     -364.42859      0              153.29391      0              0              9.6743608      9.7321179      0.2            94.152021    
      5100   0.21427438     0.001048375    0.001048375    0              0              1005.0419      1543.6179      466.33822      0              271.74962      0              0              9.6733888      9.7220069      0.2            94.044753    
      5200   0.22935975     0.00078369601  0.00078369601  0              0              772.52806      1515.0483      29.829607      0             -63.446427      0              0              9.6724168      9.7189892      0.2            94.006115    
      5300   0.2063822      0.00099133347  0.00099133347  0              0              954.81317      2331.8122     -422.32149      0              534.99013      0              0              9.6714448      9.7191369      0.2            93.998096    
      5400   0.2034452      0.00082296849  0.00082296849  0              0              784.94898      1209.1454      360.58123      0              524.09023      0              0              9.6704728      9.7179647      0.2            93.977313    
      5500   0.20239924     0.00095301707  0.00095301707  0              0              541.72941      736.15068      347.12873      0              6.3057047      0              0              9.6695008      9.72541        0.2            94.03986     
      5600   0.22154877     0.00082876415  0.00082876415  0              0             -304.83373     -8.1310369     -601.68944      0              168.68731      0              0              9.6685288      9.731426       0.2            94.088573    
      5700   0.18316095     0.0011168755   0.0011168755   0              0              852.59759      1592.7597      112.23675      0             -213.9479       0              0              9.6675568      9.7137282      0.2            93.908019    
      5800   0.21597804     0.00095170064  0.00095170064  0              0              334.21373      91.256374      576.95876      0              442.2843       0              0              9.6665848      9.7037097      0.2            93.801732    
      5900   0.19401042     0.0010097591   0.0010097591   0              0             -386.5785      -402.04761     -371.2711       0              278.58345      0              0              9.6656128      9.7092492      0.2            93.845843    
      6000   0.26130579     0.00084307833  0.00084307833  0              0             -100.70233      263.28833     -464.88424      0              419.86486      0              0              9.6646408      9.7140587      0.2            93.882888    
      6100   0.21028617     0.0010630307   0.0010630307   0              0              293.29046     -38.869835      625.28921      0              760.82234      0              0              9.6636688      9.7118734      0.2            93.852328    
      6200   0.2003706      0.00093026243  0.00093026243  0              0              186.41473      533.39975     -160.71713      0              537.76451      0              0              9.6626968      9.7192985      0.2            93.914634    
      6300   0.2003298      0.0010290952   0.0010290952   0              0              40.10676       809.36617     -729.34806      0              267.83024      0              0              9.6617248      9.71982        0.2            93.910225    
      6400   0.24253415     0.00091763073  0.00091763073  0              0              316.04843     -30.413962      662.33047      0             -243.13225      0              0              9.6607528      9.7152858      0.2            93.856974    
      6500   0.16916203     0.00092017437  0.00092017437  0              0              273.67118      252.18024      295.00572      0              178.14937      0              0              9.6597808      9.7158493      0.2            93.852974    
      6600   0.2684837      0.0010093075   0.0010093075   0              0             -104.992        429.59015     -639.74057      0             -292.27166      0              0              9.6588088      9.7139163      0.2            93.82486     
      6700   0.18941597     0.0011108232   0.0011108232   0              0             -14.447046     -115.92686      86.822588      0             -217.09426      0              0              9.6578367      9.7006554      0.2            93.687346    
      6800   0.19710315     0.00090408609  0.00090408609  0              0              215.33053     -64.69645       495.18939      0             -199.80765      0              0              9.6568647      9.700959       0.2            93.680849    
      6900   0.16455027     0.00088705214  0.00088705214  0              0             -31.139148      335.16785     -397.64462      0              129.72758      0              0              9.6558927      9.7074724      0.2            93.734312    
      7000   0.17643857     0.00091596767  0.00091596767  0              0              731.74875      1569.7929     -106.45877      0             -356.05459      0              0              9.6549207      9.7063079      0.2            93.713633    
      7100   0.16770433     0.00088815804  0.00088815804  0              0              941.67869      1520.2308      362.98249      0              591.79523      0              0              9.6539487      9.6990666      0.2            93.634292    
      7200   0.20613485     0.00089581053  0.00089581053  0              0              62.981349      243.48295     -117.67744      0             -242.69943      0              0              9.6529767      9.6957158      0.2            93.592519    
      7300   0.2074832      0.0011479431   0.0011479431   0              0              252.32376      799.73671     -295.25524      0             -241.66933      0              0              9.6520047      9.6947352      0.2            93.57363     
      7400   0.26144834     0.00097270669  0.00097270669  0              0              477.09659      763.88925      190.14664      0             -372.43222      0              0              9.6510327      9.6912079      0.2            93.530165    
      7500   0.23880686     0.00090798268  0.00090798268  0              0              208.57816      137.04488      279.96057      0             -11.770192      0              0              9.6500607      9.7007555      0.2            93.612879    
      7600   0.19681544     0.0010204169   0.0010204169   0              0             -155.51123     -76.827491     -234.38166      0             -130.26599      0              0              9.6490887      9.6954227      0.2            93.551994    
      7700   0.22833363     0.00095642975  0.00095642975  0              0             -24.778645      125.95687     -175.703        0             -45.889714      0              0              9.6481167      9.6917598      0.2            93.507229    
      7800   0.21204037     0.0011602665   0.0011602665   0              0              857.29807      1501.9491      212.49132      0              621.17895      0              0              9.6471447      9.6953286      0.2            93.532238    
      7900   0.24278568     0.0011094648   0.0011094648   0              0              308.55219      444.87214      172.0955       0             -212.7637       0              0              9.6461727      9.7001809      0.2            93.56962     
      8000   0.22158847     0.00095212527  0.00095212527  0              0              507.72018      1258.6085     -243.35589      0             -372.40327      0              0              9.6452007      9.691417       0.2            93.475662    
      8100   0.1836854      0.00090820951  0.00090820951  0              0              114.79668      197.22965      32.197835      0             -348.51592      0              0              9.6442287      9.6912868      0.2            93.464986    
      8200   0.15714981     0.001176109    0.001176109    0              0              310.1796       441.81956      178.3568       0              94.968116      0              0              9.6432567      9.6943735      0.2            93.485332    
      8300   0.20604823     0.0011615269   0.0011615269   0              0             -120.5506      -185.94961     -55.310369      0             -359.62888      0              0              9.6422847      9.6947502      0.2            93.479541    
      8400   0.23908138     0.0011510333   0.0011510333   0              0              388.43428      859.07833     -82.400247      0             -36.451862      0              0              9.6413127      9.7028031      0.2            93.547758    
      8500   0.18266422     0.0010127709   0.0010127709   0              0              661.95628      1104.3222      219.4021       0             -227.07326      0              0              9.6403407      9.6938102      0.2            93.451633    
      8600   0.20835778     0.0009554787   0.0009554787   0              0              511.76186      857.93542      165.40731      0              21.826482      0              0              9.6393687      9.6925844      0.2            93.430394    
      8700   0.17700598     0.0011519031   0.0011519031   0              0              158.75343      602.04391     -284.68178      0              154.26676      0              0              9.6383967      9.7151895      0.2            93.63885     
      8800   0.17366459     0.0010700797   0.0010700797   0              0             -278.16391     -499.87181     -56.653614      0             -90.279802      0              0              9.6374247      9.7131729      0.2            93.609972    
      8900   0.25211043     0.0012326889   0.0012326889   0              0              320.013        382.75321      257.13257      0              170.36104      0              0              9.6364526      9.7137984      0.2            93.606559    
      9000   0.17852799     0.00099027464  0.00099027464  0              0              196.11912      439.76623     -47.742917      0             -636.16287      0              0              9.6354806      9.7267191      0.2            93.721613    
      9100   0.23404827     0.00091701703  0.00091701703  0              0              124.55223      468.03752     -219.12924      0             -500.92988      0              0              9.6345086      9.7223433      0.2            93.67        
      9200   0.29378858     0.00068943334  0.00068943334  0              0              655.85826      1213.6555      97.887062      0             -158.89258      0              0              9.6335366      9.7186294      0.2            93.624772    
      9300   0.20971788     0.00095568334  0.00095568334  0              0              621.7503       1095.3881      147.9505       0             -268.18533      0              0              9.6325646      9.7179334      0.2            93.608621    
      9400   0.1616988      0.00085239576  0.00085239576  0              0              288.69225      701.30173     -124.11169      0             -605.35233      0              0              9.6315926      9.7257631      0.2            93.674589    
      9500   0.17969503     0.00079705411  0.00079705411  0              0              272.60897      651.18677     -106.17352      0             -502.59102      0              0              9.6306206      9.7233091      0.2            93.641501    
      9600   0.21207948     0.00073021176  0.00073021176  0              0              506.53471      947.30201      65.600841      0             -69.695284      0              0              9.6296486      9.7183846      0.2            93.584629    
      9700   0.19190653     0.00087239656  0.00087239656  0              0              406.34453      743.71467      68.81149       0             -928.8105       0              0              9.6286766      9.719583       0.2            93.586721    
      9800   0.17546029     0.00098843863  0.00098843863  0              0             -199.36424     -160.08749     -238.83007      0             -5.6537939      0              0              9.6277046      9.7295666      0.2            93.673393    
      9900   0.20311551     0.00089437124  0.00089437124  0              0             -23.091036     -44.552569     -1.8041202      0             -916.22049      0              0              9.6267326      9.7355608      0.2            93.721641    
     10000   0.20542336     0.00083128072  0.00083128072  0              0              718.0684       953.30144      482.65294      0             -87.048371      0              0              9.6257606      9.7363207      0.2            93.719492    
     10100   0.17751685     0.00096628307  0.00096628307  0              0              674.81973      1341.7209      7.7549467      0              13.586726      0              0              9.6247886      9.733319       0.2            93.681138    
     10200   0.21068894     0.00097981637  0.00097981637  0              0             -184.74408      283.74118     -653.42121      0             -308.43758      0              0              9.6238166      9.7454263      0.2            93.788195    
     10300   0.21364682     0.00098832375  0.00098832375  0              0              456.44475      730.00114      182.7174       0             -635.10212      0              0              9.6228446      9.7465038      0.2            93.789092    
     10400   0.21541091     0.00084849888  0.00084849888  0              0              1053.5991      1469.0367      637.97726      0              173.40393      0              0              9.6218726      9.7418072      0.2            93.734427    
     10500   0.18672352     0.0010368594   0.0010368594   0              0              91.016946      456.40553     -274.52847      0             -326.60901      0              0              9.6209006      9.7416165      0.2            93.723124    
     10600   0.26041377     0.00084243866  0.00084243866  0              0              510.96999      1717.7839     -696.0634       0             -482.56749      0              0              9.6199286      9.7434941      0.2            93.731717    
     10700   0.20924006     0.0013393867   0.0013393867   0              0              539.79484      703.93789      375.48268      0              11.687661      0              0              9.6189566      9.7444651      0.2            93.731586    
     10800   0.21623441     0.0010262294   0.0010262294   0              0              681.79681      670.50465      692.94457      0             -77.448882      0              0              9.6179846      9.7491363      0.2            93.767042    
     10900   0.19593713     0.0009338635   0.0009338635   0              0              320.35975      1270.739      -630.1926       0             -1053.8334      0              0              9.6170126      9.7538862      0.2            93.803246    
     11000   0.22488625     0.0008891079   0.0008891079   0              0             -251.63996      307.68673     -811.17075      0             -568.80778      0              0              9.6160406      9.7541952      0.2            93.796736    
     11100   0.16276315     0.001177628    0.001177628    0              0              1589.7982      2110.0855      1069.3481      0             -838.98264      0              0              9.6150685      9.7336615      0.2            93.589823    
     11200   0.24036188     0.00088824726  0.00088824726  0              0              1171.1881      1365.0918      977.09339      0             -608.86941      0              0              9.6140965      9.7288996      0.2            93.53458     
     11300   0.20187463     0.0010588539   0.0010588539   0              0             -123.40401      1255.1904     -1502.1619      0             -270.35459      0              0              9.6131245      9.7420709      0.2            93.65174     
     11400   0.22307949     0.00098416509  0.00098416509  0              0             -491.0423      -278.48467     -703.74333      0             -116.08645      0              0              9.6121525      9.7389285      0.2            93.612067    
     11500   0.22868169     0.00091817185  0.00091817185  0              0              1206.6403      611.93683      1801.149       0              51.893343      0              0              9.6111805      9.7110428      0.2            93.334585    
     11600   0.22820457     0.00087780866  0.00087780866  0              0              917.76637      1477.4618      357.93317      0             -466.62024      0              0              9.6102085      9.7151223      0.2            93.364351    
     11700   0.28875891     0.00097271176  0.00097271176  0              0             -675.06361      394.11653     -1744.4536      0              310.87648      0              0              9.6092365      9.7230315      0.2            93.43091     
     11800   0.21856307     0.00094112583  0.00094112583  0              0              451.49426      759.57756      143.25677      0              90.727234      0              0              9.6082645      9.7120873      0.2            93.316304    
     11900   0.19504897     0.00075050816  0.00075050816  0              0              1208.4579      998.20033      1418.5333      0             -300.59905      0              0              9.6072925      9.7075283      0.2            93.263064    
     12000   0.23527123     0.00073885451  0.00073885451  0              0             -219.70854     -108.95391     -330.58964      0              66.556057      0              0              9.6063205      9.7016522      0.2            93.19718     
     12100   0.21108773     0.00085224841  0.00085224841  0              0             -204.82132      733.45037     -1143.2996      0             -98.689307      0              0              9.6053485      9.7173235      0.2            93.338279    
     12200   0.22523053     0.000987878    0.000987878    0              0              668.57585      819.92082      517.05162      0              56.198495      0              0              9.6043765      9.7050947      0.2            93.211384    
     12300   0.19794833     0.0010633637   0.0010633637   0              0              1326.2686      1939.322       713.03431      0             -55.508953      0              0              9.6034045      9.7057058      0.2            93.207818    
     12400   0.19606976     0.0010543312   0.0010543312   0              0             -84.572546      274.11213     -443.43619      0              525.54854      0              0              9.6024325      9.7163217      0.2            93.300323    
     12500   0.1823567      0.0011812006   0.0011812006   0              0              612.43706      1769.3559     -544.65199      0             -335.36835      0              0              9.6014605      9.7201604      0.2            93.327736    
     12600   0.21236055     0.00091246239  0.00091246239  0              0              326.73038      239.88721      413.44633      0              22.896248      0              0              9.6004885      9.7245064      0.2            93.360011    
     12700   0.21013783     0.00098001189  0.00098001189  0              0              124.2005      -254.69728      502.90859      0             -44.502141      0              0              9.5995165      9.7198821      0.2            93.306168    
     12800   0.19535601     0.00094103267  0.00094103267  0              0             -27.232566      269.07945     -323.72403      0              93.141183      0              0              9.5985445      9.7187839      0.2            93.286179    
     12900   0.20125638     0.00085365361  0.00085365361  0              0             -223.08282      121.12966     -567.46754      0              371.13244      0              0              9.5975725      9.7293656      0.2            93.378291    
     13000   0.18770028     0.00080821544  0.00080821544  0              0              389.27258      417.86238      360.51035      0              876.32978      0              0              9.5966005      9.7276684      0.2            93.352547    
     13100   0.19950699     0.00085834729  0.00085834729  0              0              555.89737      627.98881      483.64687      0              92.581601      0              0              9.5956285      9.7246779      0.2            93.314396    
     13200   0.15626484     0.00097097479  0.00097097479  0              0             -75.614124      302.28628     -453.69202      0              32.99559       0              0              9.5946565      9.73373        0.2            93.391795    
     13300   0.23231975     0.0011123124   0.0011123124   0              0             -394.48062     -407.60439     -381.51938      0             -172.92959      0              0              9.5936844      9.7406098      0.2            93.448337    
     13400   0.18177878     0.0011190005   0.0011190005   0              0              1031.2462      1501.9092      560.4086       0             -283.67028      0              0              9.5927124      9.7402436      0.2            93.435356    
     13500   0.20329832     0.0010154531   0.0010154531   0              0              413.65817      627.03767      200.09049      0              241.07725      0              0              9.5917404      9.7447055      0.2            93.468686    
     13600   0.18655951     0.0011283021   0.0011283021   0              0             -26.442957      468.47024     -521.55363      0             -274.29986      0              0              9.5907684      9.7356037      0.2            93.371921    
     13700   0.24650524     0.00082573391  0.00082573391  0              0              246.86516      524.37905     -30.826086      0              78.910589      0              0              9.5897964      9.742398       0.2            93.427614    
     13800   0.26520416     0.00088069787  0.00088069787  0              0              919.84487      1289.0231      550.49715      0             -150.57198      0              0              9.5888244      9.7432905      0.2            93.426702    
     13900   0.21849395     0.00077258917  0.00077258917  0              0              184.33569      376.22138     -7.737775       0             -289.05054      0              0              9.5878524      9.7462658      0.2            93.445758    
     14000   0.1931776      0.00090583018  0.00090583018  0              0             -575.9124      -761.32066     -390.66397      0             -124.69425      0              0              9.5868804      9.7563848      0.2            93.533294    
     14100   0.19110121     0.0010471832   0.0010471832   0              0             -224.22443     -493.60681      44.994998      0             -385.74721      0              0              9.5859084      9.7481507      0.2            93.444879    
     14200   0.24197511     0.0007965443   0.0007965443   0              0              162.90839     -26.197742      351.84417      0             -423.74576      0              0              9.5849364      9.754327       0.2            93.494604    
     14300   0.24795283     0.0010412745   0.0010412745   0              0              260.15869      404.55703      115.60131      0             -139.29135      0              0              9.5839644      9.7487765      0.2            93.431927    
     14400   0.21908224     0.0011949378   0.0011949378   0              0              88.385086      487.7345      -311.13411      0             -670.80175      0              0              9.5829924      9.7519551      0.2            93.452911    
     14500   0.17334305     0.0011067491   0.0011067491   0              0              151.94125      419.08462     -115.36746      0             -855.60405      0              0              9.5820204      9.7604676      0.2            93.525       
     14600   0.21694071     0.00092425519  0.00092425519  0              0              389.00689      441.25823      336.57658      0             -876.11197      0              0              9.5810484      9.757908       0.2            93.490989    
     14700   0.20802363     0.0010734121   0.0010734121   0              0              176.98433      205.42565      148.35757      0             -295.78264      0              0              9.5800764      9.7514178      0.2            93.419327    
     14800   0.1998938      0.00088887934  0.00088887934  0              0             -27.036588      367.81445     -422.0617       0             -135.87603      0              0              9.5791044      9.7571813      0.2            93.465058    
     14900   0.18994582     0.001005995    0.001005995    0              0              42.930022      173.96239     -88.255163      0             -126.30907      0              0              9.5781324      9.7587666      0.2            93.470758    
     15000   0.17226132     0.0012154557   0.0012154557   0              0              170.43977     -182.53033      523.21701      0              321.86338      0              0              9.5771604      9.7597138      0.2            93.470344    
     15100   0.17971917     0.0012491245   0.0012491245   0              0             -165.09255     -180.7082      -149.6314       0             -464.65409      0              0              9.5761884      9.7692511      0.2            93.552189    
     15200   0.21661677     0.0010109431   0.0010109431   0              0             -240.78147      30.110824     -511.83508      0             -167.95982      0              0              9.5752164      9.7663619      0.2            93.515028    
     15300   0.23837313     0.0010411901   0.0010411901   0              0              326.65075      485.63801      167.53156      0             -63.811061      0              0              9.5742444      9.7654113      0.2            93.496434    
     15400   0.18164419     0.00094228766  0.00094228766  0              0              499.28686      474.25945      524.14644      0              242.28587      0              0              9.5732724      9.77136        0.2            93.543891    
     15500   0.17746075     0.0011037395   0.0011037395   0              0              203.89011      688.15033     -280.56276      0             -682.98936      0              0              9.5723003      9.7846329      0.2            93.661445    
     15600   0.18491278     0.001029637    0.001029637    0              0             -270.56914      151.29934     -692.59068      0             -224.34471      0              0              9.5713283      9.787029       0.2            93.674868    
     15700   0.21501741     0.0010036824   0.0010036824   0              0             -82.39664      -464.64885      299.67368      0             -467.33584      0              0              9.5703563      9.7867098      0.2            93.6623      
     15800   0.19236984     0.0012032099   0.0012032099   0              0              713.95181      625.28113      802.42053      0             -79.75678       0              0              9.5693843      9.7882599      0.2            93.667621    
     15900   0.22047321     0.0011075517   0.0011075517   0              0              156.13551      512.95021     -200.84713      0              341.25986      0              0              9.5684123      9.7920231      0.2            93.694115    
     16000   0.23261019     0.001021135    0.001021135    0              0             -852.9405      -680.85933     -1025.1921      0              281.17311      0              0              9.5674403      9.7893938      0.2            93.659441    
     16100   0.20222757     0.0010754119   0.0010754119   0              0              412.26553      703.19666      121.14599      0             -173.89447      0              0              9.5664683      9.7795761      0.2            93.556005    
     16200   0.16193089     0.0010427618   0.0010427618   0              0              1071.5802      945.92415      1197.1175      0             -44.037862      0              0              9.5654963      9.7765905      0.2            93.51794     
     16300   0.2299957      0.0010090033   0.0010090033   0              0             -49.353295      34.779821     -133.67272      0              448.62924      0              0              9.5645243      9.7876464      0.2            93.614182    
     16400   0.1785639      0.000761967    0.000761967    0              0             -507.31238      121.23279     -1136.0373      0              411.2607       0              0              9.5635523      9.7959919      0.2            93.684481    
     16500   0.22102146     0.00098915193  0.00098915193  0              0              293.67063      723.28747     -136.11419      0              509.38124      0              0              9.5625803      9.7840934      0.2            93.561179    
     16600   0.22661826     0.0010550331   0.0010550331   0              0              727.59915      253.09736      1201.9446      0              730.43551      0              0              9.5616083      9.775194       0.2            93.466576    
     16700   0.215811       0.0010831429   0.0010831429   0              0              589.5409       719.21188      459.6857       0              70.418407      0              0              9.5606363      9.7726601      0.2            93.432849    
     16800   0.17190335     0.00094259909  0.00094259909  0              0             -737.04614     -294.55061     -1179.724       0             -162.4349       0              0              9.5596643      9.7825933      0.2            93.518308    
     16900   0.15127198     0.00085422744  0.00085422744  0              0             -447.23867     -317.05145     -577.59128      0             -8.2141928      0              0              9.5586923      9.7897059      0.2            93.576786    
     17000   0.19412675     0.0010609722   0.0010609722   0              0              426.11588     -115.7267       967.77313      0             -869.71117      0              0              9.5577203      9.7802914      0.2            93.477289    
     17100   0.21849834     0.00087735822  0.00087735822  0              0              928.84628      1115.8253      741.69983      0             -215.50216      0              0              9.5567483      9.7755157      0.2            93.422143    
     17200   0.22372308     0.00095272592  0.00095272592  0              0             -554.80627     -392.97153     -716.78722      0              116.84205      0              0              9.5557763      9.7866286      0.2            93.518833    
     17300   0.21088174     0.0010704063   0.0010704063   0              0             -445.47159     -156.42765     -734.6927       0             -59.42229       0              0              9.5548043      9.7915186      0.2            93.556043    
     17400   0.24771574     0.00099187809  0.00099187809  0              0              415.90566      331.19871      500.44543      0              20.098919      0              0              9.5538323      9.7799146      0.2            93.435664    
     17500   0.22556978     0.0012446718   0.0012446718   0              0              728.04563      900.6556       555.26904      0             -131.13716      0              0              9.5528603      9.7817253      0.2            93.443454    
     17600   0.23317954     0.00097087685  0.00097087685  0              0              236.72276      660.94308     -187.65576      0              461.36089      0              0              9.5518883      9.7921347      0.2            93.533376    
     17700   0.24734091     0.0011335057   0.0011335057   0              0              385.35773      1277.1964     -506.63606      0             -1.140814       0              0              9.5509163      9.7887804      0.2            93.491822    
     17800   0.23020608     0.0014209535   0.0014209535   0              0              876.64507      1836.2659     -83.156461      0             -168.50906      0              0              9.5499442      9.7937092      0.2            93.529377    
     17900   0.22279276     0.00085955832  0.00085955832  0              0              1166.2276      1976.796       355.48859      0              70.668108      0              0              9.5489722      9.7878362      0.2            93.463776    
     18000   0.19807739     0.001096971    0.001096971    0              0              911.5587       1593.1561      229.77439      0             -259.8573       0              0              9.5480002      9.7822057      0.2            93.400502    
     18100   0.21054678     0.0011859468   0.0011859468   0              0              1078.4222      2378.8763     -222.19118      0             -884.1563       0              0              9.5470282      9.7888047      0.2            93.453995    
     18200   0.20638512     0.0010912158   0.0010912158   0              0              342.03916      1013.5114     -329.58177      0             -114.53159      0              0              9.5460562      9.7994823      0.2            93.546409    
     18300   0.22516118     0.0010575421   0.0010575421   0              0              954.04891      1808.3448      99.580717      0              117.4721       0              0              9.5450842      9.7901258      0.2            93.447575    
     18400   0.21177423     0.00092941028  0.00092941028  0              0              929.83735      1550.892       308.63321      0             -47.064823      0              0              9.5441122      9.793879       0.2            93.473881    
     18500   0.19184693     0.0013043167   0.0013043167   0              0              450.6384       890.70791      10.385729      0             -508.4499       0              0              9.5431402      9.807291       0.2            93.592354    
     18600   0.21084789     0.0013980483   0.0013980483   0              0              430.14425      1181.5649     -321.41527      0             -534.10555      0              0              9.5421682      9.8061768      0.2            93.572188    
     18700   0.27589608     0.00094214103  0.00094214103  0              0              812.66354      1718.4526     -93.282964      0              40.897796      0              0              9.5411962      9.8037983      0.2            93.539964    
     18800   0.29642725     0.001108583    0.001108583    0              0              575.70747      776.4872       374.78534      0              122.42055      0              0              9.5402242      9.8084402      0.2            93.574719    
     18900   0.25420805     0.00098366667  0.00098366667  0              0              758.95344      1275.3812      242.354        0              302.99293      0              0              9.5392522      9.8013277      0.2            93.497337    
     19000   0.19563068     0.0010235682   0.0010235682   0              0              271.0516       751.30498     -209.37806      0              5.8167146      0              0              9.5382802      9.8100373      0.2            93.570885    
     19100   0.19489011     0.0014312878   0.0014312878   0              0              550.90817      1531.8414     -430.17616      0             -114.68169      0              0              9.5373082      9.8127397      0.2            93.587123    
     19200   0.1737676      0.0011416371   0.0011416371   0              0              674.50222      1428.4989     -79.685251      0              48.068586      0              0              9.5363362      9.8236143      0.2            93.681289    
     19300   0.21156883     0.00091458845  0.00091458845  0              0              1062.7517      1543.1174      582.19096      0              9.1355709      0              0              9.5353642      9.8077069      0.2            93.520057    
     19400   0.22993828     0.0010485407   0.0010485407   0              0              143.26264     -10.309313      296.67182      0             -119.87859      0              0              9.5343922      9.8152659      0.2            93.582594    
     19500   0.19090604     0.0008794212   0.0008794212   0              0              192.18523      684.28909     -300.10745      0             -97.091823      0              0              9.5334202      9.8080078      0.2            93.50386     
     19600   0.211833       0.00098451558  0.00098451558  0              0             -80.415974      276.38359     -437.34997      0             -376.54959      0              0              9.5324482      9.7962957      0.2            93.382681    
     19700   0.23764582     0.00095637891  0.00095637891  0              0              176.91346      150.1138       203.56629      0             -418.15477      0              0              9.5314762      9.7948229      0.2            93.359121    
     19800   0.18277137     0.0011608571   0.0011608571   0              0              695.59035      838.77454      552.246        0             -435.9627       0              0              9.5305042      9.7902096      0.2            93.305633    
     19900   0.189081       0.00094638143  0.00094638143  0              0              83.533692     -12.820115      179.69518      0              147.08724      0              0              9.5295322      9.7908278      0.2            93.302008    
     20000   0.24907976     0.0011052775   0.0011052775   0              0             -353.01008     -347.22358     -358.97156      0              242.13617      0              0              9.5285601      9.7933838      0.2            93.316847    
     20100   0.23678886     0.001017224    0.001017224    0              0             -317.14833     -135.8248      -498.62896      0              125.60319      0              0              9.5275881      9.8072533      0.2            93.43947     
     20200   0.17173494     0.0013585602   0.0013585602   0              0              339.51702      790.09402     -111.21162      0             -172.16961      0              0              9.5266161      9.806173       0.2            93.419645    
     20300   0.19391244     0.00099445205  0.00099445205  0              0              755.63868      959.16841      551.90654      0              254.98464      0              0              9.5256441      9.7937036      0.2            93.291335    
     20400   0.21873249     0.0011111987   0.0011111987   0              0              334.85674      13.371723      656.18497      0             -461.97364      0              0              9.5246721      9.7892662      0.2            93.239551    
     20500   0.19779656     0.00093054893  0.00093054893  0              0             -13.099933      249.86507     -276.21502      0              119.05935      0              0              9.5237001      9.7981048      0.2            93.314212    
     20600   0.215512       0.0012264876   0.0012264876   0              0             -133.05098      657.24094     -923.45994      0             -91.466401      0              0              9.5227281      9.7964549      0.2            93.288976    
     20700   0.18908329     0.00086897077  0.00086897077  0              0             -94.996323      132.32746     -322.49973      0             -565.57918      0              0              9.5217561      9.7839079      0.2            93.159985    
     20800   0.23007815     0.0011858559   0.0011858559   0              0              1174.9986      1450.5682      899.27602      0              128.25544      0              0              9.5207841      9.7698924      0.2            93.017036    
     20900   0.24956466     0.00088849218  0.00088849218  0              0              973.92014      979.37504      968.33763      0             -170.31828      0              0              9.5198121      9.7689417      0.2            92.99849     
     21000   0.17555027     0.0011139836   0.0011139836   0              0             -170.80163     -144.71876     -197.06334      0              645.59282      0              0              9.5188401      9.7792235      0.2            93.086865    
     21100   0.21271791     0.0014048268   0.0014048268   0              0             -1005.6762     -921.09354     -1090.4057      0              273.59897      0              0              9.5178681      9.7741078      0.2            93.028668    
     21200   0.2333587      0.00096383369  0.00096383369  0              0              251.00321      1005.0831     -503.28224      0              220.66237      0              0              9.5168961      9.7828202      0.2            93.102083    
     21300   0.17227081     0.00099233642  0.00099233642  0              0              222.61283     -259.67944      704.70047      0             -432.26123      0              0              9.5159241      9.7820277      0.2            93.085033    
     21400   0.22343436     0.0011324148   0.0011324148   0              0              635.51127      245.78697      1025.0659      0             -146.47326      0              0              9.5149521      9.7682497      0.2            92.944428    
     21500   0.18896476     0.0011135474   0.0011135474   0              0              509.2234       1042.093      -23.826774      0              80.467698      0              0              9.5139801      9.7771061      0.2            93.019192    
     21600   0.20697463     0.00094027796  0.00094027796  0              0             -211.10972      619.38619     -1041.779       0              624.75022      0              0              9.5130081      9.7853789      0.2            93.088389    
     21700   0.21830173     0.0010319012   0.0010319012   0              0              221.08268      1022.5934     -580.58922      0             -87.503114      0              0              9.5120361      9.7891776      0.2            93.11501     
     21800   0.16102258     0.00078171013  0.00078171013  0              0              735.60765      1045.2496      425.75615      0              253.20891      0              0              9.5110641      9.7824972      0.2            93.041957    
     21900   0.25262538     0.00092147424  0.00092147424  0              0              1119.9192      1358.25        881.43352      0              57.268908      0              0              9.5100921      9.7908916      0.2            93.112281    
     22000   0.21685046     0.0011333118   0.0011333118   0              0              523.27199      854.59885      191.74335      0             -4.4856815      0              0              9.5091201      9.7971345      0.2            93.162128    
     22100   0.24073776     0.00093568168  0.00093568168  0              0             -5.4514713      573.84354     -584.93793      0              247.15709      0              0              9.5081481      9.8028462      0.2            93.206913    
     22200   0.21869862     0.0009392134   0.0009392134   0              0             -294.11169      30.561388     -618.9704       0              569.45926      0              0              9.507176       9.7975094      0.2            93.146646    
     22300   0.19928483     0.00087357149  0.00087357149  0              0              140.16159      271.71207      8.4212415      0              567.90928      0              0              9.506204       9.8000051      0.2            93.160848    
     22400   0.22696273     0.001107771    0.001107771    0              0              348.87343      357.36143      340.21645      0              757.06131      0              0              9.505232       9.8104908      0.2            93.250991    
     22500   0.22144678     0.0010931895   0.0010931895   0              0              246.00582      90.702406      401.13293      0              130.58609      0              0              9.50426        9.8110531      0.2            93.2468      
     22600   0.18882599     0.0010771707   0.0010771707   0              0              573.68012      1226.1044     -78.9372        0              181.39326      0              0              9.503288       9.8243092      0.2            93.36324     
     22700   0.15409043     0.001125826    0.001125826    0              0             -126.03872      153.94173     -406.21694      0             -356.83832      0              0              9.502316       9.8272928      0.2            93.382042    
     22800   0.23593665     0.00096996426  0.00096996426  0              0             -330.20663     -311.09282     -349.52429      0             -251.94317      0              0              9.501344       9.8224466      0.2            93.326444    
     22900   0.16189235     0.00075940297  0.00075940297  0              0              241.2157       284.81538      197.44549      0              200.59118      0              0              9.500372       9.8132774      0.2            93.229786    
     23000   0.22337232     0.00089684145  0.00089684145  0              0              530.4728       547.87835      512.81022      0              440.45578      0              0              9.4994         9.8079312      0.2            93.169462    
     23100   0.23571799     0.00097416655  0.00097416655  0              0              162.47746     -14.457739      339.23622      0              141.59934      0              0              9.498428       9.8126623      0.2            93.204866    
     23200   0.22083249     0.00099244291  0.00099244291  0              0              111.85182      426.79524     -203.27748      0              143.99274      0              0              9.497456       9.8143845      0.2            93.211685    
     23300   0.2136722      0.0010661012   0.0010661012   0              0             -323.11593     -12.40544      -633.97735      0              177.15921      0              0              9.496484       9.817628       0.2            93.232947    
     23400   0.19343819     0.0010408715   0.0010408715   0              0              543.04903      1424.0511     -338.10675      0              45.31702       0              0              9.495512       9.7977114      0.2            93.034286    
     23500   0.19152561     0.0010276607   0.0010276607   0              0              365.30819      423.79894      306.65345      0             -872.12654      0              0              9.49454        9.8104318      0.2            93.145537    
     23600   0.21324781     0.0010754292   0.0010754292   0              0              231.12001     -101.75685      563.82616      0             -762.30612      0              0              9.493568       9.8056699      0.2            93.090794    
     23700   0.16838164     0.0010377915   0.0010377915   0              0             -51.345733     -430.78191      327.91023      0             -541.61693      0              0              9.492596       9.7996325      0.2            93.023952    
     23800   0.17852038     0.00089422512  0.00089422512  0              0             -5.5146581      123.87793     -135.08573      0             -461.57389      0              0              9.491624       9.7956557      0.2            92.97668     
     23900   0.23036809     0.0007867902   0.0007867902   0              0              156.87098      575.71492     -262.16118      0             -755.81489      0              0              9.490652       9.7952235      0.2            92.963057    
     24000   0.18392406     0.00090079296  0.00090079296  0              0              265.08909      743.34741     -213.35399      0              366.44642      0              0              9.48968        9.8047207      0.2            93.043661    
     24100   0.25572379     0.001031275    0.001031275    0              0              97.916469      58.841911      136.82309      0             -363.37855      0              0              9.488708       9.8042849      0.2            93.029997    
     24200   0.24152545     0.001082652    0.001082652    0              0              555.71967      706.26699      405.02666      0             -230.47044      0              0              9.487736       9.8020091      0.2            92.998875    
     24300   0.18845913     0.0010903851   0.0010903851   0              0              140.99796     -52.94566       334.78274      0             -516.22339      0              0              9.486764       9.8129522      0.2            93.093161    
     24400   0.23834372     0.0011336688   0.0011336688   0              0              303.10102      779.13859     -173.08509      0             -110.04868      0              0              9.4857919      9.8070737      0.2            93.027861    
     24500   0.24029414     0.0010575809   0.0010575809   0              0              337.95728      1086.0971     -410.37906      0              78.189308      0              0              9.4848199      9.8083601      0.2            93.030529    
     24600   0.20712954     0.00094788534  0.00094788534  0              0              902.10215      2144.8428     -340.80726      0              482.97268      0              0              9.4838479      9.8027544      0.2            92.967832    
     24700   0.17490285     0.0010594441   0.0010594441   0              0              616.23619      1134.3767      97.944044      0              539.71735      0              0              9.4828759      9.7950327      0.2            92.88508     
     24800   0.21703462     0.0013062906   0.0013062906   0              0              1208.096       1884.3768      531.638        0              81.459699      0              0              9.4819039      9.7994704      0.2            92.917637    
     24900   0.2107332      0.0011740463   0.0011740463   0              0              1059.6454      1472.8674      646.23377      0              651.26766      0              0              9.4809319      9.7996327      0.2            92.90965     
     25000   0.17470693     0.0012848418   0.0012848418   0              0              137.61573      303.32854     -28.292934      0              292.82428      0              0              9.4799599      9.8011957      0.2            92.914942    
     25100   0.18321098     0.00091755955  0.00091755955  0              0             -318.81295      115.86614     -753.66876      0             -370.63201      0              0              9.4789879      9.8130608      0.2            93.017885    
     25200   0.1841834      0.0010092167   0.0010092167   0              0             -321.90626      209.41676     -853.38737      0             -604.45977      0              0              9.4780159      9.8146743      0.2            93.023639    
     25300   0.25438338     0.00088786432  0.00088786432  0              0             -142.80323     -57.149468     -228.63085      0             -552.75515      0              0              9.4770439      9.8161575      0.2            93.028156    
     25400   0.21552297     0.0011090335   0.0011090335   0              0              418.63335      173.35016      663.70028      0             -172.32158      0              0              9.4760719      9.8111545      0.2            92.971205    
     25500   0.17867339     0.00099282454  0.00099282454  0              0              65.719954     -817.38098      948.65937      0             -376.81816      0              0              9.4750999      9.8159169      0.2            93.006793    
     25600   0.22655506     0.00073405813  0.00073405813  0              0              376.09708      229.98274      522.04592      0              99.839875      0              0              9.4741279      9.8090761      0.2            92.932442    
     25700   0.23093437     0.00082708935  0.00082708935  0              0             -287.01419     -187.90871     -386.30506      0             -476.45662      0              0              9.4731559      9.8162842      0.2            92.991191    
     25800   0.25747124     0.00094327511  0.00094327511  0              0             -321.53288      419.74616     -1063.0064      0              46.66962       0              0              9.4721839      9.8233405      0.2            93.048488    
     25900   0.19498195     0.0010627458   0.0010627458   0              0             -487.89597      2.9595007     -978.91559      0              243.43248      0              0              9.4712119      9.8212078      0.2            93.01874     
     26000   0.22986633     0.0014198983   0.0014198983   0              0              243.35884      643.03446     -156.48122      0             -543.66077      0              0              9.4702399      9.8209269      0.2            93.006533    
     26100   0.26060681     0.0011634871   0.0011634871   0              0              542.95753      267.33875      818.43576      0              12.485856      0              0              9.4692679      9.8205103      0.2            92.993043    
     26200   0.18923744     0.0010664514   0.0010664514   0              0              1012.7521      817.32972      1207.9733      0             -399.54445      0              0              9.4682959      9.8156542      0.2            92.937518    
     26300   0.19039027     0.0011151584   0.0011151584   0              0              513.15114      102.00534      924.14113      0             -250.73417      0              0              9.4673239      9.8156528      0.2            92.927964    
     26400   0.21238027     0.0011963739   0.0011963739   0              0             -231.41802     -331.27053     -131.73722      0              70.776163      0              0              9.4663519      9.8250111      0.2            93.007012    
     26500   0.23074848     0.0010457817   0.0010457817   0              0             -1240.3318     -1499.6823     -981.15497      0             -469.67517      0              0              9.4653799      9.8363476      0.2            93.104766    
     26600   0.18362516     0.00099661816  0.00099661816  0              0             -1454.142      -1613.6262     -1294.8118      0              106.48757      0              0              9.4644078      9.8399029      0.2            93.128854    
     26700   0.16229697     0.0012040519   0.0012040519   0              0             -918.36461     -1185.3831     -651.5135       0              22.65606       0              0              9.4634358      9.8329294      0.2            93.053296    
     26800   0.16657625     0.0012672503   0.0012672503   0              0              223.93082      139.07977      308.6322       0              729.37608      0              0              9.4624638      9.8299303      0.2            93.01536     
     26900   0.2609199      0.0012771397   0.0012771397   0              0              614.33111      328.96317      899.53517      0              783.94735      0              0              9.4614918      9.8263893      0.2            92.972302    
     27000   0.17352421     0.0011444521   0.0011444521   0              0              60.744044     -706.72765      828.06095      0              86.277077      0              0              9.4605198      9.835171       0.2            93.04583     
     27100   0.19659361     0.00098617703  0.00098617703  0              0              369.8648       439.52544      300.0375       0              257.22046      0              0              9.4595478      9.8304264      0.2            92.991389    
     27200   0.20945133     0.0011950527   0.0011950527   0              0              14.200268      480.6669      -452.42123      0              958.91901      0              0              9.4585758      9.8362933      0.2            93.037326    
     27300   0.2119282      0.00094235241  0.00094235241  0              0             -606.1722      -401.95286     -810.56923      0              378.03924      0              0              9.4576038      9.8416775      0.2            93.078686    
     27400   0.238731       0.0010322445   0.0010322445   0              0             -328.65129     -82.771471     -574.7351       0              600.27093      0              0              9.4566318      9.8433768      0.2            93.08519     
     27500   0.2278377      0.0009310224   0.0009310224   0              0             -744.31242     -1280.7681     -208.01641      0              416.14926      0              0              9.4556598      9.8469123      0.2            93.109053    
     27600   0.21983494     0.00095818234  0.00095818234  0              0              142.83051      41.05136       244.41929      0              568.64913      0              0              9.4546878      9.8334845      0.2            92.972526    
     27700   0.19874761     0.00095690002  0.00095690002  0              0              489.32771      550.81596      427.6495       0              952.6709       0              0              9.4537158      9.8313773      0.2            92.943047    
     27800   0.21913038     0.0010294388   0.0010294388   0              0              248.36051      87.674535      408.87655      0              363.93814      0              0              9.4527438      9.8324881      0.2            92.943991    
     27900   0.28189724     0.00091455005  0.00091455005  0              0              308.40196      472.59176      144.02887      0              986.11161      0              0              9.4517718      9.8318003      0.2            92.927933    
     28000   0.19822046     0.00093240006  0.00093240006  0              0             -747.59339     -1367.6307     -127.70108      0              180.06938      0              0              9.4507998      9.8430956      0.2            93.025126    
     28100   0.17792051     0.0010670295   0.0010670295   0              0             -73.25878       186.55942     -333.2094       0             -51.834746      0              0              9.4498278      9.8397335      0.2            92.983787    
[...]
     43000   0.23676821     0.0010039932   0.0010039932   0              0              5.614358       218.46616     -207.43618      0              327.09508      0              0              9.3049991      9.9677697      0.2            92.750088    
     43100   0.19402577     0.0011676194   0.0011676194   0              0              655.30378      1485.8981     -175.44214      0              129.12696      0              0              9.3040271      9.9657382      0.2            92.721498    
     43200   0.26945467     0.00086504596  0.00086504596  0              0              415.86594      844.69685     -13.151059      0             -461.36012      0              0              9.3030551      9.9590294      0.2            92.649399    
     43300   0.24113709     0.00095691738  0.00095691738  0              0              1141.0733      2204.8256      77.130863      0              247.47015      0              0              9.3020831      9.9613756      0.2            92.661543    
     43400   0.17580472     0.0012179486   0.0012179486   0              0              343.76204      507.74356      179.60002      0             -13.263837      0              0              9.3011111      9.9694391      0.2            92.726861    
     43500   0.21239278     0.00094607339  0.00094607339  0              0              233.67491      198.52847      268.64966      0             -195.72323      0              0              9.3001391      9.9683401      0.2            92.706949    
     43600   0.25555587     0.0011355353   0.0011355353   0              0              674.23737      1029.5773      318.6735       0              199.75032      0              0              9.2991671      9.9639936      0.2            92.656842    
     43700   0.20842929     0.00082525035  0.00082525035  0              0              308.42412      212.6276       404.08095      0              318.84084      0              0              9.2981951      9.9631415      0.2            92.639233    
     43800   0.21187141     0.0009346913   0.0009346913   0              0              762.08292      964.70527      559.32216      0             -24.120435      0              0              9.2972231      9.970624       0.2            92.699116    
     43900   0.16613444     0.0011111909   0.0011111909   0              0              1638.4749      2518.2343      758.53229      0             -50.154138      0              0              9.2962511      9.9621316      0.2            92.610477    
     44000   0.24544515     0.00096333862  0.00096333862  0              0              1000.2708      1202.8635      797.47896      0             -269.53917      0              0              9.2952791      9.9592904      0.2            92.574384    
     44100   0.19696089     0.0011458185   0.0011458185   0              0              990.96444      1138.5129      843.26705      0              258.59947      0              0              9.2943071      9.9704388      0.2            92.66832     
     44200   0.2387125      0.00084561545  0.00084561545  0              0              857.2565       883.01189      831.3526       0             -135.93383      0              0              9.2933351      9.9758263      0.2            92.708696    
     44300   0.17427577     0.0012246218   0.0012246218   0              0              583.74248      349.5258       817.81755      0              395.72571      0              0              9.2923631      9.9761409      0.2            92.701923    
     44400   0.18559032     0.00098690201  0.00098690201  0              0              584.3834       226.01298      942.58878      0             -172.96396      0              0              9.291391       9.9791062      0.2            92.719778    
     44500   0.19336361     0.0009952838   0.0009952838   0              0              503.58735      158.00272      849.00598      0              388.4018       0              0              9.290419       9.9771543      0.2            92.691945    
     44600   0.21298603     0.00082209401  0.00082209401  0              0              432.89348      28.485226      837.11253      0              588.29396      0              0              9.289447       9.9742621      0.2            92.655379    
     44700   0.20811917     0.0012854646   0.0012854646   0              0              618.1909       490.47179      745.74644      0              85.555979      0              0              9.288475       9.9725313      0.2            92.629608    
     44800   0.21928276     0.0011159844   0.0011159844   0              0              842.58341      991.49958      693.55469      0              775.63912      0              0              9.287503       9.9769727      0.2            92.661164    
     44900   0.22863871     0.0010047301   0.0010047301   0              0              1313.619       1970.9337      656.127        0             -53.165853      0              0              9.286531       9.9728882      0.2            92.613536    
     45000   0.18788851     0.00089136538  0.00089136538  0              0              874.9506       1064.2835      685.46513      0              139.98863      0              0              9.285559       9.9660234      0.2            92.540098    
     45100   0.18495012     0.0011318284   0.0011318284   0              0              870.40871      1116.3279      624.32927      0              13.242057      0              0              9.284587       9.9692614      0.2            92.560475    
     45200   0.16215172     0.0010382023   0.0010382023   0              0              794.78049      1002.8167      586.56867      0             -66.712786      0              0              9.283615       9.9663992      0.2            92.524214    
     45300   0.16382825     0.0013286722   0.0013286722   0              0              483.99875      401.83873      565.98968      0              188.04434      0              0              9.282643       9.9722228      0.2            92.568584    
     45400   0.21088623     0.0010614492   0.0010614492   0              0              345.9711       230.86161      460.94535      0             -65.755896      0              0              9.281671       9.977459       0.2            92.607492    
     45500   0.17616247     0.0011728044   0.0011728044   0              0              336.70833      227.23845      445.99845      0              453.58642      0              0              9.280699       9.9694969      0.2            92.5239      
     45600   0.16099926     0.0011553823   0.0011553823   0              0              727.04523      1198.5974      255.32964      0              309.84443      0              0              9.279727       9.9738168      0.2            92.554297    
     45700   0.20303819     0.0010720669   0.0010720669   0              0              521.32243      839.0714       203.43143      0              583.49653      0              0              9.278755       9.9685004      0.2            92.495273    
     45800   0.20048516     0.00086937943  0.00086937943  0              0              403.56375      692.27364      114.67955      0             -389.15775      0              0              9.277783       9.9667578      0.2            92.469416    
     45900   0.25519399     0.00098575915  0.00098575915  0              0              434.36225      946.90205     -78.375552      0             -645.85845      0              0              9.276811       9.9727505      0.2            92.515321    
     46000   0.25237032     0.0011060629   0.0011060629   0              0              900.889        1874.4915     -72.846555      0              680.0659       0              0              9.275839       9.9701116      0.2            92.48115     
     46100   0.20096526     0.0011431947   0.0011431947   0              0              673.42503      1444.7542     -98.056785      0              114.80248      0              0              9.274867       9.973549       0.2            92.50334     
     46200   0.19307469     0.0010294065   0.0010294065   0              0              458.30843      1100.4219     -183.98554      0              34.121447      0              0              9.273895       9.9779795      0.2            92.534734    
     46300   0.17506154     0.0012246462   0.0012246462   0              0              363.28571      1005.257      -278.88377      0              29.028713      0              0              9.272923       9.9819853      0.2            92.562181    
     46400   0.20033605     0.0009856586   0.0009856586   0              0              399.5298       1089.6899     -290.80764      0             -54.51467       0              0              9.271951       9.9767331      0.2            92.50378     
     46500   0.18930002     0.00098323464  0.00098323464  0              0              475.96938      1146.2524     -194.48662      0              323.66687      0              0              9.270979       9.9710217      0.2            92.441133    
     46600   0.17821538     0.001236672    0.001236672    0              0              312.49881      805.66752     -180.82112      0              590.57204      0              0              9.2700069      9.9721602      0.2            92.441994    
     46700   0.18445187     0.0010426763   0.0010426763   0              0              286.87425      742.54142     -168.94751      0             -190.72904      0              0              9.2690349      9.9769081      0.2            92.47631     
     46800   0.1993347      0.001110186    0.001110186    0              0              214.03184      657.89535     -229.99041      0              207.36106      0              0              9.2680629      9.9750973      0.2            92.449829    
     46900   0.23123832     0.00092569211  0.00092569211  0              0              246.19992      714.67707     -222.44837      0             -24.6104        0              0              9.2670909      9.9743138      0.2            92.432873    
     47000   0.23391649     0.00090052575  0.00090052575  0              0             -257.81761     -300.5786      -215.23078      0             -176.01818      0              0              9.2661189      9.9792453      0.2            92.468873    
     47100   0.17554586     0.0010978218   0.0010978218   0              0              419.14673      1052.1458     -214.04882      0             -472.2998       0              0              9.2651469      9.9730352      0.2            92.401636    
     47200   0.2161536      0.00085005037  0.00085005037  0              0             -223.31718     -223.33192     -223.4715       0             -833.54747      0              0              9.2641749      9.9741917      0.2            92.402657    
     47300   0.18644654     0.00087484496  0.00087484496  0              0             -518.86172     -710.09427     -327.82183      0             -421.67758      0              0              9.2632029      9.9690785      0.2            92.345597    
     47400   0.16826649     0.00081267803  0.00081267803  0              0             -32.227445      213.17995     -277.82278      0             -19.591556      0              0              9.2622309      9.9645956      0.2            92.294385    
     47500   0.18589312     0.00093453275  0.00093453275  0              0             -252.03234     -128.10371     -376.12063      0              335.47945      0              0              9.2612589      9.9691839      0.2            92.327194    
     47600   0.20703971     0.001118452    0.001118452    0              0             -450.56176     -426.58798     -474.71914      0              617.70405      0              0              9.2602869      9.9712773      0.2            92.336889    
     47700   0.18827524     0.00086305298  0.00086305298  0              0              70.290978      601.7867      -461.35468      0              239.82085      0              0              9.2593149      9.9617924      0.2            92.239372    
     47800   0.21089997     0.0008319868   0.0008319868   0              0             -1.5333599      390.83        -394.07214      0              250.25179      0              0              9.2583429      9.9577252      0.2            92.192035    
     47900   0.12759342     0.001042679    0.001042679    0              0             -19.916231      269.98773     -309.99532      0             -451.17812      0              0              9.2573709      9.9609365      0.2            92.212084    
     48000   0.23686921     0.00082284458  0.00082284458  0              0             -209.65056     -154.62768     -264.84054      0              283.31165      0              0              9.2563989      9.9655751      0.2            92.245338    
     48100   0.23191205     0.0007091561   0.0007091561   0              0             -224.2378      -148.68122     -299.97512      0              151.9886       0              0              9.2554269      9.9672126      0.2            92.250807    
     48200   0.2299748      0.00080839363  0.00080839363  0              0              391.68521      1030.2893     -247.06757      0              405.03674      0              0              9.2544549      9.9669574      0.2            92.238757    
     48300   0.22220877     0.00095299238  0.00095299238  0              0              696.05215      1575.7965     -183.84102      0              119.76629      0              0              9.2534829      9.9712325      0.2            92.268629    
     48400   0.19448272     0.0010132901   0.0010132901   0              0              83.771442      358.60602     -191.27386      0              703.17267      0              0              9.2525109      9.960099       0.2            92.155924    
     48500   0.20259927     0.0010145432   0.0010145432   0              0              624.95662      1430.52       -180.76444      0             -26.039056      0              0              9.2515389      9.9507845      0.2            92.060069    
     48600   0.19002609     0.00089289237  0.00089289237  0              0              165.51446      482.71533     -151.85954      0             -133.91966      0              0              9.2505669      9.9513626      0.2            92.055745    
     48700   0.20335972     0.00074311746  0.00074311746  0              0             -163.2226      -122.44964     -204.16706      0             -584.19776      0              0              9.2495949      9.9500483      0.2            92.033915    
     48800   0.20311808     0.0010752771   0.0010752771   0              0              380.09004      965.93365     -205.90107      0             -355.98203      0              0              9.2486228      9.9490701      0.2            92.015197    
     48900   0.24572593     0.0010297169   0.0010297169   0              0              310.56066      825.96496     -205.01747      0             -251.60515      0              0              9.2476508      9.9595661      0.2            92.10259     
     49000   0.17764567     0.00102518     0.00102518     0              0             -227.72631     -274.36861     -181.23265      0              293.62058      0              0              9.2466788      9.9520276      0.2            92.023203    
     49100   0.17490847     0.0012368209   0.0012368209   0              0              118.67471      440.84363     -203.67763      0              146.1151       0              0              9.2457068      9.9559459      0.2            92.049757    
     49200   0.16834292     0.0012176392   0.0012176392   0              0              211.36396      593.31502     -170.74052      0              134.15967      0              0              9.2447348      9.953189       0.2            92.014593    
     49300   0.17620025     0.0010224551   0.0010224551   0              0              225.30581      621.62745     -171.18763      0              49.534261      0              0              9.2437628      9.9417633      0.2            91.899302    
     49400   0.17941204     0.0009956179   0.0009956179   0              0              25.179281      253.99674     -203.79093      0             -242.89503      0              0              9.2427908      9.9467682      0.2            91.935898    
     49500   0.15434657     0.0010005008   0.0010005008   0              0              47.029013      267.44363     -173.53234      0              364.97205      0              0              9.2418188      9.9460064      0.2            91.919189    
     49600   0.21530878     0.0011072624   0.0011072624   0              0             -114.53378     -53.15226      -176.12429      0              375.49411      0              0              9.2408468      9.9520092      0.2            91.964992    
     49700   0.18831786     0.0010653781   0.0010653781   0              0              663.18793      1343.2036     -16.952619      0              876.83089      0              0              9.2398748      9.9430066      0.2            91.872136    
     49800   0.14123699     0.0010270269   0.0010270269   0              0              495.8435       956.14029      35.372551      0              65.918034      0              0              9.2389028      9.9378373      0.2            91.814712    
     49900   0.20566088     0.0011156055   0.0011156055   0              0              528.66714      1012.3844      44.773877      0              70.586813      0              0              9.2379308      9.937419       0.2            91.801189    
     50000   0.17661036     0.00092397406  0.00092397406  0              0             -47.039783     -101.68575      7.4565645      0              264.54901      0              0              9.2369588      9.9360366      0.2            91.778761    
     50100   0.21753509     0.00091752197  0.00091752197  0              0              421.43993      856.54972     -13.841459      0              331.5436       0              0              9.2359868      9.940431       0.2            91.809689    
     50200   0.18610042     0.0010082392   0.0010082392   0              0             -66.758227     -157.15503      23.480686      0              123.37358      0              0              9.2350148      9.9365669      0.2            91.764343    
     50300   0.19500514     0.0013017157   0.0013017157   0              0             -382.92016     -735.6595      -30.345904      0              650.06982      0              0              9.2340428      9.9316652      0.2            91.709421    
Loop time of 1.09099 on 1 procs for 50000 steps with 58 atoms

Performance: 39596.963 ns/day, 0.001 hours/ns, 45829.819 timesteps/s
99.6% CPU use with 1 MPI tasks x 1 OpenMP threads

MPI task timing breakdown:
Section |  min time  |  avg time  |  max time  |%varavg| %total
---------------------------------------------------------------
Pair    | 0          | 0          | 0          |   0.0 |  0.00
Bond    | 0.15611    | 0.15611    | 0.15611    |   0.0 | 14.31
Neigh   | 0          | 0          | 0          |   0.0 |  0.00
Comm    | 0.35869    | 0.35869    | 0.35869    |   0.0 | 32.88
Output  | 0.0067693  | 0.0067693  | 0.0067693  |   0.0 |  0.62
Modify  | 0.54326    | 0.54326    | 0.54326    |   0.0 | 49.80
Other   |            | 0.02616    |            |       |  2.40

Nlocal:             58 ave          58 max          58 min
Histogram: 1 0 0 0 0 0 0 0 0 0
Nghost:            491 ave         491 max         491 min
Histogram: 1 0 0 0 0 0 0 0 0 0
Neighs:              0 ave           0 max           0 min
Histogram: 1 0 0 0 0 0 0 0 0 0

Total # of neighbors = 0
Ave neighs/atom = 0
Ave special neighs/atom = 20.37931
Neighbor list builds = 0
Dangerous builds = 0


Total wall time: 0:00:01
