LAMMPS data file.

     58 atoms
    126 bonds
      0 angles
      0 dihedrals
      0 impropers
      1 atom types
    126 bond types
      0 angle types
      0 dihedral types
      0 improper types
  -4.860022   4.860022 xlo xhi
  -4.860022   4.860022 ylo yhi
  -0.100000   0.100000 zlo zhi

Masses # ['atom_id', 'mass']

1 10000.0

Atoms # ['atomID', 'moleculeID', 'atomType', 'charge', 'x', 'y', 'z']

     77      1      1   0.000000   4.857450  -4.208634   0.000000
     64      1      1   0.000000  -4.186838  -4.242239   0.000000
      6      1      1   0.000000  -3.265860  -4.594985   0.000000
     43      1      1   0.000000  -1.882544  -4.355811   0.000000
     74      1      1   0.000000  -0.271704  -3.680999   0.000000
     35      1      1   0.000000   0.572504  -4.201751   0.000000
     38      1      1   0.000000   2.650907   4.754367   0.000000
     42      1      1   0.000000   1.632249   4.801476   0.000000
     18      1      1   0.000000   3.997528   4.837793   0.000000
     10      1      1   0.000000  -3.759590  -3.190313   0.000000
     37      1      1   0.000000  -1.331708  -3.522570   0.000000
     33      1      1   0.000000  -0.573814  -2.755671   0.000000
     17      1      1   0.000000   1.928310  -3.712684   0.000000
     19      1      1   0.000000   3.346900  -3.411029   0.000000
     45      1      1   0.000000   4.399905  -3.706443   0.000000
     27      1      1   0.000000  -3.909793  -1.739457   0.000000
     69      1      1   0.000000  -3.233944  -2.326035   0.000000
     14      1      1   0.000000  -2.220664  -2.673318   0.000000
      9      1      1   0.000000   0.823190  -2.845400   0.000000
     39      1      1   0.000000   2.170918  -2.486547   0.000000
      4      1      1   0.000000   4.614407  -2.486834   0.000000
     72      1      1   0.000000  -3.592756  -0.912150   0.000000
     25      1      1   0.000000  -2.857143  -1.417527   0.000000
     30      1      1   0.000000   0.020614  -1.696956   0.000000
     54      1      1   0.000000   0.456526  -0.745107   0.000000
     28      1      1   0.000000   1.233310  -1.590853   0.000000
     52      1      1   0.000000   2.317464  -1.370869   0.000000
     31      1      1   0.000000   3.377688  -2.074069   0.000000
     61      1      1   0.000000   3.030255  -0.996909   0.000000
      7      1      1   0.000000  -4.514470  -0.490335   0.000000
     36      1      1   0.000000   0.177825   0.356558   0.000000
     23      1      1   0.000000   1.432352   0.143393   0.000000
     24      1      1   0.000000   2.471147  -0.235803   0.000000
     29      1      1   0.000000   3.742718  -0.385660   0.000000
     11      1      1   0.000000  -3.266880   1.503558   0.000000
     51      1      1   0.000000  -2.076946   1.264101   0.000000
     15      1      1   0.000000  -0.795667   1.307980   0.000000
     57      1      1   0.000000   1.238678   1.035775   0.000000
      3      1      1   0.000000   2.301947   1.597617   0.000000
     26      1      1   0.000000   3.134645   0.610052   0.000000
      2      1      1   0.000000   4.384897   0.784406   0.000000
     32      1      1   0.000000  -4.159422   2.570353   0.000000
      8      1      1   0.000000  -1.736335   2.499580   0.000000
     56      1      1   0.000000   1.205554   1.855227   0.000000
     44      1      1   0.000000   1.658414   2.643697   0.000000
     46      1      1   0.000000   2.508627   3.104241   0.000000
     21      1      1   0.000000  -3.946113   3.799045   0.000000
      5      1      1   0.000000  -2.961072   2.951909   0.000000
     20      1      1   0.000000  -0.633090   3.550596   0.000000
     13      1      1   0.000000   4.565662   3.431791   0.000000
     60      1      1   0.000000  -4.466262   4.720679   0.000000
     59      1      1   0.000000  -2.624603   4.128361   0.000000
     22      1      1   0.000000  -1.663855   4.003840   0.000000
     70      1      1   0.000000  -2.191348   4.749364   0.000000
     16      1      1   0.000000  -0.708400  -4.668856   0.000000
      1      1      1   0.000000   0.637590   4.216262   0.000000
     53      1      1   0.000000   2.007547   3.905635   0.000000
     34      1      1   0.000000   3.227938   3.654225   0.000000

Bond Coeffs # ['bondID', 'bondCoeff', 'd']

      1   0.628184   1.261701
      2   0.628184   1.261701
      3   0.588401   1.303656
      4   0.771770   1.138299
      5   0.497554   1.417686
      6   0.608856   1.281571
      7   0.771770   1.138299
      8   0.497554   1.417686
      9   0.588401   1.303656
     10   0.614843   1.275317
     11   0.627538   1.262351
     12   1.255444   0.892486
     13   0.857217   1.080076
     14   0.788702   1.126014
     15   0.647972   1.242287
     16   1.060019   0.971277
     17   0.539698   1.361209
     18   0.711937   1.185166
     19   0.501730   1.411773
     20   0.711937   1.185166
     21   0.627042   1.262850
     22   0.627042   1.262850
     23   0.504511   1.407877
     24   0.973250   1.013649
     25   0.608420   1.282030
     26   1.543405   0.804934
     27   1.744120   0.757202
     28   0.774390   1.136371
     29   0.617560   1.272508
     30   0.456363   1.480283
     31   0.514100   1.394685
     32   0.667891   1.223622
     33   0.838065   1.092348
     34   0.838065   1.092348
     35   0.817138   1.106247
     36   0.609998   1.280371
     37   0.775741   1.135381
     38   0.586654   1.305596
     39   0.510289   1.399883
     40   0.587377   1.304792
     41   0.892885   1.058284
     42   1.209530   0.909268
     43   1.055405   0.973398
     44   0.475422   1.450308
     45   1.069562   0.966934
     46   0.734649   1.166703
     47   0.647487   1.242752
     48   0.516881   1.390928
     49   0.435071   1.516072
     50   0.435071   1.516072
     51   0.643010   1.247071
     52   0.825280   1.100777
     53   0.661606   1.229420
     54   1.273966   0.885974
     55   0.691464   1.202583
     56   1.002294   0.998855
     57   1.198962   0.913266
     58   1.028141   0.986220
     59   0.406387   1.568665
     60   0.662946   1.228177
     61   0.481371   1.441318
     62   0.678324   1.214175
     63   0.594751   1.296679
     64   1.486773   0.820121
     65   0.559156   1.337314
     66   0.788370   1.126250
     67   0.502862   1.410183
     68   1.121222   0.944396
     69   0.592436   1.299210
     70   0.502862   1.410183
     71   0.912379   1.046917
     72   2.184474   0.676592
     73   2.184474   0.676592
     74   1.016395   0.991902
     75   0.434855   1.516449
     76   2.112274   0.688058
     77   2.112274   0.688058
     78   0.836057   1.093659
     79   0.977250   1.011573
     80   0.588288   1.303782
     81   2.166647   0.679369
     82   0.509411   1.401090
     83   0.574024   1.319881
     84   0.519227   1.387783
     85   0.789757   1.125261
     86   0.506721   1.404803
     87   0.537952   1.363415
     88   0.865275   1.075035
     89   0.398598   1.583916
     90   0.881634   1.065015
     91   0.398598   1.583916
     92   0.758334   1.148338
     93   1.033734   0.983548
     94   0.871580   1.071140
     95   1.199248   0.913157
     96   0.750851   1.154046
     97   0.485970   1.434482
     98   1.219673   0.905479
     99   0.652121   1.238329
    100   1.535351   0.807042
    101   1.535351   0.807042
    102   0.678756   1.213789
    103   1.134780   0.938738
    104   0.577360   1.316063
    105   0.577360   1.316063
    106   0.674815   1.217328
    107   0.623252   1.266684
    108   1.065482   0.968784
    109   0.623252   1.266684
    110   0.961646   1.019747
    111   0.561341   1.334709
    112   0.817738   1.105841
    113   0.677227   1.215159
    114   0.543779   1.356091
    115   0.599280   1.291770
    116   0.640094   1.249908
    117   1.119427   0.945153
    118   0.549345   1.349203
    119   0.525615   1.379323
    120   0.762199   1.145423
    121   0.430703   1.523740
    122   0.451086   1.488917
    123   0.860188   1.078210
    124   0.433883   1.518146
    125   0.632260   1.257628
    126   1.248679   0.894900

Bonds # ['ID', 'type', 'atom1', 'atom2']

         1         1        18        60
         2         2        60        18
         3         3        35         1
         4         4         6        70
         5         5        22        16
         6         6        51         8
         7         7        70         6
         8         8        16        22
         9         9         1        35
        10        10        39        31
        11        11        26         2
        12        12        72        25
        13        13        74        16
        14        14        20        22
        15        15        38        34
        16        16        42        53
        17        17        36        15
        18        18         6        59
        19        19        18        34
        20        20        59         6
        21        21        21        13
        22        22        13        21
        23        23        14        25
        24        24        72         7
        25        25        51        15
        26        26        52        61
        27        27        59        70
        28        28        54        36
        29        29        36        23
        30        30        11         5
        31        31         9        39
        32        32         5        59
        33        33        77        18
        34        34        18        77
        35        35        28        52
        36        36        24        29
        37        37        64        10
        38        38         8         5
        39        39        33         9
        40        40        37        16
        41        41        21        60
        42        42        56        44
        43        43        74        33
        44        44        17        19
        45        45        44        46
        46        46        29        26
        47        47        45        18
        48        48        11        32
        49        49         2         7
        50        50         7         2
        51        51        32        21
        52        52        27        25
        53        53        37        14
        54        54        27        72
        55        55        57         3
        56        56        43        37
        57        57        22        70
        58        58        64         6
        59        59        19         4
        60        60         3        44
        61        61        35        17
        62        62        33        30
        63        63        39        28
        64        64        57        56
        65        65        19        31
        66        66         3        56
        67        67        27         4
        68        68        61        24
        69        69        21         5
        70        70         4        27
        71        71        30        54
        72        72        77        64
        73        73        64        77
        74        74        74        35
        75        75        18        13
        76        76        43        70
        77        77        70        43
        78        78        19        45
        79        79        10        69
        80        80         4        31
        81        81        77        45
        82        82         9        30
        83        83         9        28
        84        84        27         7
        85        85        39        52
        86        86        17         9
        87        87        35        16
        88        88        24        26
        89        89        16         1
        90        90        38        53
        91        91         1        16
        92        92        54        28
        93        93        69        25
        94        94        69        14
        95        95        23        57
        96        96        42         1
        97        97        20         1
        98        98        46        34
        99        99        45         4
       100       100        64        60
       101       101        60        64
       102       102        11        51
       103       103        61        29
       104       104        32        13
       105       105        13        32
       106       106        30        28
       107       107         6        60
       108       108        59        22
       109       109        60         6
       110       110        38        42
       111       111        29         2
       112       112        23        24
       113       113        43        16
       114       114        13        34
       115       115         3        26
       116       116        17        39
       117       117        46        53
       118       118        38        18
       119       119        35         9
       120       120        52        24
       121       121         8        20
       122       122         6        10
       123       123        37        33
       124       124        15         8
       125       125        32         5
       126       126        27        69
