LAMMPS data file via write_data, version 23 Jun 2022, timestep = 10000

80 atoms
4 atom types

-4.815762492144081 4.815762492144081 xlo xhi
-4.815762492144081 4.815762492144081 ylo yhi
-0.1 0.1 zlo zhi

Atoms # sphere

56 3 1 1 -4.203337148259053 -3.9667330403536116 0 1 0 0
41 3 1 1 -3.506325468604234 -4.593222645508623 0 0 1 0
19 1 1.6 0.2441406249999999 -2.3277350896645643 -4.366997717262154 0 0 0 0
5 1 1.6 0.2441406249999999 -0.8476336069574173 -3.9635344488987077 0 0 0 0
69 4 0.7 2.915451895043732 -0.09694195137949979 -4.52387078809299 0 0 0 0
26 2 1.3 0.4551661356395083 0.9814072264000648 -4.2604412312053945 0 0 0 0
1 1 1.6 0.2441406249999999 2.237850684418736 -4.400158270351778 0 0 0 0
64 4 0.7 2.915451895043732 3.2411586048622976 4.613596964333487 0 0 0 0
68 4 0.7 2.915451895043732 3.3065660390208365 -4.430177967526364 0 0 1 0
30 2 1.3 0.4551661356395083 4.267091834784145 4.743554511832189 0 0 0 0
31 2 1.3 0.4551661356395083 -4.364253066028281 -2.8256747752558637 0 1 0 0
32 2 1.3 0.4551661356395083 -3.2990306158946074 -3.435850148470424 0 0 0 0
22 2 1.3 0.4551661356395083 -1.8429437282926178 -3.0461098293816224 0 0 0 0
49 3 1 1 0.30203705160945393 -3.4816662440714077 0 0 0 0
78 4 0.7 2.915451895043732 0.5783802623819732 -2.554081182055597 0 0 1 0
74 4 0.7 2.915451895043732 1.7075777391669762 -3.4125936204158167 0 0 0 0
4 1 1.6 0.2441406249999999 2.875293756762648 -3.1707425942394982 0 0 0 0
6 1 1.6 0.2441406249999999 4.217670826176734 -3.6285060428549345 0 0 1 0
67 4 0.7 2.915451895043732 -3.770121963526951 -2.0818752385103365 0 1 0 0
79 4 0.7 2.915451895043732 -3.4238202383216647 -2.5254976473952904 0 0 0 0
76 4 0.7 2.915451895043732 -2.7885286354941954 -2.6335244386946344 0 0 0 0
75 4 0.7 2.915451895043732 -2.1580259037179244 -2.245009887729245 0 0 0 0
12 1 1.6 0.2441406249999999 -0.5141916362809358 -2.5678897269426 0 0 0 0
46 3 1 1 0.3464563545165369 -1.8219066468794014 0 0 0 0
16 1 1.6 0.2441406249999999 1.610673206356756 -2.3745565456649707 0 0 0 0
36 2 1.3 0.4551661356395083 2.843553919716155 -1.8178233744689543 0 -1 0 0
28 2 1.3 0.4551661356395083 4.080014238750575 -2.2566830151811543 0 -1 1 0
7 1 1.6 0.2441406249999999 -4.519474217093643 -1.3975652173471143 0 1 0 0
17 1 1.6 0.2441406249999999 -2.8796731201609953 -1.4710703743827644 0 0 0 0
34 2 1.3 0.4551661356395083 -1.5473830898594017 -1.5453878374968806 0 0 0 0
45 3 1 1 -2.0667350531368562 -0.6310082511735962 0 0 0 0
61 4 0.7 2.915451895043732 -0.6587116847948842 -1.3117058854400607 0 -1 1 0
35 2 1.3 0.4551661356395083 1.1570842031641977 -1.1493561723724133 0 0 0 0
52 3 1 1 3.7470865282365047 -1.3166848526496842 0 0 0 0
66 4 0.7 2.915451895043732 3.3478213764097227 -0.5890159700445148 0 -1 0 0
33 2 1.3 0.4551661356395083 -4.0228050256763455 -0.24726906021392914 0 0 0 0
53 3 1 1 -2.9301694017648288 -0.2756346436734889 0 0 0 0
51 3 1 1 -1.0986630286024917 -0.4556294461306365 0 0 0 0
11 1 1.6 0.2441406249999999 0.11900890184447466 -0.5617829355662254 0 0 0 0
20 1 1.6 0.2441406249999999 0.9943999277602718 0.487596039273857 0 0 0 0
13 1 1.6 0.2441406249999999 2.272919900265525 -0.5017960241212673 0 0 0 0
54 3 1 1 3.312564483728922 0.3858168306994312 0 0 0 0
9 1 1.6 0.2441406249999999 4.233799575784495 -0.10914279338858535 0 0 0 0
44 3 1 1 -4.603817434803701 0.6658550034330464 0 1 0 0
23 2 1.3 0.4551661356395083 -3.545716195087862 0.6761175466418416 0 0 0 0
10 1 1.6 0.2441406249999999 -2.17331253767252 0.6728923323915756 0 0 0 0
21 2 1.3 0.4551661356395083 -0.9255091862906388 0.577087209536578 0 1 0 0
29 2 1.3 0.4551661356395083 -0.10398201221259118 1.452899696067579 0 0 0 0
18 1 1.6 0.2441406249999999 2.438841812073111 1.000655221678679 0 0 0 0
27 2 1.3 0.4551661356395083 4.098435113037832 1.0753464538403703 0 0 0 0
3 1 1.6 0.2441406249999999 -4.4584778115462305 1.8564021492618679 0 0 0 0
37 2 1.3 0.4551661356395083 -3.0569446568052596 1.892163470321898 0 0 -1 0
50 3 1 1 -1.9939205303283578 2.008212949047441 0 1 0 0
48 3 1 1 -1.1542967521386815 1.7234450211000798 0 0 0 0
72 4 0.7 2.915451895043732 -0.16056430531684995 2.1806911829038444 0 0 0 0
25 2 1.3 0.4551661356395083 1.0147819072374924 1.8696601169050986 0 0 0 0
47 3 1 1 0.42132122863009425 2.8260268197049934 0 0 0 0
57 3 1 1 2.001732200874849 2.084032081582156 0 0 0 0
24 2 1.3 0.4551661356395083 3.30758031436849 2.0396198430459354 0 0 0 0
39 2 1.3 0.4551661356395083 -3.7290993080847263 2.9528307188516427 0 1 0 0
8 1 1.6 0.2441406249999999 -2.827988949626378 3.849232662970371 0 0 0 0
65 4 0.7 2.915451895043732 -2.499191377763557 2.8089058514285163 0 0 -1 0
58 3 1 1 -1.8047548145316883 3.3020743707143634 0 0 -1 0
77 4 0.7 2.915451895043732 -1.39082670117432 2.56110791524904 0 0 0 0
40 2 1.3 0.4551661356395083 -0.6061506189235208 3.0414749788289885 0 1 0 0
43 3 1 1 0.18149557744636535 3.762571851263141 0 0 -1 0
14 1 1.6 0.2441406249999999 1.5578258339864615 3.1425396704063706 0 0 0 0
80 4 0.7 2.915451895043732 2.374340323725436 3.6841662359194647 0 0 0 0
42 3 1 1 2.6384639835399186 2.803722922088765 0 0 0 0
55 3 1 1 3.1237658727203836 3.8302222207401915 0 0 -1 0
15 1 1.6 0.2441406249999999 4.127123486627438 2.9631845231281835 0 0 0 0
2 1 1.6 0.2441406249999999 -4.267996573690933 4.068371000543037 0 0 0 0
38 2 1.3 0.4551661356395083 -1.3861904273644488 4.3445117063549645 0 0 -1 0
59 3 1 1 -0.41118936395576355 4.47349891178099 0 0 0 0
63 4 0.7 2.915451895043732 0.2998571886295034 4.720125430544643 0 0 0 0
60 3 1 1 1.2297827288113652 4.326420015208129 0 0 0 0
71 4 0.7 2.915451895043732 2.050781584324219 4.22164330662255 0 -1 -1 0
73 4 0.7 2.915451895043732 2.66119231388437 4.27283889769266 0 0 -1 0
62 4 0.7 2.915451895043732 4.4241008007120435 3.858034639828915 0 0 0 0
70 4 0.7 2.915451895043732 3.846663385294459 3.979304245268972 0 0 0 0

Velocities

56 -0.08319938744559771 0.004628787243993247 0 0 0 0
41 0.12082600035498747 -0.05714526039345349 0 0 0 0
19 -0.02195592135029997 -0.03753001775428773 0 0 0 0
5 0.16385340521395428 -0.08383074091279161 0 0 0 0
69 -0.1630585766393357 0.03759738357944728 0 0 0 0
26 0.10001224001398511 0.010867689736676388 0 0 0 0
1 0.136689260012122 -0.18471670305543572 0 0 0 0
64 0.03864151744469867 0.027053870768831426 0 0 0 0
68 -0.1341684723134863 0.12091219646304552 0 0 0 0
30 0.02765594012913546 -0.11031640344736036 0 0 0 0
31 -0.10637740146007446 -0.08022205109234982 0 0 0 0
32 -0.002183464149837672 -0.11227071201243953 0 0 0 0
22 0.14015920496686596 0.24181652733589887 0 0 0 0
49 0.0920604797129231 0.14856147957628446 0 0 0 0
78 0.13079176457080433 0.1230530461179224 0 0 0 0
74 0.03153616384105528 0.077996136060422 0 0 0 0
4 -0.1114170634443258 0.04689952476229812 0 0 0 0
6 -0.0666618015033773 -0.1350992339816395 0 0 0 0
67 -0.04228884982431591 0.1638347056318844 0 0 0 0
79 0.13012784540957575 -0.08136053865418029 0 0 0 0
76 -0.1570829578235102 0.0959914099411389 0 0 0 0
75 0.08844767802665307 0.0797125575451658 0 0 0 0
12 -0.07327617584883458 -0.11743626281081991 0 0 0 0
46 0.06564549981609699 -0.28254612931392165 0 0 0 0
16 -0.005878574731818692 0.03023441455103755 0 0 0 0
36 -0.13976377392457945 0.2955993151771312 0 0 0 0
28 0.06871606156373232 -0.09072044227888594 0 0 0 0
7 -0.16278317854620997 0.03224496341995412 0 0 0 0
17 -0.060171730531860895 0.01014048685097813 0 0 0 0
34 -0.017690763393230412 0.14106246891466107 0 0 0 0
45 -0.007912250727740709 0.06026100234649041 0 0 0 0
61 -0.0325061504373275 -0.15325837969660977 0 0 0 0
35 0.07308716390576167 0.016625880662183675 0 0 0 0
52 0.04037649866554433 -0.03727025146177983 0 0 0 0
66 0.012216332955921004 -0.05997909500380576 0 0 0 0
33 -0.14481231090893043 0.1465898458508972 0 0 0 0
53 0.120973248952848 -0.14086684191837986 0 0 0 0
51 -0.00027943842748525446 0.13518381650588926 0 0 0 0
11 -0.19748972826204958 0.16942946813868787 0 0 0 0
20 -0.12829484586164774 0.00814074168698357 0 0 0 0
13 0.030206903781643556 -0.04804843680231046 0 0 0 0
54 0.16535527898944236 -0.0141904595626349 0 0 0 0
9 0.0426869898138937 -0.16301251837404623 0 0 0 0
44 0.1984576106764537 -0.030030052461214513 0 0 0 0
23 0.030141158816883357 -0.033319495816463485 0 0 0 0
10 -0.12112460853714495 0.014696793241180063 0 0 0 0
21 0.07546559012974895 -0.24341585754518927 0 0 0 0
29 0.06402928540698079 -0.08260952237406166 0 0 0 0
18 -0.005584628047979329 -0.02012676224933791 0 0 0 0
27 -0.13149970135506994 -0.01397776957223698 0 0 0 0
3 0.1569984510846064 -0.053916445888963764 0 0 0 0
37 -0.10999651641307855 0.06404244218938063 0 0 0 0
50 -0.2535412305706032 0.011197815187033073 0 0 0 0
48 -0.11446976454921255 -0.14537340134259724 0 0 0 0
72 -0.044888654534863216 -0.02035575513380464 0 0 0 0
25 -0.18710799717109827 0.15855903930249293 0 0 0 0
47 -0.1481491473883146 0.035480165082804646 0 0 0 0
57 -0.16812199378077317 0.20682953522609335 0 0 0 0
24 -0.01178714762321314 0.06697870854228963 0 0 0 0
39 0.03626297505677301 0.02152566525028123 0 0 0 0
8 0.039589673555932854 0.04672632260927367 0 0 0 0
65 0.09920395503175586 -0.04772187281014175 0 0 0 0
58 -0.1317663900387017 -0.038934303450182166 0 0 0 0
77 0.04221831308538018 -0.013119737345340707 0 0 0 0
40 0.011675675438103649 0.05503123197224753 0 0 0 0
43 0.14294909427061206 0.012058003281742991 0 0 0 0
14 -0.008268196369390362 -0.1394526144097149 0 0 0 0
80 0.12227477667484891 0.09186173687381437 0 0 0 0
42 -0.03171824591397651 0.12028798766750479 0 0 0 0
55 0.2635287188301003 0.047151558868897325 0 0 0 0
15 -0.050527663590307664 0.10120112584199101 0 0 0 0
2 -0.04619749932007821 -0.045702066340150345 0 0 0 0
38 0.11294247425269349 -0.24111617905627133 0 0 0 0
59 -0.042629086203023664 0.07582456885425545 0 0 0 0
63 -0.01672346198447415 -0.03154039780744838 0 0 0 0
60 -0.051599895613085735 0.05572925058691784 0 0 0 0
71 -0.0008241056130244477 -0.12076964565334315 0 0 0 0
73 0.18126945108905154 -0.10739376787475569 0 0 0 0
62 0.0112355752988043 0.03891158481099002 0 0 0 0
70 0.12747049533291385 -0.02983512859873799 0 0 0 0
