LAMMPS data file.

     61 atoms
    141 bonds
      0 angles
      0 dihedrals
      0 impropers
      1 atom types
    141 bond types
      0 angle types
      0 dihedral types
      0 improper types
  -4.815762   4.815762 xlo xhi
  -4.815762   4.815762 ylo yhi
  -0.100000   0.100000 zlo zhi

Masses # ['atom_id', 'mass']

1 10000.0

Atoms # ['atomID', 'moleculeID', 'atomType', 'charge', 'x', 'y', 'z']

     56      1      1   0.000000  -4.203337  -3.966733   0.000000
     41      1      1   0.000000  -3.506325  -4.593223   0.000000
     19      1      1   0.000000  -2.327735  -4.366998   0.000000
      5      1      1   0.000000  -0.847634  -3.963534   0.000000
     69      1      1   0.000000  -0.096942  -4.523871   0.000000
     26      1      1   0.000000   0.981407  -4.260441   0.000000
      1      1      1   0.000000   2.237851  -4.400158   0.000000
     30      1      1   0.000000   4.267092   4.743555   0.000000
     31      1      1   0.000000  -4.364253  -2.825675   0.000000
     32      1      1   0.000000  -3.299031  -3.435850   0.000000
     22      1      1   0.000000  -1.842944  -3.046110   0.000000
     49      1      1   0.000000   0.302037  -3.481666   0.000000
     78      1      1   0.000000   0.578380  -2.554081   0.000000
      4      1      1   0.000000   2.875294  -3.170743   0.000000
      6      1      1   0.000000   4.217671  -3.628506   0.000000
     67      1      1   0.000000  -3.770122  -2.081875   0.000000
     79      1      1   0.000000  -3.423820  -2.525498   0.000000
     75      1      1   0.000000  -2.158026  -2.245010   0.000000
     12      1      1   0.000000  -0.514192  -2.567890   0.000000
     46      1      1   0.000000   0.346456  -1.821907   0.000000
     16      1      1   0.000000   1.610673  -2.374557   0.000000
     36      1      1   0.000000   2.843554  -1.817823   0.000000
     28      1      1   0.000000   4.080014  -2.256683   0.000000
      7      1      1   0.000000  -4.519474  -1.397565   0.000000
     17      1      1   0.000000  -2.879673  -1.471070   0.000000
     34      1      1   0.000000  -1.547383  -1.545388   0.000000
     45      1      1   0.000000  -2.066735  -0.631008   0.000000
     35      1      1   0.000000   1.157084  -1.149356   0.000000
     52      1      1   0.000000   3.747087  -1.316685   0.000000
     66      1      1   0.000000   3.347821  -0.589016   0.000000
     33      1      1   0.000000  -4.022805  -0.247269   0.000000
     53      1      1   0.000000  -2.930169  -0.275635   0.000000
     11      1      1   0.000000   0.119009  -0.561783   0.000000
     20      1      1   0.000000   0.994400   0.487596   0.000000
     13      1      1   0.000000   2.272920  -0.501796   0.000000
     54      1      1   0.000000   3.312564   0.385817   0.000000
      9      1      1   0.000000   4.233800  -0.109143   0.000000
     44      1      1   0.000000  -4.603817   0.665855   0.000000
     23      1      1   0.000000  -3.545716   0.676118   0.000000
     18      1      1   0.000000   2.438842   1.000655   0.000000
     27      1      1   0.000000   4.098435   1.075346   0.000000
      3      1      1   0.000000  -4.458478   1.856402   0.000000
     25      1      1   0.000000   1.014782   1.869660   0.000000
     57      1      1   0.000000   2.001732   2.084032   0.000000
     24      1      1   0.000000   3.307580   2.039620   0.000000
     39      1      1   0.000000  -3.729099   2.952831   0.000000
      8      1      1   0.000000  -2.827989   3.849233   0.000000
     14      1      1   0.000000   1.557826   3.142540   0.000000
     80      1      1   0.000000   2.374340   3.684166   0.000000
     42      1      1   0.000000   2.638464   2.803723   0.000000
     55      1      1   0.000000   3.123766   3.830222   0.000000
     15      1      1   0.000000   4.127123   2.963185   0.000000
      2      1      1   0.000000  -4.267997   4.068371   0.000000
     38      1      1   0.000000  -1.386190   4.344512   0.000000
     59      1      1   0.000000  -0.411189   4.473499   0.000000
     63      1      1   0.000000   0.299857   4.720125   0.000000
     60      1      1   0.000000   1.229783   4.326420   0.000000
     71      1      1   0.000000   2.050782   4.221643   0.000000
     73      1      1   0.000000   2.661192   4.272839   0.000000
     62      1      1   0.000000   4.424101   3.858035   0.000000
     70      1      1   0.000000   3.846663   3.979304   0.000000

Bond Coeffs # ['bondID', 'bondCoeff', 'd']

      1   0.651534   1.238887
      2   0.642973   1.247106
      3   1.236404   0.899332
      4   1.835515   0.738110
      5   1.349459   0.860836
      6   1.041607   0.979824
      7   0.698511   1.196502
      8   1.159614   0.928631
      9   0.600809   1.290125
     10   0.618989   1.271037
     11   1.459817   0.827658
     12   0.485671   1.434924
     13   0.526081   1.378712
     14   0.948284   1.026906
     15   0.695156   1.199386
     16   0.424902   1.534107
     17   0.486015   1.434417
     18   2.665087   0.612554
     19   0.948284   1.026906
     20   0.655900   1.234756
     21   1.082975   0.960928
     22   1.103473   0.951961
     23   0.837060   1.093004
     24   0.732724   1.168234
     25   0.545210   1.354309
     26   1.715351   0.763525
     27   0.411293   1.559281
     28   0.411293   1.559281
     29   0.471333   1.456586
     30   0.566624   1.328472
     31   0.576652   1.316871
     32   0.566624   1.328472
     33   0.535474   1.366567
     34   0.552349   1.345530
     35   0.521432   1.384845
     36   0.731758   1.169005
     37   2.331983   0.654843
     38   0.437658   1.511585
     39   1.147040   0.933707
     40   0.925706   1.039354
     41   0.657501   1.233252
     42   0.657501   1.233252
     43   0.522161   1.383878
     44   0.431235   1.522801
     45   0.431235   1.522801
     46   0.859830   1.078434
     47   0.643526   1.246571
     48   0.853701   1.082299
     49   0.633012   1.256881
     50   0.633012   1.256881
     51   0.910752   1.047852
     52   0.910752   1.047852
     53   0.546464   1.352755
     54   1.026146   0.987178
     55   0.443791   1.501104
     56   0.425597   1.532854
     57   0.867293   1.073784
     58   0.546031   1.353291
     59   0.443791   1.501104
     60   0.867293   1.073784
     61   3.250678   0.554642
     62   3.250678   0.554642
     63   1.124920   0.942843
     64   2.540832   0.627353
     65   0.936759   1.033204
     66   0.585871   1.306468
     67   0.812406   1.109464
     68   2.872405   0.590034
     69   0.636999   1.252941
     70   0.759018   1.147820
     71   0.812406   1.109464
     72   1.033843   0.983496
     73   0.914362   1.045782
     74   0.901354   1.053300
     75   0.561634   1.334361
     76   1.996389   0.707746
     77   0.969715   1.015495
     78   0.909416   1.048621
     79   0.893051   1.058186
     80   1.451559   0.830009
     81   0.969715   1.015495
     82   1.765500   0.752603
     83   1.996389   0.707746
     84   0.603120   1.287651
     85   0.662609   1.228489
     86   0.603120   1.287651
     87   1.139582   0.936758
     88   1.005594   0.997215
     89   0.984993   1.007589
     90   0.778374   1.133459
     91   0.505110   1.407042
     92   0.980367   1.009963
     93   0.969396   1.015662
     94   1.079021   0.962687
     95   1.079021   0.962687
     96   0.501435   1.412189
     97   0.904309   1.051578
     98   1.695294   0.768029
     99   2.439716   0.640222
    100   0.703562   1.192199
    101   0.489802   1.428860
    102   0.489802   1.428860
    103   0.936300   1.033457
    104   0.609888   1.280486
    105   0.625715   1.264188
    106   0.523701   1.381841
    107   0.523701   1.381841
    108   0.572672   1.321439
    109   0.572672   1.321439
    110   0.545759   1.353629
    111   0.666126   1.225242
    112   0.447792   1.494382
    113   0.914876   1.045487
    114   0.484592   1.436520
    115   1.184393   0.918866
    116   0.497136   1.418282
    117   0.629448   1.260434
    118   0.577056   1.316410
    119   0.577056   1.316410
    120   0.971054   1.014795
    121   0.837588   1.092659
    122   0.899963   1.054114
    123   0.702818   1.192830
    124   0.694322   1.200105
    125   0.523419   1.382214
    126   3.157306   0.562784
    127   0.893109   1.058151
    128   0.857646   1.079806
    129   0.876104   1.068371
    130   1.125800   0.942474
    131   1.125800   0.942474
    132   1.314339   0.872261
    133   0.554575   1.342826
    134   0.910865   1.047787
    135   0.554575   1.342826
    136   0.618317   1.271729
    137   0.618317   1.271729
    138   0.663564   1.227605
    139   0.770888   1.138949
    140   1.138544   0.937184
    141   0.779681   1.132509

Bonds # ['ID', 'type', 'atom1', 'atom2']

         1         1        39         2
         2         2        27        24
         3         3        30        62
         4         4        55        70
         5         5        22        75
         6         6        14        80
         7         7        17        53
         8         8        75        34
         9         9        35        13
        10        10        39         8
        11        11        60        71
        12        12         5        12
        13        13         6        28
        14        14         1        71
        15        15        44         3
        16        16        19         5
        17        17        36        13
        18        18        71        73
        19        19        71         1
        20        20        24        15
        21        21        57        42
        22        22        31        67
        23        23        33        53
        24        24        18        57
        25        25        18        24
        26        26        80        55
        27        27         7         9
        28        28         9         7
        29        29         8         2
        30        30        27         3
        31        31         3        39
        32        32         3        27
        33        33        11        20
        34        34        19        32
        35        35         1         4
        36        36        17        45
        37        37        80        73
        38        38        13        18
        39        39        45        53
        40        40        33        23
        41        41        41         2
        42        42         2        41
        43        43        25        14
        44        44         3        15
        45        45        15         3
        46        46        66        13
        47        47         5        49
        48        48        33        44
        49        49        56         6
        50        50         6        56
        51        51         1        73
        52        52        73         1
        53        53        16        36
        54        54        31        79
        55        55        19         8
        56        56        20        18
        57        57        26        60
        58        58         4        36
        59        59         8        19
        60        60        60        26
        61        61        63        69
        62        62        69        63
        63        63        15        62
        64        64        80        71
        65        65        36        52
        66        66        16        35
        67        67         9        44
        68        68        62        70
        69        69         7        33
        70        70        57        14
        71        71        44         9
        72        72        38        59
        73        73        54         9
        74        74        46        35
        75        75        17        34
        76        76        69        59
        77        77        44        27
        78        78        56        32
        79        79        75        17
        80        80        52        66
        81        81        27        44
        82        82        59        63
        83        83        59        69
        84        84        30         2
        85        85        14        60
        86        86         2        30
        87        87         5        69
        88        88        28        52
        89        89        66         9
        90        90        53        23
        91        91        19        22
        92        92        25        57
        93        93        24        42
        94        94         2        62
        95        95        62         2
        96        96        22        12
        97        97        34        45
        98        98        78        46
        99        99        55        73
       100       100         9        27
       101       101         5        38
       102       102        38         5
       103       103        26        49
       104       104        46        11
       105       105        26         1
       106       106        33         9
       107       107         9        33
       108       108        31         6
       109       109         6        31
       110       110         5        22
       111       111        49        12
       112       112         4        16
       113       113        54        27
       114       114        31         7
       115       115        32        79
       116       116         4         6
       117       117         6        30
       118       118        19        38
       119       119        38        19
       120       120        67         7
       121       121        78        12
       122       122        15        70
       123       123        35        11
       124       124        41        19
       125       125        20        25
       126       126        67        79
       127       127        44        23
       128       128        67        17
       129       129        54        18
       130       130        26        63
       131       131        63        26
       132       132        30        70
       133       133        28         7
       134       134        78        16
       135       135         7        28
       136       136         5        59
       137       137        59         5
       138       138        31        32
       139       139        12        46
       140       140        56        41
       141       141        14        42
