ITEM: TIMESTEP
0
ITEM: NUMBER OF ATOMS
80
ITEM: BOX BOUNDS pp pp pp
-1.0000000000000000e+01 1.0000000000000000e+01
-1.0000000000000000e+01 1.0000000000000000e+01
-1.0000000000000001e-01 1.0000000000000001e-01
ITEM: ATOMS id type xs ys zs
26 2 0.364851 0.0430082 0.5
37 2 0.614208 8.22358e-07 0.5
1 1 0.66526 0.0266279 0.5
55 3 0.714465 0.00700287 0.5
21 2 0.858275 0.034999 0.5
58 3 0.0976425 0.0776618 0.5
65 4 0.52901 0.0630942 0.5
5 1 0.631409 0.0982392 0.5
16 1 0.649793 0.0689049 0.5
66 4 0.0807466 0.108474 0.5
36 2 0.52717 0.138542 0.5
12 1 0.618916 0.12857 0.5
67 4 0.859529 0.108297 0.5
76 4 0.517413 0.164609 0.5
73 4 0.817231 0.20737 0.5
4 1 0.970262 0.200389 0.5
45 3 0.539194 0.225978 0.5
56 3 0.787721 0.218544 0.5
13 1 0.950629 0.227012 0.5
19 1 0.328035 0.282733 0.5
69 4 0.329701 0.276576 0.5
43 3 0.511649 0.283972 0.5
34 2 0.611252 0.312832 0.5
35 2 0.609583 0.268908 0.5
20 1 0.756189 0.266672 0.5
31 2 0.933021 0.290343 0.5
49 3 0.85282 0.339222 0.5
71 4 0.113073 0.409714 0.5
38 2 0.295734 0.398999 0.5
53 3 0.287405 0.410798 0.5
79 4 0.278244 0.448099 0.5
17 1 0.343158 0.455564 0.5
25 2 0.55081 0.456841 0.5
74 4 0.580619 0.456312 0.5
27 2 0.665643 0.459316 0.5
50 3 0.961649 0.435888 0.5
42 3 0.407479 0.494544 0.5
46 3 0.61168 0.501243 0.5
70 4 0.720146 0.494844 0.5
44 3 0.770304 0.493214 0.5
33 2 0.144498 0.574927 0.5
32 2 0.23547 0.536226 0.5
11 1 0.534869 0.551401 0.5
52 3 0.55135 0.544852 0.5
9 1 0.593654 0.547427 0.5
62 4 0.600913 0.551813 0.5
24 2 0.859198 0.533848 0.5
22 2 0.37387 0.630538 0.5
75 4 0.585387 0.596494 0.5
78 4 0.691116 0.580764 0.5
18 1 0.823086 0.599279 0.5
8 1 0.451696 0.651225 0.5
14 1 0.471985 0.650517 0.5
57 3 0.53309 0.642187 0.5
15 1 0.620672 0.639406 0.5
30 2 0.66863 0.658885 0.5
7 1 0.812796 0.666181 0.5
39 2 0.866941 0.681923 0.5
40 2 0.87509 0.637453 0.5
61 4 0.121598 0.70234 0.5
6 1 0.781086 0.704819 0.5
3 1 0.389587 0.788595 0.5
64 4 0.54815 0.757527 0.5
59 3 0.618954 0.75691 0.5
10 1 0.284334 0.795455 0.5
28 2 0.0108215 0.877465 0.5
2 1 0.106376 0.867784 0.5
63 4 0.268631 0.874544 0.5
72 4 0.270295 0.842983 0.5
23 2 0.386675 0.848868 0.5
51 3 0.630267 0.893699 0.5
68 4 0.775623 0.893055 0.5
54 3 0.948644 0.855843 0.5
29 2 0.41881 0.934777 0.5
41 3 0.0881759 0.972795 0.5
77 4 0.130004 0.979161 0.5
47 3 0.519545 0.993978 0.5
48 3 0.474383 0.959911 0.5
60 3 0.723922 0.952854 0.5
80 4 0.857616 0.948305 0.5
ITEM: TIMESTEP
10
ITEM: NUMBER OF ATOMS
80
ITEM: BOX BOUNDS pp pp pp
-9.2711173736608892e+00 9.2711173736608892e+00
-9.2711173736608892e+00 9.2711173736608892e+00
-1.0000000000000001e-01 1.0000000000000001e-01
ITEM: ATOMS id type xs ys zs
26 2 0.364851 0.0430082 0.5
37 2 0.614157 0.999974 0.5
1 1 0.665316 0.0265429 0.5
55 3 0.714508 0.00698552 0.5
21 2 0.858275 0.034999 0.5
58 3 0.0976563 0.0776366 0.5
65 4 0.52901 0.0630942 0.5
5 1 0.631384 0.0982263 0.5
16 1 0.649861 0.0688404 0.5
66 4 0.0807328 0.108499 0.5
36 2 0.527199 0.138465 0.5
12 1 0.618827 0.128776 0.5
67 4 0.859529 0.108297 0.5
76 4 0.517384 0.164687 0.5
73 4 0.81727 0.207356 0.5
4 1 0.970366 0.200249 0.5
45 3 0.539194 0.225978 0.5
56 3 0.787698 0.218533 0.5
13 1 0.950534 0.227125 0.5
19 1 0.327986 0.282915 0.5
69 4 0.32975 0.276395 0.5
43 3 0.511649 0.283972 0.5
34 2 0.611255 0.312911 0.5
35 2 0.60958 0.268829 0.5
20 1 0.756172 0.266697 0.5
31 2 0.933014 0.29037 0.5
49 3 0.85282 0.339222 0.5
71 4 0.113073 0.409714 0.5
38 2 0.295825 0.398868 0.5
53 3 0.287317 0.410911 0.5
79 4 0.27824 0.448115 0.5
17 1 0.343159 0.455565 0.5
25 2 0.550734 0.456842 0.5
74 4 0.580694 0.456311 0.5
27 2 0.665643 0.459316 0.5
50 3 0.961649 0.435888 0.5
42 3 0.407479 0.494544 0.5
46 3 0.611701 0.501188 0.5
70 4 0.720146 0.494844 0.5
44 3 0.770304 0.493214 0.5
33 2 0.144498 0.574927 0.5
32 2 0.23547 0.536226 0.5
11 1 0.534627 0.55147 0.5
52 3 0.551427 0.544782 0.5
9 1 0.593649 0.547358 0.5
62 4 0.601068 0.551907 0.5
24 2 0.859198 0.533847 0.5
22 2 0.37387 0.630538 0.5
75 4 0.585375 0.596517 0.5
78 4 0.691116 0.580764 0.5
18 1 0.823066 0.599213 0.5
8 1 0.451476 0.651233 0.5
14 1 0.47219 0.650511 0.5
57 3 0.533105 0.642185 0.5
15 1 0.620606 0.639384 0.5
30 2 0.668703 0.658915 0.5
7 1 0.812785 0.666132 0.5
39 2 0.866987 0.682014 0.5
40 2 0.875146 0.637391 0.5
61 4 0.121598 0.70234 0.5
6 1 0.781014 0.704906 0.5
3 1 0.389589 0.788547 0.5
64 4 0.54815 0.757527 0.5
59 3 0.618954 0.75691 0.5
10 1 0.284343 0.795424 0.5
28 2 0.0108215 0.877465 0.5
2 1 0.106376 0.867784 0.5
63 4 0.26863 0.874558 0.5
72 4 0.270286 0.842999 0.5
23 2 0.386673 0.848915 0.5
51 3 0.630267 0.893699 0.5
68 4 0.775623 0.893055 0.5
54 3 0.948644 0.855843 0.5
29 2 0.41881 0.934777 0.5
41 3 0.0881732 0.972795 0.5
77 4 0.130007 0.979161 0.5
47 3 0.519545 0.993978 0.5
48 3 0.474383 0.959911 0.5
60 3 0.723922 0.952854 0.5
80 4 0.857616 0.948305 0.5
ITEM: TIMESTEP
20
ITEM: NUMBER OF ATOMS
80
ITEM: BOX BOUNDS pp pp pp
-8.3582974875922371e+00 8.3582974875922371e+00
-8.3582974875922371e+00 8.3582974875922371e+00
-1.0000000000000001e-01 1.0000000000000001e-01
ITEM: ATOMS id type xs ys zs
26 2 0.364851 0.0430082 0.5
37 2 0.613947 0.999856 0.5
1 1 0.665534 0.0262126 0.5
55 3 0.714684 0.00691971 0.5
21 2 0.858275 0.034999 0.5
58 3 0.0977128 0.0775336 0.5
65 4 0.52901 0.0630942 0.5
5 1 0.631273 0.0982156 0.5
16 1 0.650119 0.0686067 0.5
66 4 0.0806763 0.108602 0.5
36 2 0.527304 0.138182 0.5
12 1 0.618494 0.129539 0.5
67 4 0.859529 0.108297 0.5
76 4 0.517278 0.164969 0.5
73 4 0.817421 0.207299 0.5
4 1 0.970735 0.199749 0.5
45 3 0.539194 0.225978 0.5
56 3 0.787621 0.218478 0.5
13 1 0.950199 0.227498 0.5
19 1 0.327814 0.28355 0.5
69 4 0.329921 0.27576 0.5
43 3 0.511649 0.283972 0.5
34 2 0.611266 0.313209 0.5
35 2 0.609569 0.268531 0.5
20 1 0.756099 0.266809 0.5
31 2 0.932979 0.290497 0.5
49 3 0.85282 0.339222 0.5
71 4 0.113073 0.409714 0.5
38 2 0.29613 0.39837 0.5
53 3 0.287008 0.411288 0.5
79 4 0.278215 0.448206 0.5
17 1 0.343187 0.455596 0.5
25 2 0.550456 0.456847 0.5
74 4 0.580972 0.456306 0.5
27 2 0.665643 0.459316 0.5
50 3 0.961649 0.435888 0.5
42 3 0.407479 0.494544 0.5
46 3 0.611785 0.500972 0.5
70 4 0.720146 0.494844 0.5
44 3 0.770304 0.493214 0.5
33 2 0.144498 0.574927 0.5
32 2 0.23547 0.536226 0.5
11 1 0.533748 0.55172 0.5
52 3 0.55168 0.544535 0.5
9 1 0.593672 0.547111 0.5
62 4 0.601608 0.552237 0.5
24 2 0.859212 0.533821 0.5
22 2 0.373865 0.630536 0.5
75 4 0.585314 0.596598 0.5
78 4 0.691116 0.580764 0.5
18 1 0.822966 0.598952 0.5
8 1 0.450705 0.651261 0.5
14 1 0.472881 0.650495 0.5
57 3 0.53319 0.642173 0.5
15 1 0.620368 0.639319 0.5
30 2 0.66898 0.659028 0.5
7 1 0.812698 0.665981 0.5
39 2 0.86717 0.682361 0.5
40 2 0.8754 0.637158 0.5
61 4 0.121598 0.70234 0.5
6 1 0.780749 0.705229 0.5
3 1 0.389599 0.788352 0.5
64 4 0.54815 0.757527 0.5
59 3 0.618954 0.75691 0.5
10 1 0.284381 0.795295 0.5
28 2 0.0108223 0.877465 0.5
2 1 0.106376 0.867784 0.5
63 4 0.268626 0.874623 0.5
72 4 0.270252 0.843064 0.5
23 2 0.386663 0.849111 0.5
51 3 0.630267 0.893699 0.5
68 4 0.775623 0.893055 0.5
54 3 0.948643 0.855843 0.5
29 2 0.418798 0.934772 0.5
41 3 0.0881429 0.97279 0.5
77 4 0.130037 0.979166 0.5
47 3 0.519546 0.993979 0.5
48 3 0.474394 0.959915 0.5
60 3 0.723923 0.952849 0.5
80 4 0.857616 0.948305 0.5
ITEM: TIMESTEP
30
ITEM: NUMBER OF ATOMS
80
ITEM: BOX BOUNDS pp pp pp
-7.6844967454960535e+00 7.6844967454960535e+00
-7.6844967454960535e+00 7.6844967454960535e+00
-1.0000000000000001e-01 1.0000000000000001e-01
ITEM: ATOMS id type xs ys zs
26 2 0.364851 0.0430082 0.5
37 2 0.613473 0.999559 0.5
1 1 0.665993 0.025519 0.5
55 3 0.715063 0.00680865 0.5
21 2 0.858275 0.034999 0.5
58 3 0.0978359 0.0773092 0.5
65 4 0.52901 0.0630942 0.5
5 1 0.631021 0.0982634 0.5
16 1 0.650668 0.0681795 0.5
66 4 0.0805533 0.108826 0.5
36 2 0.527512 0.137624 0.5
12 1 0.617827 0.131062 0.5
67 4 0.859529 0.108297 0.5
76 4 0.51707 0.165527 0.5
73 4 0.817735 0.20718 0.5
4 1 0.971451 0.19878 0.5
45 3 0.539194 0.225978 0.5
56 3 0.787476 0.218337 0.5
13 1 0.949568 0.228161 0.5
19 1 0.327489 0.284751 0.5
69 4 0.330246 0.274559 0.5
43 3 0.511649 0.283972 0.5
34 2 0.611289 0.313814 0.5
35 2 0.609546 0.267926 0.5
20 1 0.755929 0.267069 0.5
31 2 0.932894 0.290803 0.5
49 3 0.85282 0.339222 0.5
71 4 0.113073 0.409714 0.5
38 2 0.296683 0.397327 0.5
53 3 0.286396 0.411944 0.5
79 4 0.278121 0.448453 0.5
17 1 0.343323 0.455725 0.5
25 2 0.549904 0.456857 0.5
74 4 0.581524 0.456296 0.5
27 2 0.665651 0.45931 0.5
50 3 0.961649 0.435888 0.5
42 3 0.407497 0.494556 0.5
46 3 0.611956 0.500523 0.5
70 4 0.720138 0.494844 0.5
44 3 0.770312 0.493214 0.5
33 2 0.144498 0.574927 0.5
32 2 0.23547 0.536226 0.5
11 1 0.532006 0.552197 0.5
52 3 0.552118 0.544058 0.5
9 1 0.593802 0.546619 0.5
62 4 0.602645 0.552878 0.5
24 2 0.859273 0.533712 0.5
22 2 0.373807 0.630521 0.5
75 4 0.585159 0.59676 0.5
78 4 0.691116 0.580764 0.5
18 1 0.822702 0.598416 0.5
8 1 0.44928 0.651328 0.5
14 1 0.474137 0.650475 0.5
57 3 0.533417 0.642142 0.5
15 1 0.619911 0.639232 0.5
30 2 0.669551 0.659259 0.5
7 1 0.812443 0.665734 0.5
39 2 0.867563 0.683075 0.5
40 2 0.875999 0.636686 0.5
61 4 0.121598 0.70234 0.5
6 1 0.780217 0.705879 0.5
3 1 0.389619 0.787925 0.5
64 4 0.54815 0.757527 0.5
59 3 0.618954 0.75691 0.5
10 1 0.284467 0.795005 0.5
28 2 0.0108445 0.877473 0.5
2 1 0.106376 0.867784 0.5
63 4 0.268618 0.874777 0.5
72 4 0.270174 0.8432 0.5
23 2 0.386643 0.849538 0.5
51 3 0.630267 0.893699 0.5
68 4 0.775623 0.893055 0.5
54 3 0.948621 0.855835 0.5
29 2 0.418731 0.934741 0.5
41 3 0.0880446 0.972775 0.5
77 4 0.130135 0.979181 0.5
47 3 0.519567 0.993995 0.5
48 3 0.47444 0.95993 0.5
60 3 0.72393 0.952808 0.5
80 4 0.857616 0.948305 0.5
ITEM: TIMESTEP
40
ITEM: NUMBER OF ATOMS
80
ITEM: BOX BOUNDS pp pp pp
-7.2044350558318859e+00 7.2044350558318859e+00
-7.2044350558318859e+00 7.2044350558318859e+00
-1.0000000000000001e-01 1.0000000000000001e-01
ITEM: ATOMS id type xs ys zs
26 2 0.364851 0.0430082 0.5
37 2 0.612629 0.998992 0.5
1 1 0.666763 0.0243519 0.5
55 3 0.715711 0.00666994 0.5
21 2 0.858275 0.034999 0.5
58 3 0.0980471 0.076924 0.5
65 4 0.52901 0.0630942 0.5
5 1 0.630567 0.0984231 0.5
16 1 0.651604 0.0675593 0.5
66 4 0.080342 0.109211 0.5
36 2 0.527816 0.136735 0.5
12 1 0.616779 0.133515 0.5
67 4 0.859529 0.108297 0.5
76 4 0.516736 0.166419 0.5
73 4 0.818259 0.206984 0.5
4 1 0.972579 0.197256 0.5
45 3 0.539197 0.225969 0.5
56 3 0.787256 0.218068 0.5
13 1 0.948593 0.229119 0.5
19 1 0.326988 0.286604 0.5
69 4 0.330747 0.272706 0.5
43 3 0.511645 0.28398 0.5
34 2 0.611327 0.3148 0.5
35 2 0.609509 0.26694 0.5
20 1 0.755626 0.267534 0.5
31 2 0.932741 0.291369 0.5
49 3 0.85282 0.339222 0.5
71 4 0.113073 0.409714 0.5
38 2 0.297505 0.395588 0.5
53 3 0.285397 0.412863 0.5
79 4 0.277889 0.448933 0.5
17 1 0.34365 0.456015 0.5
25 2 0.549014 0.45687 0.5
74 4 0.582405 0.456269 0.5
27 2 0.665697 0.459268 0.5
50 3 0.961649 0.435888 0.5
42 3 0.407578 0.494604 0.5
46 3 0.612219 0.49979 0.5
70 4 0.720096 0.494849 0.5
44 3 0.770358 0.493212 0.5
33 2 0.144498 0.574927 0.5
32 2 0.23547 0.536226 0.5
11 1 0.529188 0.552929 0.5
52 3 0.552714 0.543306 0.5
9 1 0.594111 0.545779 0.5
62 4 0.604288 0.553915 0.5
24 2 0.859416 0.533457 0.5
22 2 0.373628 0.630472 0.5
75 4 0.584886 0.597033 0.5
78 4 0.691116 0.580764 0.5
18 1 0.82219 0.597536 0.5
8 1 0.44715 0.651458 0.5
14 1 0.475999 0.650457 0.5
57 3 0.533861 0.64208 0.5
15 1 0.619214 0.639186 0.5
30 2 0.670492 0.65964 0.5
7 1 0.81193 0.665401 0.5
39 2 0.868253 0.68425 0.5
40 2 0.877078 0.635916 0.5
61 4 0.121598 0.70234 0.5
6 1 0.779328 0.706944 0.5
3 1 0.38966 0.787188 0.5
64 4 0.54815 0.757527 0.5
59 3 0.618954 0.75691 0.5
10 1 0.284613 0.794495 0.5
28 2 0.0109281 0.877503 0.5
2 1 0.10638 0.867783 0.5
63 4 0.268604 0.875058 0.5
72 4 0.270037 0.843429 0.5
23 2 0.386607 0.850274 0.5
51 3 0.630267 0.893699 0.5
68 4 0.775623 0.893055 0.5
54 3 0.948534 0.855805 0.5
29 2 0.418563 0.934665 0.5
41 3 0.0878384 0.972744 0.5
77 4 0.130342 0.979212 0.5
47 3 0.51964 0.99405 0.5
48 3 0.474535 0.95995 0.5
60 3 0.72395 0.952686 0.5
80 4 0.857616 0.948305 0.5
ITEM: TIMESTEP
50
ITEM: NUMBER OF ATOMS
80
ITEM: BOX BOUNDS pp pp pp
-6.8841131219991407e+00 6.8841131219991407e+00
-6.8841131219991407e+00 6.8841131219991407e+00
-1.0000000000000001e-01 1.0000000000000001e-01
ITEM: ATOMS id type xs ys zs
26 2 0.364851 0.0430082 0.5
37 2 0.611345 0.998098 0.5
1 1 0.667872 0.0226425 0.5
55 3 0.716688 0.006517 0.5
21 2 0.858275 0.034999 0.5
58 3 0.0983593 0.0763547 0.5
65 4 0.52901 0.0630942 0.5
5 1 0.629866 0.098735 0.5
16 1 0.65298 0.0667864 0.5
66 4 0.0800298 0.109781 0.5
36 2 0.528168 0.135491 0.5
12 1 0.615378 0.136971 0.5
67 4 0.859529 0.108297 0.5
76 4 0.516269 0.167667 0.5
73 4 0.81902 0.206703 0.5
4 1 0.974146 0.195146 0.5
45 3 0.539216 0.225927 0.5
56 3 0.786954 0.21764 0.5
13 1 0.947261 0.230345 0.5
19 1 0.326306 0.289125 0.5
69 4 0.33143 0.270184 0.5
43 3 0.511625 0.284022 0.5
34 2 0.61138 0.316205 0.5
35 2 0.609457 0.265537 0.5
20 1 0.755167 0.268244 0.5
31 2 0.932505 0.292253 0.5
49 3 0.85282 0.339222 0.5
71 4 0.113073 0.409714 0.5
38 2 0.298588 0.393079 0.5
53 3 0.283972 0.414005 0.5
79 4 0.277472 0.449698 0.5
17 1 0.344225 0.456506 0.5
25 2 0.547742 0.45685 0.5
74 4 0.58362 0.456198 0.5
27 2 0.665795 0.45915 0.5
50 3 0.961649 0.435888 0.5
42 3 0.407763 0.494716 0.5
46 3 0.612596 0.498775 0.5
70 4 0.720014 0.494873 0.5
44 3 0.770471 0.493208 0.5
33 2 0.144498 0.574927 0.5
32 2 0.23547 0.536226 0.5
11 1 0.525205 0.553917 0.5
52 3 0.553416 0.542261 0.5
9 1 0.594662 0.544515 0.5
62 4 0.606572 0.555402 0.5
24 2 0.859672 0.533008 0.5
22 2 0.373261 0.630369 0.5
75 4 0.584476 0.597439 0.5
78 4 0.691116 0.580764 0.5
18 1 0.821364 0.596264 0.5
8 1 0.444329 0.651673 0.5
14 1 0.478438 0.650458 0.5
57 3 0.534568 0.641988 0.5
15 1 0.618308 0.639253 0.5
30 2 0.671845 0.660186 0.5
7 1 0.8111 0.664992 0.5
39 2 0.86932 0.685944 0.5
40 2 0.878723 0.634818 0.5
61 4 0.121598 0.70234 0.5
6 1 0.778018 0.708476 0.5
3 1 0.389758 0.786096 0.5
64 4 0.54815 0.757527 0.5
59 3 0.618954 0.75691 0.5
10 1 0.284795 0.793731 0.5
28 2 0.0110816 0.877573 0.5
2 1 0.106416 0.86778 0.5
63 4 0.268583 0.875493 0.5
72 4 0.269831 0.843762 0.5
23 2 0.386552 0.851357 0.5
51 3 0.630267 0.893699 0.5
68 4 0.775623 0.893055 0.5
54 3 0.948344 0.855739 0.5
29 2 0.418258 0.934532 0.5
41 3 0.087495 0.972691 0.5
77 4 0.130685 0.979264 0.5
47 3 0.519795 0.994167 0.5
48 3 0.474688 0.959972 0.5
60 3 0.72399 0.952442 0.5
80 4 0.857616 0.948305 0.5
ITEM: TIMESTEP
60
ITEM: NUMBER OF ATOMS
80
ITEM: BOX BOUNDS pp pp pp
-6.6684821000750887e+00 6.6684821000750887e+00
-6.6684821000750887e+00 6.6684821000750887e+00
-1.0000000000000001e-01 1.0000000000000001e-01
ITEM: ATOMS id type xs ys zs
26 2 0.364851 0.0430082 0.5
37 2 0.609578 0.996838 0.5
1 1 0.669301 0.0203734 0.5
55 3 0.71805 0.00635076 0.5
21 2 0.858275 0.0349979 0.5
58 3 0.0987771 0.0755928 0.5
65 4 0.52901 0.0630886 0.5
5 1 0.628883 0.0992299 0.5
16 1 0.654809 0.0659334 0.5
66 4 0.0796121 0.110543 0.5
36 2 0.528514 0.133895 0.5
12 1 0.613681 0.141437 0.5
67 4 0.859529 0.108298 0.5
76 4 0.51567 0.16927 0.5
73 4 0.820029 0.206335 0.5
4 1 0.976149 0.192461 0.5
45 3 0.539244 0.225819 0.5
56 3 0.786573 0.217033 0.5
13 1 0.945581 0.231786 0.5
19 1 0.325452 0.292282 0.5
69 4 0.332285 0.267022 0.5
43 3 0.511578 0.284121 0.5
34 2 0.61145 0.318032 0.5
35 2 0.609406 0.26372 0.5
20 1 0.754539 0.269218 0.5
31 2 0.932182 0.293496 0.5
49 3 0.85282 0.339222 0.5
71 4 0.113073 0.409714 0.5
38 2 0.29991 0.389799 0.5
53 3 0.282108 0.415313 0.5
79 4 0.276843 0.450771 0.5
17 1 0.34507 0.457215 0.5
25 2 0.54606 0.456735 0.5
74 4 0.585154 0.456056 0.5
27 2 0.665953 0.458919 0.5
50 3 0.961649 0.435888 0.5
42 3 0.408087 0.494911 0.5
46 3 0.613106 0.497501 0.5
70 4 0.719891 0.494931 0.5
44 3 0.770673 0.493202 0.5
33 2 0.144498 0.574927 0.5
32 2 0.23547 0.536226 0.5
11 1 0.5201 0.555101 0.5
52 3 0.554168 0.540927 0.5
9 1 0.595515 0.542804 0.5
62 4 0.609462 0.557354 0.5
24 2 0.860063 0.532333 0.5
22 2 0.372653 0.630195 0.5
75 4 0.583905 0.59798 0.5
78 4 0.691116 0.580764 0.5
18 1 0.820181 0.594588 0.5
8 1 0.440885 0.651992 0.5
14 1 0.481364 0.650535 0.5
57 3 0.535552 0.641888 0.5
15 1 0.617252 0.639493 0.5
30 2 0.673623 0.6609 0.5
7 1 0.809928 0.664516 0.5
39 2 0.870795 0.688178 0.5
40 2 0.880969 0.633388 0.5
61 4 0.121598 0.70234 0.5
6 1 0.776261 0.710499 0.5
3 1 0.389955 0.784626 0.5
64 4 0.54815 0.757527 0.5
59 3 0.618954 0.75691 0.5
10 1 0.284978 0.792696 0.5
28 2 0.0112954 0.877695 0.5
2 1 0.106521 0.867769 0.5
63 4 0.268554 0.8761 0.5
72 4 0.26955 0.844198 0.5
23 2 0.386465 0.852776 0.5
51 3 0.630267 0.893699 0.5
68 4 0.775623 0.893055 0.5
54 3 0.948025 0.855628 0.5
29 2 0.417802 0.934361 0.5
41 3 0.0869977 0.972616 0.5
77 4 0.131182 0.97934 0.5
47 3 0.520053 0.994362 0.5
48 3 0.474902 0.95999 0.5
60 3 0.724071 0.952027 0.5
80 4 0.857616 0.948305 0.5
ITEM: TIMESTEP
70
ITEM: NUMBER OF ATOMS
80
ITEM: BOX BOUNDS pp pp pp
-6.5378762958200323e+00 6.5378762958200323e+00
-6.5378762958200323e+00 6.5378762958200323e+00
-1.0000000000000001e-01 1.0000000000000001e-01
ITEM: ATOMS id type xs ys zs
26 2 0.364851 0.0430082 0.5
37 2 0.607321 0.995214 0.5
1 1 0.670991 0.0175641 0.5
55 3 0.719838 0.00617626 0.5
21 2 0.858275 0.0349855 0.5
58 3 0.0992975 0.0746437 0.5
65 4 0.52901 0.0630538 0.5
5 1 0.627614 0.0999053 0.5
16 1 0.657077 0.0650813 0.5
66 4 0.0790916 0.111492 0.5
36 2 0.528789 0.131987 0.5
12 1 0.611762 0.146861 0.5
67 4 0.859529 0.10831 0.5
76 4 0.514942 0.171188 0.5
73 4 0.821283 0.205886 0.5
4 1 0.978561 0.189245 0.5
45 3 0.539273 0.225635 0.5
56 3 0.786112 0.216238 0.5
13 1 0.943577 0.233381 0.5
19 1 0.324456 0.295961 0.5
69 4 0.333296 0.263284 0.5
43 3 0.511498 0.28429 0.5
34 2 0.611534 0.320258 0.5
35 2 0.609381 0.261526 0.5
20 1 0.753746 0.270462 0.5
31 2 0.931775 0.295118 0.5
49 3 0.85282 0.339222 0.5
71 4 0.113073 0.409714 0.5
38 2 0.301428 0.385858 0.5
53 3 0.279826 0.416731 0.5
79 4 0.276004 0.452146 0.5
17 1 0.346173 0.458131 0.5
25 2 0.543968 0.456476 0.5
74 4 0.586966 0.455822 0.5
27 2 0.66618 0.45855 0.5
50 3 0.961649 0.435888 0.5
42 3 0.408572 0.495203 0.5
46 3 0.613761 0.496 0.5
70 4 0.719729 0.495035 0.5
44 3 0.770977 0.493192 0.5
33 2 0.144498 0.574927 0.5
32 2 0.23547 0.536226 0.5
11 1 0.513996 0.556397 0.5
52 3 0.554912 0.539348 0.5
9 1 0.596705 0.540671 0.5
62 4 0.612881 0.559731 0.5
24 2 0.860606 0.531418 0.5
22 2 0.371765 0.629931 0.5
75 4 0.583154 0.598638 0.5
78 4 0.691116 0.580764 0.5
18 1 0.81863 0.592535 0.5
8 1 0.436932 0.652429 0.5
14 1 0.484665 0.650753 0.5
57 3 0.536799 0.6418 0.5
15 1 0.616111 0.639969 0.5
30 2 0.675814 0.661772 0.5
7 1 0.80842 0.663977 0.5
39 2 0.872665 0.690923 0.5
40 2 0.883804 0.631645 0.5
61 4 0.121598 0.70234 0.5
6 1 0.774071 0.713005 0.5
3 1 0.390279 0.782788 0.5
64 4 0.54815 0.757527 0.5
59 3 0.618954 0.75691 0.5
10 1 0.285137 0.791389 0.5
28 2 0.0115575 0.877877 0.5
2 1 0.106722 0.867748 0.5
63 4 0.268518 0.876892 0.5
72 4 0.269194 0.844731 0.5
23 2 0.386334 0.854487 0.5
51 3 0.630267 0.893699 0.5
68 4 0.775623 0.893055 0.5
54 3 0.947562 0.855467 0.5
29 2 0.417196 0.934179 0.5
41 3 0.0863421 0.972516 0.5
77 4 0.131838 0.97944 0.5
47 3 0.520426 0.994645 0.5
48 3 0.475177 0.96 0.5
60 3 0.724214 0.951395 0.5
80 4 0.857616 0.948305 0.5
ITEM: TIMESTEP
80
ITEM: NUMBER OF ATOMS
80
ITEM: BOX BOUNDS pp pp pp
-6.4825938621404822e+00 6.4825938621404822e+00
-6.4825938621404822e+00 6.4825938621404822e+00
-1.0000000000000001e-01 1.0000000000000001e-01
ITEM: ATOMS id type xs ys zs
26 2 0.364851 0.0430082 0.5
37 2 0.604618 0.993273 0.5
1 1 0.672855 0.0142642 0.5
55 3 0.722066 0.00600503 0.5
21 2 0.858275 0.0349514 0.5
58 3 0.0999096 0.0735276 0.5
65 4 0.52901 0.0629661 0.5
5 1 0.626083 0.100721 0.5
16 1 0.659743 0.0643128 0.5
66 4 0.0784796 0.112608 0.5
36 2 0.528926 0.129831 0.5
12 1 0.609709 0.153124 0.5
67 4 0.85953 0.108344 0.5
76 4 0.514098 0.173356 0.5
73 4 0.822761 0.205369 0.5
4 1 0.981327 0.185576 0.5
45 3 0.539295 0.225377 0.5
56 3 0.785579 0.21526 0.5
13 1 0.941293 0.235054 0.5
19 1 0.323365 0.299987 0.5
69 4 0.334435 0.259076 0.5
43 3 0.511381 0.284537 0.5
34 2 0.611631 0.322831 0.5
35 2 0.609402 0.259018 0.5
20 1 0.752801 0.271956 0.5
31 2 0.931293 0.297114 0.5
49 3 0.85282 0.339222 0.5
71 4 0.113073 0.409714 0.5
38 2 0.303077 0.381451 0.5
53 3 0.277174 0.418196 0.5
79 4 0.274986 0.453788 0.5
17 1 0.347488 0.459219 0.5
25 2 0.541505 0.456047 0.5
74 4 0.588997 0.455463 0.5
27 2 0.666494 0.458012 0.5
50 3 0.961649 0.435888 0.5
42 3 0.40923 0.495598 0.5
46 3 0.614558 0.494315 0.5
70 4 0.719535 0.49519 0.5
44 3 0.771383 0.493178 0.5
33 2 0.144494 0.574929 0.5
32 2 0.235473 0.536224 0.5
11 1 0.507079 0.557715 0.5
52 3 0.555594 0.537599 0.5
9 1 0.598223 0.538209 0.5
62 4 0.616722 0.562448 0.5
24 2 0.86131 0.530266 0.5
22 2 0.370577 0.629566 0.5
75 4 0.582215 0.599356 0.5
78 4 0.691116 0.580764 0.5
18 1 0.816731 0.590162 0.5
8 1 0.43262 0.652994 0.5
14 1 0.488214 0.651169 0.5
57 3 0.538274 0.641739 0.5
15 1 0.61495 0.64073 0.5
30 2 0.678371 0.662779 0.5
7 1 0.806622 0.663381 0.5
39 2 0.874868 0.69411 0.5
40 2 0.887161 0.629631 0.5
61 4 0.121598 0.70234 0.5
6 1 0.771508 0.715955 0.5
3 1 0.390743 0.780616 0.5
64 4 0.54815 0.757527 0.5
59 3 0.618954 0.75691 0.5
10 1 0.285249 0.789833 0.5
28 2 0.0118546 0.878121 0.5
2 1 0.107033 0.867716 0.5
63 4 0.268476 0.877859 0.5
72 4 0.268766 0.845347 0.5
23 2 0.386149 0.856429 0.5
51 3 0.630267 0.893699 0.5
68 4 0.775623 0.893055 0.5
54 3 0.946954 0.855255 0.5
29 2 0.416452 0.934012 0.5
41 3 0.0855376 0.972393 0.5
77 4 0.132642 0.979562 0.5
47 3 0.520908 0.995018 0.5
48 3 0.475507 0.959997 0.5
60 3 0.724437 0.950519 0.5
80 4 0.857616 0.948305 0.5
ITEM: TIMESTEP
90
ITEM: NUMBER OF ATOMS
80
ITEM: BOX BOUNDS pp pp pp
-6.4928977353729493e+00 6.4928977353729493e+00
-6.4928977353729493e+00 6.4928977353729493e+00
-1.0000000000000001e-01 1.0000000000000001e-01
ITEM: ATOMS id type xs ys zs
26 2 0.364851 0.0430082 0.5
37 2 0.601571 0.991104 0.5
1 1 0.674783 0.0105506 0.5
55 3 0.724717 0.00585378 0.5
21 2 0.858274 0.0348919 0.5
58 3 0.100595 0.0722777 0.5
65 4 0.529011 0.0628075 0.5
5 1 0.624327 0.101611 0.5
16 1 0.662736 0.0637028 0.5
66 4 0.0777942 0.113858 0.5
36 2 0.528883 0.127495 0.5
12 1 0.607616 0.160015 0.5
67 4 0.859531 0.108404 0.5
76 4 0.513156 0.175694 0.5
73 4 0.82443 0.204801 0.5
4 1 0.98437 0.181563 0.5
45 3 0.539303 0.225065 0.5
56 3 0.784982 0.214117 0.5
13 1 0.938789 0.236726 0.5
19 1 0.322229 0.304161 0.5
69 4 0.335664 0.254532 0.5
43 3 0.511229 0.284857 0.5
34 2 0.611738 0.32567 0.5
35 2 0.609481 0.256317 0.5
20 1 0.75173 0.273668 0.5
31 2 0.930755 0.299454 0.5
49 3 0.852819 0.339222 0.5
71 4 0.113073 0.409714 0.5
38 2 0.30479 0.376817 0.5
53 3 0.274234 0.419646 0.5
79 4 0.273838 0.455643 0.5
17 1 0.348938 0.46042 0.5
25 2 0.538742 0.455463 0.5
74 4 0.591168 0.454954 0.5
27 2 0.666913 0.457289 0.5
50 3 0.961649 0.435888 0.5
42 3 0.410063 0.496095 0.5
46 3 0.615477 0.492487 0.5
70 4 0.719315 0.495399 0.5
44 3 0.771886 0.493161 0.5
33 2 0.144482 0.574934 0.5
32 2 0.235485 0.536219 0.5
11 1 0.499607 0.558962 0.5
52 3 0.55617 0.535761 0.5
9 1 0.600023 0.535556 0.5
62 4 0.620852 0.565415 0.5
24 2 0.86217 0.528902 0.5
22 2 0.369089 0.629087 0.5
75 4 0.581095 0.600061 0.5
78 4 0.691116 0.580764 0.5
18 1 0.814529 0.587537 0.5
8 1 0.428095 0.653701 0.5
14 1 0.491882 0.651824 0.5
57 3 0.539932 0.641706 0.5
15 1 0.613825 0.641788 0.5
30 2 0.681208 0.663878 0.5
7 1 0.804609 0.662735 0.5
39 2 0.877315 0.697648 0.5
40 2 0.890926 0.62741 0.5
61 4 0.121598 0.70234 0.5
6 1 0.768685 0.719293 0.5
3 1 0.391344 0.778174 0.5
64 4 0.54815 0.757527 0.5
59 3 0.618954 0.75691 0.5
10 1 0.285303 0.788075 0.5
28 2 0.0121727 0.878424 0.5
2 1 0.107455 0.867671 0.5
63 4 0.268433 0.878981 0.5
72 4 0.268276 0.846021 0.5
23 2 0.385906 0.858521 0.5
51 3 0.630267 0.893699 0.5
68 4 0.775623 0.893055 0.5
54 3 0.946214 0.854996 0.5
29 2 0.415594 0.933885 0.5
41 3 0.0846064 0.972252 0.5
77 4 0.133574 0.979704 0.5
47 3 0.521467 0.995477 0.5
48 3 0.475885 0.959977 0.5
60 3 0.724746 0.949391 0.5
80 4 0.857616 0.948305 0.5
ITEM: TIMESTEP
100
ITEM: NUMBER OF ATOMS
80
ITEM: BOX BOUNDS pp pp pp
-6.5515541717535104e+00 6.5515541717535104e+00
-6.5515541717535104e+00 6.5515541717535104e+00
-1.0000000000000001e-01 1.0000000000000001e-01
ITEM: ATOMS id type xs ys zs
26 2 0.364851 0.0430082 0.5
37 2 0.598305 0.988804 0.5
1 1 0.676663 0.00651454 0.5
55 3 0.727754 0.00574109 0.5
21 2 0.858272 0.0348097 0.5
58 3 0.101332 0.0709342 0.5
65 4 0.529011 0.062567 0.5
5 1 0.622394 0.102505 0.5
16 1 0.665965 0.0633102 0.5
66 4 0.0770574 0.115201 0.5
36 2 0.528647 0.125053 0.5
12 1 0.60558 0.167247 0.5
67 4 0.859533 0.108486 0.5
76 4 0.512139 0.178118 0.5
73 4 0.826244 0.2042 0.5
4 1 0.987603 0.177324 0.5
45 3 0.539272 0.224741 0.5
56 3 0.784332 0.212837 0.5
13 1 0.93613 0.238323 0.5
19 1 0.321098 0.308289 0.5
69 4 0.336945 0.249795 0.5
43 3 0.511047 0.285242 0.5
34 2 0.61185 0.328687 0.5
35 2 0.609628 0.253574 0.5
20 1 0.750565 0.27555 0.5
31 2 0.930187 0.302093 0.5
49 3 0.852812 0.339226 0.5
71 4 0.113073 0.409714 0.5
38 2 0.306514 0.372176 0.5
53 3 0.271096 0.42103 0.5
79 4 0.27261 0.457672 0.5
17 1 0.350434 0.461664 0.5
25 2 0.535771 0.45477 0.5
74 4 0.593392 0.45428 0.5
27 2 0.667454 0.45638 0.5
50 3 0.961649 0.435888 0.5
42 3 0.411058 0.496688 0.5
46 3 0.61648 0.490546 0.5
70 4 0.719077 0.495658 0.5
44 3 0.772471 0.49314 0.5
33 2 0.144463 0.574942 0.5
32 2 0.235504 0.536211 0.5
11 1 0.491846 0.560059 0.5
52 3 0.556591 0.533901 0.5
9 1 0.602028 0.532863 0.5
62 4 0.625154 0.568554 0.5
24 2 0.863176 0.527362 0.5
22 2 0.367317 0.628488 0.5
75 4 0.579826 0.600679 0.5
78 4 0.691116 0.580764 0.5
18 1 0.812084 0.584731 0.5
8 1 0.423497 0.654562 0.5
14 1 0.49555 0.652734 0.5
57 3 0.541724 0.641683 0.5
15 1 0.612791 0.643126 0.5
30 2 0.684232 0.665023 0.5
7 1 0.802476 0.662048 0.5
39 2 0.879896 0.701426 0.5
40 2 0.894955 0.625055 0.5
61 4 0.121598 0.70234 0.5
6 1 0.765724 0.722949 0.5
3 1 0.392065 0.775537 0.5
64 4 0.54815 0.757527 0.5
59 3 0.618954 0.75691 0.5
10 1 0.285297 0.786163 0.5
28 2 0.0124999 0.878778 0.5
2 1 0.107979 0.867615 0.5
63 4 0.268391 0.880234 0.5
72 4 0.267737 0.846729 0.5
23 2 0.385604 0.86068 0.5
51 3 0.630267 0.893699 0.5
68 4 0.775623 0.893055 0.5
54 3 0.945363 0.854698 0.5
29 2 0.41465 0.933819 0.5
41 3 0.0835785 0.972095 0.5
77 4 0.134602 0.97986 0.5
47 3 0.522066 0.996015 0.5
48 3 0.476297 0.959939 0.5
60 3 0.725142 0.948025 0.5
80 4 0.857616 0.948305 0.5
ITEM: TIMESTEP
110
ITEM: NUMBER OF ATOMS
80
ITEM: BOX BOUNDS pp pp pp
-6.6302072731372430e+00 6.6302072731372430e+00
-6.6302072731372430e+00 6.6302072731372430e+00
-1.0000000000000001e-01 1.0000000000000001e-01
ITEM: ATOMS id type xs ys zs
26 2 0.364851 0.0430082 0.5
37 2 0.594939 0.986452 0.5
1 1 0.678396 0.00223961 0.5
55 3 0.731129 0.00568308 0.5
21 2 0.858271 0.0347116 0.5
58 3 0.102099 0.0695343 0.5
65 4 0.529013 0.0622379 0.5
5 1 0.620331 0.103353 0.5
16 1 0.669345 0.063168 0.5
66 4 0.0762898 0.116601 0.5
36 2 0.528227 0.122572 0.5
12 1 0.60367 0.17456 0.5
67 4 0.859534 0.108584 0.5
76 4 0.511064 0.180561 0.5
73 4 0.828167 0.203581 0.5
4 1 0.990951 0.172957 0.5
45 3 0.539174 0.22445 0.5
56 3 0.783639 0.211447 0.5
13 1 0.933374 0.239791 0.5
19 1 0.320012 0.312206 0.5
69 4 0.338247 0.244982 0.5
43 3 0.510842 0.285676 0.5
34 2 0.611965 0.331802 0.5
35 2 0.609848 0.250922 0.5
20 1 0.749335 0.277558 0.5
31 2 0.929614 0.304983 0.5
49 3 0.852793 0.339235 0.5
71 4 0.113073 0.409714 0.5
38 2 0.308208 0.367718 0.5
53 3 0.267849 0.422312 0.5
79 4 0.271349 0.459845 0.5
17 1 0.351886 0.462884 0.5
25 2 0.532689 0.45401 0.5
74 4 0.595594 0.453435 0.5
27 2 0.66813 0.455292 0.5
50 3 0.961649 0.435888 0.5
42 3 0.412203 0.497366 0.5
46 3 0.617527 0.488513 0.5
70 4 0.718829 0.495962 0.5
44 3 0.773119 0.493114 0.5
33 2 0.144442 0.574951 0.5
32 2 0.235525 0.536202 0.5
11 1 0.484015 0.560973 0.5
52 3 0.556821 0.532063 0.5
9 1 0.604149 0.53027 0.5
62 4 0.629544 0.571802 0.5
24 2 0.864312 0.525684 0.5
22 2 0.365285 0.627763 0.5
75 4 0.578449 0.601164 0.5
78 4 0.691116 0.580764 0.5
18 1 0.809466 0.581806 0.5
8 1 0.418938 0.655582 0.5
14 1 0.499113 0.653898 0.5
57 3 0.543599 0.641639 0.5
15 1 0.611903 0.644704 0.5
30 2 0.687364 0.666171 0.5
7 1 0.800317 0.661334 0.5
39 2 0.882538 0.705337 0.5
40 2 0.899106 0.622637 0.5
61 4 0.121598 0.70234 0.5
6 1 0.762707 0.726863 0.5
3 1 0.392884 0.772776 0.5
64 4 0.54815 0.757527 0.5
59 3 0.618954 0.75691 0.5
10 1 0.285239 0.784141 0.5
28 2 0.0128271 0.879174 0.5
2 1 0.10859 0.867548 0.5
63 4 0.268352 0.881594 0.5
72 4 0.267161 0.847448 0.5
23 2 0.385244 0.862834 0.5
51 3 0.630267 0.893699 0.5
68 4 0.775623 0.893055 0.5
54 3 0.944425 0.854369 0.5
29 2 0.413648 0.933829 0.5
41 3 0.082484 0.971929 0.5
77 4 0.135696 0.980027 0.5
47 3 0.522673 0.996624 0.5
48 3 0.476735 0.959881 0.5
60 3 0.725625 0.946442 0.5
80 4 0.857616 0.948305 0.5
ITEM: TIMESTEP
120
ITEM: NUMBER OF ATOMS
80
ITEM: BOX BOUNDS pp pp pp
-6.6968607845206440e+00 6.6968607845206440e+00
-6.6968607845206440e+00 6.6968607845206440e+00
-1.0000000000000001e-01 1.0000000000000001e-01
ITEM: ATOMS id type xs ys zs
26 2 0.364851 0.0430082 0.5
37 2 0.591567 0.984094 0.5
1 1 0.67991 0.997781 0.5
55 3 0.734812 0.00569048 0.5
21 2 0.858269 0.0346052 0.5
58 3 0.102884 0.0681041 0.5
65 4 0.529015 0.0618137 0.5
5 1 0.618175 0.104118 0.5
16 1 0.672836 0.0632561 0.5
66 4 0.0755056 0.118031 0.5
36 2 0.527644 0.120107 0.5
12 1 0.6019 0.1818 0.5
67 4 0.859536 0.10869 0.5
76 4 0.50994 0.182976 0.5
73 4 0.830171 0.202955 0.5
4 1 0.994367 0.168523 0.5
45 3 0.538985 0.224226 0.5
56 3 0.78291 0.209969 0.5
13 1 0.930553 0.241093 0.5
19 1 0.318993 0.315797 0.5
69 4 0.33955 0.240167 0.5
43 3 0.510619 0.28615 0.5
34 2 0.61208 0.334962 0.5
35 2 0.61015 0.248462 0.5
20 1 0.748059 0.279663 0.5
31 2 0.929054 0.308099 0.5
49 3 0.852759 0.339251 0.5
71 4 0.113073 0.409714 0.5
38 2 0.309853 0.363579 0.5
53 3 0.264554 0.423476 0.5
79 4 0.270093 0.462145 0.5
17 1 0.35322 0.464024 0.5
25 2 0.52956 0.453211 0.5
74 4 0.597722 0.452413 0.5
27 2 0.66895 0.454032 0.5
50 3 0.961649 0.435888 0.5
42 3 0.413479 0.498115 0.5
46 3 0.6186 0.486402 0.5
70 4 0.718576 0.496308 0.5
44 3 0.773814 0.493071 0.5
33 2 0.144422 0.57496 0.5
32 2 0.235545 0.536194 0.5
11 1 0.476237 0.561717 0.5