ITEM: TIMESTEP
3750
ITEM: NUMBER OF ATOMS
67
ITEM: BOX BOUNDS pp pp pp
-4.8228296525296486e+00 4.8228296525296486e+00
-4.8227078333763487e+00 4.8227078333763487e+00
-1.0000000000000001e-01 1.0000000000000001e-01
ITEM: ATOMS id type xs ys zs
37 1 0.0264122 0.0569499 0.501011
77 1 0.232115 0.0992905 0.50062
14 1 0.341196 0.0567924 0.499697
43 1 0.46015 0.0283807 0.499304
39 1 0.554574 0.0762912 0.499896
9 1 0.693366 0.0847822 0.501039
75 1 0.951735 0.00618455 0.499261
44 1 0.913256 0.078506 0.500571
79 1 0.0536115 0.1554 0.499921
11 1 0.170616 0.188892 0.499532
20 1 0.315334 0.194071 0.49996
28 1 0.456819 0.144686 0.500259
55 1 0.561722 0.191746 0.500668
36 1 0.67055 0.215846 0.500376
19 1 0.807548 0.19676 0.500295
31 1 0.960297 0.179044 0.498952
59 1 0.0588623 0.235181 0.499505
10 1 0.473883 0.268789 0.500025
38 1 0.592582 0.306465 0.499953
80 1 0.742127 0.280782 0.49836
17 1 0.8427 0.349295 0.500189
24 1 0.97135 0.310202 0.500514
2 1 0.233387 0.335568 0.499733
16 1 0.445453 0.414838 0.499957
7 1 0.599875 0.450713 0.499358
56 1 0.698212 0.338213 0.499799
50 1 0.729651 0.41666 0.499617
18 1 0.942433 0.45796 0.50026
33 1 0.0783961 0.510674 0.499804
8 1 0.224219 0.50051 0.500218
48 1 0.325548 0.430608 0.500417
1 1 0.367317 0.542624 0.498779
54 1 0.81497 0.468817 0.500515
70 1 0.903429 0.569377 0.500204
72 1 0.0813724 0.674342 0.50058
32 1 0.274827 0.63622 0.500467
4 1 0.513341 0.574236 0.499885
22 1 0.659864 0.577762 0.50019
27 1 0.807272 0.586147 0.500232
3 1 0.997154 0.620106 0.498929
5 1 0.0281929 0.766482 0.500968
30 1 0.162125 0.70271 0.499647
13 1 0.590255 0.708509 0.501537
51 1 0.699242 0.734506 0.500793
66 1 0.718099 0.658134 0.499497
40 1 0.805687 0.705357 0.500538
60 1 0.905729 0.708621 0.501294
53 1 0.0721806 0.881389 0.499797
61 1 0.118327 0.807225 0.50001
71 1 0.144015 0.85885 0.500356
35 1 0.333678 0.835275 0.499397
15 1 0.470126 0.809454 0.500515
21 1 0.637103 0.839966 0.500121
12 1 0.776239 0.832245 0.500467
73 1 0.881493 0.789679 0.499164
25 1 0.942807 0.865619 0.50065
46 1 0.00151208 0.947913 0.50006
23 1 0.180479 0.937223 0.499423
74 1 0.229852 0.0272052 0.50067
45 1 0.295506 0.940267 0.50051
34 1 0.415126 0.941085 0.499357
6 1 0.56053 0.950061 0.500009
69 1 0.820513 0.941031 0.500353
26 1 0.692851 0.952429 0.500215
68 1 0.860451 0.896224 0.499712
49 1 0.802369 0.010131 0.499272
47 1 0.892884 0.975603 0.500169
ITEM: TIMESTEP
4000
ITEM: NUMBER OF ATOMS
67
ITEM: BOX BOUNDS pp pp pp
-4.8216238365930817e+00 4.8216238365930817e+00
-4.8242538966636790e+00 4.8242538966636790e+00
-1.0000000000000001e-01 1.0000000000000001e-01
ITEM: ATOMS id type xs ys zs
37 1 0.0276419 0.0566418 0.500647
77 1 0.232382 0.100436 0.501219
14 1 0.341188 0.0565163 0.501247
43 1 0.460039 0.0284431 0.499655
39 1 0.55465 0.0762423 0.498203
9 1 0.693829 0.0850334 0.502487
75 1 0.952177 0.00649453 0.499353
44 1 0.914837 0.0795076 0.500005
79 1 0.0519088 0.155653 0.499308
11 1 0.170164 0.189182 0.49875
20 1 0.315103 0.193827 0.499772
28 1 0.456327 0.144857 0.50093
55 1 0.56157 0.191202 0.500842
36 1 0.670528 0.215389 0.499313
19 1 0.808055 0.197004 0.50077
31 1 0.958832 0.18034 0.499414
59 1 0.0581959 0.235328 0.500951
10 1 0.474183 0.269686 0.49951
38 1 0.592639 0.306434 0.499612
80 1 0.741733 0.28005 0.497651
17 1 0.84177 0.349558 0.499503
24 1 0.971436 0.31127 0.500453
2 1 0.234993 0.335956 0.501027
16 1 0.44493 0.415023 0.500302
7 1 0.60023 0.450792 0.500313
56 1 0.699002 0.338344 0.499471
50 1 0.729358 0.41742 0.499027
18 1 0.941745 0.457684 0.503825
33 1 0.077547 0.511181 0.500683
8 1 0.223799 0.501074 0.500869
48 1 0.325322 0.430596 0.498656
1 1 0.367381 0.543363 0.499303
54 1 0.814717 0.46934 0.501321
70 1 0.90388 0.568726 0.500465
72 1 0.0820436 0.674876 0.500126
32 1 0.275888 0.637017 0.501386
4 1 0.513764 0.574037 0.501718
22 1 0.660864 0.576867 0.499384
27 1 0.808229 0.586744 0.498753
3 1 0.997108 0.620825 0.497938
5 1 0.0289694 0.766676 0.500964
30 1 0.162902 0.702914 0.500736
13 1 0.590141 0.708118 0.501806
51 1 0.69939 0.734782 0.502189
66 1 0.717573 0.658458 0.497003
40 1 0.805324 0.705686 0.49941
60 1 0.905666 0.709058 0.501624
53 1 0.0719643 0.881899 0.500063
61 1 0.118481 0.807948 0.500459
71 1 0.144229 0.859688 0.498461
35 1 0.334707 0.834979 0.500052
15 1 0.470815 0.810159 0.499177
21 1 0.637301 0.840242 0.500034
12 1 0.776393 0.832609 0.501723
73 1 0.882087 0.790523 0.497202
25 1 0.943662 0.865868 0.502827
46 1 0.00171741 0.948472 0.500786
23 1 0.180283 0.93762 0.499051
74 1 0.229768 0.02852 0.501052
45 1 0.29546 0.939461 0.501581
34 1 0.415324 0.941199 0.498802
6 1 0.560524 0.949918 0.499347
69 1 0.821031 0.940989 0.49997
26 1 0.692727 0.95234 0.500997
68 1 0.861381 0.896055 0.49895
49 1 0.801991 0.00988151 0.501289
47 1 0.893088 0.976171 0.501496
ITEM: TIMESTEP
4250
ITEM: NUMBER OF ATOMS
67
ITEM: BOX BOUNDS pp pp pp
-4.8204180206565148e+00 4.8204180206565148e+00
-4.8247814709631864e+00 4.8247814709631864e+00
-1.0000000000000001e-01 1.0000000000000001e-01
ITEM: ATOMS id type xs ys zs
37 1 0.0277532 0.056303 0.501886
77 1 0.233455 0.101734 0.499483
14 1 0.34164 0.0563201 0.501174
43 1 0.460233 0.0288483 0.499109
39 1 0.55515 0.0772397 0.497982
9 1 0.693396 0.0843213 0.503074
75 1 0.95277 0.00579671 0.499435
44 1 0.915023 0.0786755 0.499921
79 1 0.0528313 0.155332 0.499067
11 1 0.170198 0.189317 0.499444
20 1 0.315413 0.193935 0.501255
28 1 0.45627 0.145448 0.500576
55 1 0.560759 0.191427 0.500402
36 1 0.670074 0.215405 0.49955
19 1 0.806556 0.197469 0.49915
31 1 0.959727 0.179875 0.500587
59 1 0.0583628 0.2351 0.50202
10 1 0.473439 0.26911 0.499815
38 1 0.593021 0.306374 0.498623
80 1 0.741241 0.280998 0.498305
17 1 0.842587 0.349718 0.499155
24 1 0.971807 0.311253 0.500814
2 1 0.233602 0.335854 0.50026
16 1 0.445448 0.414833 0.500486
7 1 0.600605 0.45098 0.498209
56 1 0.698128 0.339371 0.50196
50 1 0.730542 0.417816 0.4988
18 1 0.942499 0.457765 0.503254
33 1 0.0782806 0.511089 0.499368
8 1 0.224143 0.501533 0.501603
48 1 0.325194 0.430519 0.497852
1 1 0.36747 0.542882 0.499252
54 1 0.815629 0.469502 0.501798
70 1 0.90466 0.569349 0.500022
72 1 0.0828917 0.674443 0.501274
32 1 0.276152 0.63737 0.501642
4 1 0.51397 0.573215 0.504202
22 1 0.660434 0.577785 0.499085
27 1 0.808845 0.586072 0.499813
3 1 0.998184 0.620743 0.495418
5 1 0.0290804 0.766642 0.500449
30 1 0.163227 0.703124 0.502054
13 1 0.58975 0.707838 0.499541
51 1 0.699057 0.734471 0.501049
66 1 0.718078 0.658669 0.497033
40 1 0.805841 0.705472 0.498459
60 1 0.905737 0.707647 0.500512
53 1 0.072742 0.881139 0.499863
61 1 0.118535 0.807775 0.502362
71 1 0.145322 0.859585 0.49974
35 1 0.334958 0.835165 0.499243
15 1 0.470719 0.809409 0.498902
21 1 0.637608 0.840061 0.500379
12 1 0.777173 0.832059 0.502803
73 1 0.883 0.789709 0.497349
25 1 0.943447 0.866094 0.503967
46 1 0.00265792 0.947844 0.50194
23 1 0.180479 0.938282 0.497615
74 1 0.228927 0.0298005 0.501007
45 1 0.296068 0.939414 0.502552
34 1 0.416403 0.941197 0.498355
6 1 0.561593 0.951252 0.499646
69 1 0.821347 0.941764 0.501907
26 1 0.694101 0.952053 0.503288
68 1 0.860845 0.896737 0.496641
49 1 0.803134 0.0108471 0.499342
47 1 0.893387 0.976327 0.501935
ITEM: TIMESTEP
4500
ITEM: NUMBER OF ATOMS
67
ITEM: BOX BOUNDS pp pp pp
-4.8192122047199488e+00 4.8192122047199488e+00
-4.8220215413226191e+00 4.8220215413226191e+00
-1.0000000000000001e-01 1.0000000000000001e-01
ITEM: ATOMS id type xs ys zs
37 1 0.0280526 0.0566166 0.502187
77 1 0.232512 0.100587 0.499114
14 1 0.34144 0.0565987 0.49945
43 1 0.460352 0.0286961 0.499247
39 1 0.554647 0.0768058 0.49868
9 1 0.693355 0.0843067 0.50343
75 1 0.953297 0.00606545 0.499099
44 1 0.914951 0.0785778 0.496717
79 1 0.0514992 0.155547 0.498906
11 1 0.170459 0.189364 0.499503
20 1 0.314956 0.194306 0.500519
28 1 0.456123 0.144742 0.501298
55 1 0.560681 0.191905 0.500014
36 1 0.670182 0.215245 0.499969
19 1 0.807875 0.196986 0.499004
31 1 0.958078 0.180455 0.500355
59 1 0.057631 0.234778 0.50385
10 1 0.472712 0.2693 0.50092
38 1 0.592738 0.306293 0.49929
80 1 0.74136 0.2802 0.49875
17 1 0.843216 0.3499 0.499298
24 1 0.971841 0.311352 0.502444
2 1 0.233087 0.335868 0.501403
16 1 0.4456 0.415039 0.500758
7 1 0.60006 0.451039 0.498643
56 1 0.698182 0.33841 0.502496
50 1 0.73017 0.417412 0.500054
18 1 0.942771 0.457542 0.502659
33 1 0.0787583 0.509831 0.498851
8 1 0.224449 0.501734 0.501981
48 1 0.325841 0.43059 0.496242
1 1 0.367639 0.54305 0.499522
54 1 0.815394 0.468996 0.501956
70 1 0.905225 0.569333 0.498325
72 1 0.083425 0.674164 0.502015
32 1 0.276517 0.637524 0.502695
4 1 0.514363 0.573747 0.502334
22 1 0.661704 0.576732 0.498426
27 1 0.808898 0.586533 0.499188
3 1 0.998392 0.620165 0.495342
5 1 0.0291948 0.765989 0.497468
30 1 0.163579 0.703488 0.500394
13 1 0.5904 0.707984 0.499669
51 1 0.699572 0.734662 0.500657
66 1 0.717915 0.658384 0.497131
40 1 0.806179 0.705698 0.497973
60 1 0.906507 0.70842 0.501127
53 1 0.0733377 0.881232 0.500586
61 1 0.119264 0.807135 0.503041
71 1 0.145542 0.859062 0.500563
35 1 0.334365 0.83567 0.499146
15 1 0.470685 0.809101 0.499981
21 1 0.638393 0.839824 0.499123
12 1 0.777365 0.832857 0.502119
73 1 0.882755 0.790204 0.497316
25 1 0.944126 0.866501 0.504029
46 1 0.00360081 0.948165 0.503103
23 1 0.180263 0.938005 0.498949
74 1 0.229705 0.0287295 0.500782
45 1 0.295701 0.939824 0.503999
34 1 0.416789 0.940731 0.498025
6 1 0.562018 0.950642 0.500821
69 1 0.821354 0.942069 0.499239
26 1 0.694355 0.952184 0.503211
68 1 0.861434 0.897073 0.496009
49 1 0.803451 0.0110226 0.499828
47 1 0.894076 0.976217 0.501822
ITEM: TIMESTEP
4750
ITEM: NUMBER OF ATOMS
67
ITEM: BOX BOUNDS pp pp pp
-4.8180063887833819e+00 4.8180063887833819e+00
-4.8240432938320117e+00 4.8240432938320117e+00
-1.0000000000000001e-01 1.0000000000000001e-01
ITEM: ATOMS id type xs ys zs
37 1 0.0278858 0.0562477 0.502267
77 1 0.232096 0.100388 0.496504
14 1 0.340617 0.0567861 0.499377
43 1 0.459883 0.0281948 0.498388
39 1 0.554656 0.0758562 0.49937
9 1 0.693536 0.0846929 0.504818
75 1 0.95363 0.00561108 0.49976
44 1 0.915306 0.0783401 0.495058
79 1 0.0518092 0.154804 0.50093
11 1 0.17025 0.188455 0.500379
20 1 0.315 0.194739 0.50211
28 1 0.45591 0.144011 0.501302
55 1 0.560828 0.191083 0.497657
36 1 0.670033 0.215592 0.5004
19 1 0.807304 0.197636 0.498758
31 1 0.958536 0.180356 0.50099
59 1 0.0578376 0.234985 0.505774
10 1 0.472618 0.268501 0.503419
38 1 0.591306 0.30575 0.499096
80 1 0.741474 0.28102 0.499209
17 1 0.842365 0.349585 0.498907
24 1 0.97084 0.310413 0.503854
2 1 0.232774 0.335536 0.502703
16 1 0.445024 0.414922 0.501104
7 1 0.600147 0.450661 0.499288
56 1 0.697082 0.338505 0.50359
50 1 0.729685 0.416741 0.501068
18 1 0.942046 0.4575 0.500909
33 1 0.0780741 0.509272 0.497561
8 1 0.223777 0.501252 0.503166
48 1 0.324225 0.429743 0.49687
1 1 0.367774 0.542575 0.499391
54 1 0.814715 0.4689 0.502658
70 1 0.905349 0.569388 0.499303
72 1 0.0835314 0.6743 0.500898
32 1 0.27592 0.636072 0.505573
4 1 0.514055 0.574153 0.501788
22 1 0.661275 0.577018 0.499828
27 1 0.8094 0.586614 0.498781
3 1 0.998899 0.619806 0.495287
5 1 0.0290223 0.765926 0.495975
30 1 0.163906 0.704124 0.499187
13 1 0.590103 0.707922 0.498353
51 1 0.699292 0.735303 0.501291
66 1 0.717457 0.659655 0.497555
40 1 0.805865 0.705849 0.497616
60 1 0.90645 0.70813 0.500633
53 1 0.0739549 0.880971 0.501237
61 1 0.119553 0.806506 0.503321
71 1 0.146061 0.85815 0.500269
35 1 0.334496 0.834402 0.500671
15 1 0.471038 0.810974 0.50014
21 1 0.6378 0.839564 0.5009
12 1 0.777628 0.832875 0.502457
73 1 0.883485 0.790176 0.496168
25 1 0.943865 0.866125 0.503476
46 1 0.00371421 0.947865 0.502463
23 1 0.181485 0.937344 0.500009
74 1 0.228956 0.0287683 0.500523
45 1 0.296449 0.939803 0.503866
34 1 0.414904 0.941272 0.500518
6 1 0.560925 0.949861 0.501175
69 1 0.821058 0.942293 0.49925
26 1 0.693792 0.952458 0.500292
68 1 0.861529 0.897511 0.495323
49 1 0.803191 0.011518 0.500228
47 1 0.893715 0.976997 0.503069
ITEM: TIMESTEP
5000
ITEM: NUMBER OF ATOMS
67
ITEM: BOX BOUNDS pp pp pp
-4.8168005728468151e+00 4.8168005728468151e+00
-4.8221850131120583e+00 4.8221850131120583e+00
-1.0000000000000001e-01 1.0000000000000001e-01
ITEM: ATOMS id type xs ys zs
37 1 0.028581 0.0569015 0.502977
77 1 0.231594 0.0993494 0.495644
14 1 0.340601 0.056298 0.496344
43 1 0.459226 0.0278759 0.498758
39 1 0.554271 0.0754408 0.50092
9 1 0.693353 0.0851805 0.505399
75 1 0.95384 0.00598824 0.50098
44 1 0.915226 0.0784951 0.496824
79 1 0.0518406 0.156204 0.500031
11 1 0.168881 0.188788 0.498529
20 1 0.314592 0.193642 0.503703
28 1 0.455754 0.144399 0.502432
55 1 0.560458 0.191084 0.497865
36 1 0.669221 0.216169 0.501557
19 1 0.806885 0.197616 0.499933
31 1 0.958746 0.180768 0.498434
59 1 0.0580768 0.235655 0.505823
10 1 0.472399 0.268536 0.503496
38 1 0.591489 0.306441 0.500683
80 1 0.74066 0.281486 0.499413
17 1 0.84199 0.350018 0.499167
24 1 0.969909 0.310616 0.505524
2 1 0.232823 0.335135 0.502419
16 1 0.445274 0.414391 0.500401
7 1 0.599933 0.450973 0.501548
56 1 0.697277 0.339116 0.504381
50 1 0.729819 0.417305 0.502174
18 1 0.941777 0.457393 0.501356
33 1 0.0784634 0.510203 0.496515
8 1 0.22398 0.500784 0.504961
48 1 0.324756 0.429773 0.497126
1 1 0.366981 0.542217 0.498501
54 1 0.814954 0.469928 0.505891
70 1 0.904223 0.568794 0.498546
72 1 0.0830102 0.674972 0.49949
32 1 0.27611 0.636302 0.505047
4 1 0.513465 0.574481 0.503072
22 1 0.660552 0.577637 0.499935
27 1 0.808326 0.587643 0.498142
3 1 0.998234 0.620231 0.497295
5 1 0.0291428 0.766474 0.496118
30 1 0.163972 0.703716 0.498057
13 1 0.590449 0.708266 0.496752
51 1 0.699567 0.735384 0.4997
66 1 0.718175 0.658719 0.497837
40 1 0.806006 0.706929 0.49584
60 1 0.906732 0.708889 0.500697
53 1 0.074216 0.881399 0.499973
61 1 0.119462 0.806353 0.503953
71 1 0.145983 0.858116 0.499819
35 1 0.334462 0.834149 0.498511
15 1 0.471071 0.810417 0.501287
21 1 0.63831 0.839763 0.502623
12 1 0.777214 0.83317 0.503542
73 1 0.883046 0.790686 0.495269
25 1 0.943831 0.866983 0.50651
46 1 0.00413776 0.948119 0.500823
23 1 0.181322 0.936423 0.499853
74 1 0.22881 0.0278957 0.500681
45 1 0.296935 0.93924 0.505758
34 1 0.414251 0.940808 0.501465
6 1 0.560186 0.949439 0.500741
69 1 0.821831 0.942777 0.499424
26 1 0.693167 0.952555 0.498194
68 1 0.861181 0.897382 0.496211
49 1 0.803724 0.0116498 0.501873
47 1 0.894537 0.976635 0.50229
ITEM: TIMESTEP
5250
ITEM: NUMBER OF ATOMS
67
ITEM: BOX BOUNDS pp pp pp
-4.8155947569102482e+00 4.8155947569102482e+00
-4.8234307519090063e+00 4.8234307519090063e+00
-1.0000000000000001e-01 1.0000000000000001e-01
ITEM: ATOMS id type xs ys zs
37 1 0.0281952 0.0573365 0.499275
77 1 0.231344 0.100215 0.49731
14 1 0.34053 0.0560678 0.498003
43 1 0.459193 0.0274065 0.497333
39 1 0.554274 0.0749599 0.502263
9 1 0.692544 0.0850727 0.505951
75 1 0.953708 0.00607215 0.501637
44 1 0.915078 0.0785143 0.496605
79 1 0.0519495 0.156259 0.499131
11 1 0.169188 0.189024 0.497831
20 1 0.314748 0.193861 0.504688
28 1 0.456134 0.143502 0.501517
55 1 0.56065 0.190365 0.498157
36 1 0.6697 0.215576 0.501483
19 1 0.806843 0.19792 0.501653
31 1 0.958618 0.180625 0.498847
59 1 0.0578186 0.236094 0.504782
10 1 0.472796 0.26768 0.501066
38 1 0.591518 0.30588 0.501418
80 1 0.74096 0.281143 0.499295
17 1 0.842668 0.350756 0.498794
24 1 0.971571 0.312238 0.50508
2 1 0.23279 0.335304 0.502803
16 1 0.445204 0.413654 0.500196
7 1 0.60004 0.450741 0.503132
56 1 0.697442 0.338896 0.503452
50 1 0.729765 0.417063 0.502287
18 1 0.942056 0.457305 0.499728
33 1 0.0781544 0.510096 0.495726
8 1 0.224368 0.501104 0.505219
48 1 0.324654 0.429674 0.49604
1 1 0.367987 0.542038 0.497839
54 1 0.814877 0.469041 0.506117
70 1 0.905133 0.569472 0.498641
72 1 0.0822592 0.675378 0.499263
32 1 0.276316 0.636619 0.503556
4 1 0.514844 0.573836 0.504746
22 1 0.661102 0.57768 0.499817
27 1 0.809231 0.587274 0.498362
3 1 0.998002 0.621024 0.496551
5 1 0.0293909 0.766996 0.494804
30 1 0.163443 0.702105 0.499873
13 1 0.590181 0.707921 0.496993
51 1 0.699526 0.735021 0.499647
66 1 0.718302 0.659014 0.498388
40 1 0.806385 0.706605 0.496668
60 1 0.906701 0.710023 0.500155
53 1 0.0745256 0.881884 0.500751
61 1 0.119203 0.806548 0.500446
71 1 0.146749 0.857627 0.500827
35 1 0.333785 0.834363 0.498764
15 1 0.47094 0.809644 0.500804
21 1 0.637836 0.83989 0.504064
12 1 0.777289 0.833217 0.503245
73 1 0.882963 0.791255 0.49478
25 1 0.944139 0.866738 0.50681
46 1 0.00404257 0.948339 0.501077
23 1 0.18052 0.937007 0.498773
74 1 0.228672 0.028638 0.500664
45 1 0.295263 0.938874 0.505015
34 1 0.414292 0.940601 0.502334
6 1 0.559879 0.948634 0.499071
69 1 0.82123 0.942968 0.495845
26 1 0.692959 0.952366 0.49903
68 1 0.861737 0.898211 0.493386
49 1 0.802565 0.0117477 0.502157
47 1 0.893404 0.978261 0.503307
ITEM: TIMESTEP
5500
ITEM: NUMBER OF ATOMS
67
ITEM: BOX BOUNDS pp pp pp
-4.8143889409736813e+00 4.8143889409736813e+00
-4.8171983555144049e+00 4.8171983555144049e+00
-1.0000000000000001e-01 1.0000000000000001e-01
ITEM: ATOMS id type xs ys zs
37 1 0.0291856 0.0570112 0.497038
77 1 0.23266 0.10022 0.497661
14 1 0.341342 0.0563431 0.498077
43 1 0.459603 0.0272762 0.495998
39 1 0.554157 0.075671 0.500338
9 1 0.692204 0.085341 0.506635
75 1 0.954161 0.00601526 0.501599
44 1 0.91569 0.0787248 0.497295
79 1 0.0518841 0.156463 0.500025
11 1 0.169402 0.188631 0.497631
20 1 0.3151 0.19463 0.504258
28 1 0.456163 0.144138 0.501417
55 1 0.560972 0.190755 0.498423
36 1 0.669885 0.215982 0.50038
19 1 0.807018 0.197747 0.503149
31 1 0.958345 0.181136 0.496298
59 1 0.0578737 0.236076 0.504649
10 1 0.472941 0.267749 0.500243
38 1 0.591825 0.306185 0.500491
80 1 0.740548 0.281407 0.499932
17 1 0.842377 0.349911 0.498758
24 1 0.970805 0.311724 0.504975
2 1 0.232157 0.335401 0.502903
16 1 0.445776 0.413451 0.498117
7 1 0.600367 0.450257 0.503132
56 1 0.697369 0.339242 0.505024
50 1 0.729975 0.416967 0.501441
18 1 0.942165 0.457724 0.500154
33 1 0.0785104 0.510054 0.495575
8 1 0.224274 0.501057 0.504001
48 1 0.325525 0.428897 0.495978
1 1 0.367542 0.541897 0.499281
54 1 0.814989 0.469368 0.504752
70 1 0.9043 0.569658 0.497834
72 1 0.0823907 0.675448 0.500016
32 1 0.275715 0.636424 0.504309
4 1 0.513847 0.573847 0.50355
22 1 0.660532 0.576784 0.499499
27 1 0.808169 0.586327 0.499494
3 1 0.998147 0.620355 0.497274
5 1 0.0282152 0.766671 0.494895
30 1 0.163011 0.703667 0.500395
13 1 0.590058 0.707313 0.497402
51 1 0.699494 0.735896 0.499311
66 1 0.717279 0.659288 0.499005
40 1 0.805821 0.705686 0.497362
60 1 0.906301 0.70822 0.498227
53 1 0.0736622 0.881837 0.501572
61 1 0.118489 0.806734 0.499343
71 1 0.14566 0.857799 0.499289
35 1 0.333791 0.83368 0.50055
15 1 0.470803 0.809336 0.500832
21 1 0.637285 0.839079 0.502817
12 1 0.777487 0.833489 0.501883
73 1 0.882929 0.790365 0.49427
25 1 0.943481 0.867066 0.506343
46 1 0.00392012 0.947875 0.500738
23 1 0.180263 0.937232 0.497976
74 1 0.229134 0.028452 0.501715
45 1 0.29566 0.939456 0.505172
34 1 0.414602 0.939899 0.502199
6 1 0.560474 0.949153 0.497809
69 1 0.821319 0.943049 0.497576
26 1 0.692677 0.952597 0.500253
68 1 0.861502 0.898445 0.495101
49 1 0.802508 0.0118964 0.50422
47 1 0.893652 0.978426 0.503083
ITEM: TIMESTEP
5750
ITEM: NUMBER OF ATOMS
67
ITEM: BOX BOUNDS pp pp pp
-4.8131831250371153e+00 4.8131831250371153e+00
-4.8216456051583556e+00 4.8216456051583556e+00
-1.0000000000000001e-01 1.0000000000000001e-01
ITEM: ATOMS id type xs ys zs
37 1 0.0283425 0.0560787 0.496239
77 1 0.232583 0.100343 0.498558
14 1 0.340808 0.056088 0.500376
43 1 0.459389 0.0268579 0.494999
39 1 0.554113 0.0744833 0.501535
9 1 0.692357 0.0851386 0.504814
75 1 0.953461 0.00577217 0.501833
44 1 0.914939 0.078904 0.497651
79 1 0.0509 0.155447 0.502978
11 1 0.169268 0.188199 0.499504
20 1 0.314679 0.192849 0.505662
28 1 0.455804 0.143594 0.501415
55 1 0.561475 0.189842 0.497192
36 1 0.670692 0.215787 0.498799
19 1 0.807528 0.197024 0.503976
31 1 0.95804 0.181201 0.493883
59 1 0.0572519 0.235481 0.504306
10 1 0.473226 0.267521 0.500402
38 1 0.591892 0.305787 0.498928
80 1 0.741826 0.281266 0.500579
17 1 0.841831 0.349469 0.49875
24 1 0.971259 0.311905 0.507868
2 1 0.232838 0.334655 0.502031
16 1 0.445169 0.413729 0.498386
7 1 0.599969 0.45067 0.502676
56 1 0.697154 0.338394 0.50362
50 1 0.729747 0.416802 0.502865
18 1 0.941632 0.457442 0.500093
33 1 0.0785529 0.510108 0.494655
8 1 0.224231 0.500294 0.505041
48 1 0.325222 0.429413 0.496284
1 1 0.367124 0.542411 0.500617
54 1 0.814537 0.469501 0.505543
70 1 0.904889 0.56952 0.498229
72 1 0.0827261 0.675952 0.498769
32 1 0.274965 0.636481 0.50557
4 1 0.513292 0.57415 0.501763
22 1 0.660555 0.576971 0.499469
27 1 0.808387 0.586895 0.498837
3 1 0.998928 0.620395 0.497326
5 1 0.0277312 0.766782 0.497438
30 1 0.163071 0.705521 0.499014
13 1 0.590084 0.708038 0.496272
51 1 0.69919 0.735425 0.500362
66 1 0.717193 0.659342 0.497945
40 1 0.805786 0.706294 0.49687
60 1 0.905739 0.707926 0.497634
53 1 0.0735114 0.881023 0.500282
61 1 0.118139 0.806244 0.497704
71 1 0.145772 0.857303 0.499436
35 1 0.333068 0.833925 0.499796
15 1 0.470336 0.809787 0.501074
21 1 0.637708 0.839434 0.503961
12 1 0.777301 0.833006 0.502432
73 1 0.882577 0.789628 0.496433
25 1 0.942701 0.866202 0.508029
46 1 0.00322144 0.947781 0.500232
23 1 0.18051 0.936775 0.49691
74 1 0.228742 0.0284526 0.501411
45 1 0.295692 0.939181 0.505241
34 1 0.413419 0.940368 0.502997
6 1 0.55998 0.948188 0.497295
69 1 0.820271 0.942586 0.497932
26 1 0.693241 0.952327 0.50067
68 1 0.860291 0.89787 0.495895
49 1 0.802309 0.0115263 0.504041
47 1 0.89329 0.977436 0.50256
ITEM: TIMESTEP
6000
ITEM: NUMBER OF ATOMS
67
ITEM: BOX BOUNDS pp pp pp
-4.8119773091005484e+00 4.8119773091005484e+00
-4.8276028852409523e+00 4.8276028852409523e+00
-1.0000000000000001e-01 1.0000000000000001e-01
ITEM: ATOMS id type xs ys zs
37 1 0.028812 0.0558027 0.494569
77 1 0.23157 0.100568 0.497428
14 1 0.339954 0.056127 0.501015
43 1 0.459054 0.0269748 0.494504
39 1 0.553669 0.0754325 0.501272
9 1 0.692439 0.0850941 0.502997
75 1 0.953153 0.00594706 0.501503
44 1 0.915411 0.0787568 0.497698
79 1 0.0504007 0.155167 0.504807
11 1 0.168295 0.188164 0.49874
20 1 0.313261 0.192495 0.505659
28 1 0.455323 0.14387 0.501573
55 1 0.560521 0.190614 0.498275
36 1 0.669956 0.215696 0.49774
19 1 0.807424 0.197257 0.503614
31 1 0.957446 0.18107 0.494376
59 1 0.0573367 0.234464 0.504131
10 1 0.471791 0.268117 0.500235
38 1 0.59158 0.305627 0.498907
80 1 0.741839 0.280563 0.500216
17 1 0.842069 0.349583 0.500907
24 1 0.971569 0.311367 0.507564
2 1 0.232742 0.333863 0.501104
16 1 0.444646 0.414014 0.499073
7 1 0.599263 0.450776 0.503582
56 1 0.697971 0.337823 0.503089
50 1 0.72916 0.416373 0.501351
18 1 0.941137 0.458206 0.5003
33 1 0.0778888 0.509559 0.49256
8 1 0.223071 0.49828 0.50389
48 1 0.324934 0.42883 0.494725
1 1 0.366144 0.541494 0.499027
54 1 0.814406 0.468706 0.505032
70 1 0.904512 0.56986 0.499766
72 1 0.0826691 0.674751 0.499403
32 1 0.273358 0.634881 0.508064
4 1 0.512733 0.574233 0.501771
22 1 0.66027 0.577432 0.498624
27 1 0.807652 0.585965 0.498503
3 1 0.998486 0.619927 0.495948
5 1 0.0282908 0.766097 0.498286
30 1 0.163384 0.703995 0.496838
13 1 0.589796 0.708102 0.496048
51 1 0.698587 0.736693 0.500469
66 1 0.714854 0.660065 0.497345
40 1 0.804424 0.705035 0.497689
60 1 0.905196 0.707013 0.498632
53 1 0.0729621 0.881142 0.501268
61 1 0.118589 0.806587 0.497964
71 1 0.14552 0.858235 0.499493
35 1 0.332429 0.834084 0.499815
15 1 0.469569 0.809693 0.50146
21 1 0.637872 0.83973 0.505138
12 1 0.777753 0.832821 0.500991
73 1 0.882445 0.788802 0.495027
25 1 0.942657 0.866415 0.506698
46 1 0.00294051 0.947629 0.500992
23 1 0.181414 0.936763 0.495394
74 1 0.228117 0.0289192 0.499957
45 1 0.296704 0.939247 0.505464
34 1 0.413707 0.939957 0.502486
6 1 0.56021 0.949187 0.497351
69 1 0.819914 0.942375 0.497313
26 1 0.693208 0.952337 0.50005
68 1 0.860888 0.898714 0.496898
49 1 0.802289 0.0115896 0.504052
47 1 0.892867 0.97808 0.502582
ITEM: TIMESTEP
6250
ITEM: NUMBER OF ATOMS
67
ITEM: BOX BOUNDS pp pp pp
-4.8107714931639816e+00 4.8107714931639816e+00
-4.8244610904602832e+00 4.8244610904602832e+00
-1.0000000000000001e-01 1.0000000000000001e-01
ITEM: ATOMS id type xs ys zs
37 1 0.0279138 0.0562687 0.495886
77 1 0.232305 0.100554 0.498188
14 1 0.340132 0.0557949 0.500986
43 1 0.458959 0.0275924 0.494478
39 1 0.553384 0.0759366 0.503247
9 1 0.69216 0.0855115 0.503961
75 1 0.952998 0.00546946 0.501034
44 1 0.914946 0.0784961 0.49652
79 1 0.0495432 0.155962 0.504225
11 1 0.168527 0.188326 0.498937
20 1 0.313087 0.192232 0.504947
28 1 0.455211 0.144244 0.502506
55 1 0.560163 0.190948 0.499197
36 1 0.669326 0.216701 0.49846
19 1 0.806724 0.197503 0.505947
31 1 0.956437 0.181436 0.496055
59 1 0.0563944 0.235137 0.503535
10 1 0.471871 0.268104 0.501225
38 1 0.589906 0.306457 0.49868
80 1 0.741187 0.281498 0.500518
17 1 0.84145 0.350067 0.503202
24 1 0.970401 0.311725 0.507498
2 1 0.23345 0.334619 0.499735
16 1 0.445309 0.414329 0.498295
7 1 0.599863 0.451328 0.503909
56 1 0.696296 0.338183 0.504095
50 1 0.728655 0.416396 0.500062
18 1 0.940244 0.458861 0.4993
33 1 0.0768866 0.510467 0.493139
8 1 0.223406 0.49941 0.503618
48 1 0.325047 0.429295 0.49479
1 1 0.366543 0.542256 0.497754
54 1 0.813521 0.469123 0.504385
70 1 0.903326 0.570559 0.501799
72 1 0.0825413 0.674737 0.49999
32 1 0.274074 0.635419 0.508393
4 1 0.513051 0.573308 0.501396
22 1 0.660031 0.577582 0.499309
27 1 0.806785 0.586459 0.499178
3 1 0.997657 0.620599 0.49809
5 1 0.0287432 0.766415 0.497873
30 1 0.163138 0.703415 0.497871
13 1 0.588841 0.708244 0.495241
51 1 0.697893 0.736367 0.500637
66 1 0.714873 0.660362 0.496412
40 1 0.804279 0.705452 0.498261
60 1 0.904181 0.70753 0.498207
53 1 0.0739875 0.881314 0.500764
61 1 0.118691 0.806231 0.498042
71 1 0.146031 0.857735 0.500565
35 1 0.333044 0.833626 0.499485
15 1 0.469947 0.810354 0.500971
21 1 0.637385 0.840037 0.50623
12 1 0.777008 0.83301 0.50012
73 1 0.882381 0.789679 0.49434
25 1 0.943276 0.865722 0.506895
46 1 0.00301446 0.947399 0.500591
23 1 0.180014 0.93727 0.496125
74 1 0.227886 0.0287697 0.497762
45 1 0.29532 0.938795 0.505326
34 1 0.414529 0.940538 0.502296
6 1 0.56017 0.949808 0.498347
69 1 0.820091 0.942049 0.49776
26 1 0.692859 0.9532 0.500787
68 1 0.861021 0.897726 0.497388
49 1 0.800921 0.0108092 0.502324
47 1 0.89244 0.977974 0.5014
ITEM: TIMESTEP
6500
ITEM: NUMBER OF ATOMS
67
ITEM: BOX BOUNDS pp pp pp
-4.8095656772274147e+00 4.8095656772274147e+00
-4.8283434347978220e+00 4.8283434347978220e+00
-1.0000000000000001e-01 1.0000000000000001e-01
ITEM: ATOMS id type xs ys zs
37 1 0.0284431 0.0558776 0.496763
77 1 0.231534 0.101025 0.496306
14 1 0.339913 0.0555174 0.499601
43 1 0.459357 0.0277275 0.494402
39 1 0.554138 0.0757979 0.501664
9 1 0.69282 0.0850214 0.502346
75 1 0.953525 0.00515288 0.5019
44 1 0.915321 0.0777755 0.496309
79 1 0.049044 0.154891 0.506821
11 1 0.168221 0.188772 0.499073
20 1 0.314035 0.192875 0.507011
28 1 0.455344 0.144105 0.503507
55 1 0.56078 0.191445 0.500329
36 1 0.669845 0.21621 0.499192
19 1 0.806843 0.197048 0.5081
31 1 0.955676 0.180563 0.495848
59 1 0.0557053 0.234134 0.50119
10 1 0.471782 0.268102 0.501883
38 1 0.590659 0.306437 0.49724
80 1 0.741281 0.280993 0.500417
17 1 0.84173 0.349738 0.503121
24 1 0.970545 0.311547 0.506964
2 1 0.232097 0.334149 0.501677
16 1 0.444491 0.413764 0.498651
7 1 0.59846 0.451014 0.504677
56 1 0.696807 0.338041 0.505929
50 1 0.728262 0.416266 0.499674
18 1 0.941062 0.458516 0.49791
33 1 0.0778508 0.50979 0.493141
8 1 0.22396 0.498325 0.502306
48 1 0.324965 0.42813 0.494553
1 1 0.367031 0.541181 0.49798
54 1 0.813527 0.468838 0.505543
70 1 0.903712 0.569816 0.502723
72 1 0.0829738 0.674886 0.501505
32 1 0.274759 0.634841 0.508439
4 1 0.512888 0.574152 0.500476
22 1 0.659464 0.577347 0.499766
27 1 0.807109 0.586004 0.49964
3 1 0.998602 0.620075 0.498127
5 1 0.028816 0.766794 0.49685
30 1 0.163766 0.704066 0.497674
13 1 0.589225 0.708137 0.495569
51 1 0.698086 0.73609 0.499174
66 1 0.715171 0.659711 0.495292
40 1 0.804201 0.705076 0.497562
60 1 0.904872 0.707697 0.497349
53 1 0.0745675 0.881013 0.500897
61 1 0.119712 0.806211 0.496928
71 1 0.146478 0.857928 0.499097
35 1 0.333782 0.834282 0.497373
15 1 0.47053 0.810401 0.501563
21 1 0.637833 0.839497 0.507246
12 1 0.776889 0.832792 0.500783
73 1 0.88288 0.789592 0.491642
25 1 0.942847 0.866471 0.507997
46 1 0.00392916 0.947041 0.499916
23 1 0.179424 0.937667 0.496535
74 1 0.226871 0.0293948 0.496322
45 1 0.294804 0.938503 0.505662
34 1 0.414458 0.940805 0.500738
6 1 0.559928 0.949337 0.498155
69 1 0.820298 0.942555 0.498107
26 1 0.692692 0.952686 0.500362
68 1 0.860559 0.89779 0.496991
49 1 0.802068 0.0116088 0.501938
47 1 0.89308 0.977355 0.501258
ITEM: TIMESTEP
6750
ITEM: NUMBER OF ATOMS
67
ITEM: BOX BOUNDS pp pp pp
-4.8083598612908478e+00 4.8083598612908478e+00
-4.8261764261845039e+00 4.8261764261845039e+00
-1.0000000000000001e-01 1.0000000000000001e-01
ITEM: ATOMS id type xs ys zs
37 1 0.029977 0.0552205 0.495804
77 1 0.232348 0.101549 0.497251
14 1 0.340323 0.05627 0.502158
43 1 0.459264 0.0276863 0.494223
39 1 0.553859 0.0751518 0.499678
9 1 0.69179 0.0847298 0.502826
75 1 0.954063 0.00505705 0.501458
44 1 0.916741 0.077545 0.496955
79 1 0.0490561 0.155137 0.507435
11 1 0.168311 0.188696 0.498521
20 1 0.314245 0.193411 0.506934
28 1 0.456066 0.143747 0.503969
55 1 0.560703 0.190756 0.502434
36 1 0.669121 0.215163 0.500837
19 1 0.805781 0.196477 0.507744
31 1 0.956072 0.180855 0.494899
59 1 0.0559237 0.235016 0.502137
10 1 0.472229 0.267757 0.501152
38 1 0.591164 0.305716 0.495665
80 1 0.740577 0.280753 0.499805
17 1 0.841073 0.349657 0.502344
24 1 0.970173 0.311526 0.507844
2 1 0.231764 0.334588 0.501908
16 1 0.44477 0.413248 0.49886
7 1 0.599412 0.450366 0.503256
56 1 0.697279 0.338572 0.504286
50 1 0.728839 0.417044 0.501132
18 1 0.941193 0.457564 0.496383
33 1 0.0773735 0.51093 0.492146
8 1 0.223465 0.499258 0.503194
48 1 0.324312 0.428073 0.493349
1 1 0.366359 0.540078 0.498999
54 1 0.813506 0.468812 0.503473
70 1 0.903886 0.570062 0.502294
72 1 0.0825435 0.675343 0.501464
32 1 0.275119 0.634485 0.509392
4 1 0.513039 0.573707 0.500993
22 1 0.659892 0.576859 0.498953
27 1 0.807279 0.586327 0.499785
3 1 0.997717 0.620928 0.499329
5 1 0.0291963 0.766795 0.495674