LAMMPS (23 Jun 2022 - Update 4)
  using 1 OpenMP thread(s) per MPI task
# Compute elastic constant tensor for a crystal
#
# Written by Aidan Thompson (Sandia, athomps@sandia.gov)
#
#  This script uses the following three include files.
#
#   init.mod      (must be modified for different crystal structures)
# 	       	  Define units, deformation parameters and initial
#		  configuration of the atoms and simulation cell.
#
#
#   potential.mod    (must be modified for different pair styles)
# 		     Define pair style and other attributes
#		     not stored in restart file
#
#
#   displace.mod    (displace.mod should not need to be modified)
# 		    Perform positive and negative box displacements
# 		    in direction ${dir} and size ${up}.
# 		    It uses the resultant changes
#		    in stress to compute one
# 		    row of the elastic stiffness tensor
#
#		    Inputs variables:
#		    	   dir = the Voigt deformation component
#		    		    (1,2,3,4,5,6)
#		    Global constants:
#       	    	   up = the deformation magnitude (strain units)
#       		   cfac = conversion from LAMMPS pressure units to
#               	   output units for elastic constants
#
#
#  To run this on a different system, it should only be necessary to
#  modify the files init.mod and potential.mod. In order to calculate
#  the elastic constants correctly, care must be taken to specify
#  the correct units in init.mod (units, cfac and cunits). It is also
#  important to verify that the minimization of energy w.r.t atom
#  positions in the deformed cell is fully converged.
#  One indication of this is that the elastic constants are insensitive
#  to the choice of the variable ${up} in init.mod. Another is to check
#  the final max and two-norm forces reported in the log file. If you know
#  that minimization is not required, you can set maxiter = 0.0 in
#  init.mod.
#



variable dt equal 0.01
variable strain equal 0.05
variable srate equal 1e-4
variable M equal 1000 # averaging time for properties
variable strainsteps equal ${strain}/${dt}/${srate}
variable strainsteps equal 0.05/${dt}/${srate}
variable strainsteps equal 0.05/0.01/${srate}
variable strainsteps equal 0.05/0.01/0.0001


dimension 2
include init.mod
# NOTE: This script can be modified for different atomic structures,
# units, etc. See in.elastic for more info.
#

# Define the finite deformation size. Try several values of this
# variable to verify that results do not depend on it.
variable up equal 1.0e-1

# Define the amount of random jiggle for atoms
# This prevents atoms from staying on saddle points
variable atomjiggle equal 1.0e-6

# Uncomment one of these blocks, depending on what units
# you are using in LAMMPS and for output

# metal units, elastic constants in eV/A^3
#units		metal
#variable cfac equal 6.2414e-7
#variable cunits string eV/A^3

# Choose potential
# metal units, elastic constants in GPa
units		metal
atom_style	full
#pair_style      lj/cut 1.0
#pair_style      yukawa 1.0 2.0
#pair_modify     mix arithmetic
bond_style      harmonic
angle_style     harmonic
dihedral_style  zero
special_bonds   amber
variable cfac equal 1.0e-4
variable cunits string GPa
boundary	p p p

# Need to set mass to something, just to satisfy LAMMPS
#mass 1 1.0e-20
read_data network.lmp
Reading data file ...
  orthogonal box = (-4.823263 -4.823263 -0.1) to (4.823263 4.823263 0.1)
  1 by 1 by 1 MPI processor grid
WARNING: Atom style in data file differs from currently defined atom style (src/read_data.cpp:538)
  reading atoms ...
  67 atoms
WARNING: Bond style in data file differs from currently defined bond style (src/read_data.cpp:630)
  scanning bonds ...
  6 = max bonds/atom
  reading bonds ...
  158 bonds
Finding 1-2 1-3 1-4 neighbors ...
  special bond factors lj:    0        0        0.5     
  special bond factors coul:  0        0        0.8333333333333334
     9 = max # of 1-2 neighbors
    42 = max # of 1-3 neighbors
   244 = max # of 1-4 neighbors
    32 = max # of special neighbors
  special bonds CPU = 0.000 seconds
  read_data CPU = 0.003 seconds

# real units, elastic constants in GPa
#units		real
#variable cfac equal 1.01325e-4
#variable cunits string GPa

# Define minimization parameters
variable etol equal 0.0
variable ftol equal 5.0e-10
variable maxiter equal 100000
variable maxeval equal 20000
variable dmax equal 1.0e-2


include potential.mod
# NOTE: This script can be modified for different pair styles
# See in.elastic for more info.

# Setup neighbor style
neighbor 3.0 nsq
neigh_modify once no every 1 delay 0 check yes
comm_modify cutoff 2.0

# Setup minimization style
min_style	     cg
min_modify	     dmax ${dmax} line quadratic
min_modify	     dmax 0.01 line quadratic

timestep	0.001


# Setup output
thermo		500
thermo_style custom step temp pe ebond eangle edihed press pxx pyy pzz pxy pxz pyz lx ly lz vol
thermo_modify norm no


#change_box all triclinic
comm_modify mode single cutoff 10.0 vel yes
atom_modify sort 0 0



# Compute initial state

#dump rela all atom 1 traj_relax.lmpstrj
fix 3 all box/relax x 0 y 0 # xy 0  #MS comment: relax if the network is periodic
minimize ${etol} ${ftol} ${maxiter} ${maxeval}
minimize 0 ${ftol} ${maxiter} ${maxeval}
minimize 0 5e-10 ${maxiter} ${maxeval}
minimize 0 5e-10 100000 ${maxeval}
minimize 0 5e-10 100000 20000
Neighbor list info ...
  update every 1 steps, delay 0 steps, check yes
  max neighbors/atom: 2000, page size: 100000
  master list distance cutoff = 0
  ghost atom cutoff = 10
  0 neighbor lists, perpetual/occasional/extra = 0 0 0
WARNING: Inconsistent image flags (src/domain.cpp:819)
Per MPI rank memory allocation (min/avg/max) = 9.097 | 9.097 | 9.097 Mbytes
   Step          Temp          PotEng         E_bond        E_angle        E_dihed         Press           Pxx            Pyy            Pzz            Pxy            Pxz            Pyz             Lx             Ly             Lz           Volume    
         0   0              5.8898477e-11  5.8898477e-11  0              0              0.54674645     0.43461263     0.65888028     0             -0.018151883    0              0              9.646526       9.646526       0.2            93.055464    
       500   0              1.268072e-14   1.268072e-14   0              0             -1.5246697e-05 -1.1846576e-05 -1.8646819e-05  0             -0.00079906675  0              0              9.646527       9.6465274      0.2            93.055487    
      1000   0              9.1566282e-15  9.1566282e-15  0              0             -0.0002602694  -0.00024681353 -0.00027372527  0             -0.00078890032  0              0              9.6465272      9.6465272      0.2            93.055487    
      1500   0              7.5358318e-15  7.5358318e-15  0              0              4.287154e-06   4.6774232e-06  3.8968848e-06  0             -0.00036894235  0              0              9.6465273      9.6465271      0.2            93.055487    
      2000   0              6.9227787e-15  6.9227787e-15  0              0             -2.9165429e-06 -1.2365595e-05  6.532509e-06   0              5.7479904e-05  0              0              9.6465274      9.646527       0.2            93.055487    
      2500   0              6.6179684e-15  6.6179684e-15  0              0              0.00011026941  9.0253402e-05  0.00013028541  0              1.5473632e-05  0              0              9.6465274      9.646527       0.2            93.055487    
      3000   0              6.4154681e-15  6.4154681e-15  0              0             -3.1995754e-07  6.5085465e-07 -1.2907697e-06  0             -0.00011461285  0              0              9.6465275      9.6465269      0.2            93.055487    
      3500   0              6.2957226e-15  6.2957226e-15  0              0             -1.4905983e-06 -3.3242798e-05  3.0261601e-05  0             -0.00013471535  0              0              9.6465275      9.6465269      0.2            93.055487    
      3660   0              6.2695628e-15  6.2695628e-15  0              0             -8.9967926e-07 -1.0025758e-06 -7.9678272e-07  0              3.2823483e-05  0              0              9.6465275      9.6465269      0.2            93.055487    
Loop time of 0.201991 on 1 procs for 3660 steps with 67 atoms

95.8% CPU use with 1 MPI tasks x 1 OpenMP threads

Minimization stats:
  Stopping criterion = force tolerance
  Energy initial, next-to-last, final = 
    5.88984766233822e-11 6.26957873160946e-15 6.26956282298349e-15
  Force two-norm initial, final = 5.6206364e-05 4.8041818e-10
  Force max component initial, final = 3.8268199e-05 1.6024482e-10
  Final line search alpha, max atom move = 1 1.6024482e-10
  Iterations, force evaluations = 3660 7319

MPI task timing breakdown:
Section |  min time  |  avg time  |  max time  |%varavg| %total
---------------------------------------------------------------
Pair    | 0          | 0          | 0          |   0.0 |  0.00
Bond    | 0.029962   | 0.029962   | 0.029962   |   0.0 | 14.83
Neigh   | 0          | 0          | 0          |   0.0 |  0.00
Comm    | 0.061006   | 0.061006   | 0.061006   |   0.0 | 30.20
Output  | 4.4491e-05 | 4.4491e-05 | 4.4491e-05 |   0.0 |  0.02
Modify  | 0          | 0          | 0          |   0.0 |  0.00
Other   |            | 0.111      |            |       | 54.94

Nlocal:             67 ave          67 max          67 min
Histogram: 1 0 0 0 0 0 0 0 0 0
Nghost:            566 ave         566 max         566 min
Histogram: 1 0 0 0 0 0 0 0 0 0
Neighs:              0 ave           0 max           0 min
Histogram: 1 0 0 0 0 0 0 0 0 0

Total # of neighbors = 0
Ave neighs/atom = 0
Ave special neighs/atom = 24.447761
Neighbor list builds = 0
Dangerous builds = 0
#dump rela all atom 1 traj_relax.lmpstrj
thermo 100
unfix 3

fix 2d all enforce2d



#dump dump0 all xyz 1000000 cfg0.xyz
#dump_modify dump0 format line "%d %20.10g %20.10g %20.10g"
#minimize ${etol} ${ftol} ${maxiter} ${maxeval}

#undump rela

#write_restart restart.equil

# These formulas define the derivatives w.r.t. strain components
# Constants uses $, variables use v_


timestep        ${dt}
timestep        0.01
variable nsteps equal round(${strainsteps})
variable nsteps equal round(50000)

fix             4 all nve
fix             5 all langevin 0.1 0.1 1 904297
#fix		6 all press/berendsen y  0.0 0.0 1 x 0.0 0.0 10
fix             6 all nph y 0.0 0.0 10 ptemp 0.1 # x 0.0 0.0 10

# For PLUMED2
# fix 22 all plumed plumedfile plumed.dat outfile plumed.out

#fix             6 all nph x 0.0 0.0 10
fix     	9 all deform 1 x erate -${srate} units box remap x
fix     	9 all deform 1 x erate -0.0001 units box remap x

#fix     8 all deform 1 xy erate ${srate} units box remap x



#fix    10 all ave/time

dump 1 all atom 250 deform_dump.lammpstrj


#To avoid flying ice cube phenomenon:
#fix 21 all momentum 100 linear 1 1 1 angular


run  ${nsteps}
run  50000
WARNING: One or more atoms are time integrated more than once (src/modify.cpp:292)
WARNING: Inconsistent image flags (src/domain.cpp:819)
Per MPI rank memory allocation (min/avg/max) = 7.972 | 7.972 | 7.972 Mbytes
   Step          Temp          PotEng         E_bond        E_angle        E_dihed         Press           Pxx            Pyy            Pzz            Pxy            Pxz            Pyz             Lx             Ly             Lz           Volume    
      3660   0              6.2695628e-15  6.2695628e-15  0              0             -8.9967926e-07 -1.0025758e-06 -7.9678272e-07  0              3.2823483e-05  0              0              9.6465275      9.6465269      0.2            93.055487    
      3700   0.13649456     0.0005384102   0.0005384102   0              0             -49.509274     -122.34837      23.14194       0              260.25216      0              0              9.6461416      9.6443196      0.2            93.030472    
      3800   0.20880374     0.0012258341   0.0012258341   0              0              246.57166      586.73721     -93.7648        0              342.14998      0              0              9.645177       9.6451574      0.2            93.029251    
      3900   0.19566441     0.0010833306   0.0010833306   0              0              283.23694      548.64415      17.659878      0              535.06432      0              0              9.6442123      9.6476396      0.2            93.043885    
      4000   0.25234066     0.00099221642  0.00099221642  0              0              111.31573      206.42429      15.998672      0             -383.86633      0              0              9.6432477      9.6485078      0.2            93.04295     
      4100   0.20398445     0.0013467478   0.0013467478   0              0             -324.61211     -531.56687     -117.87581      0             -156.29092      0              0              9.642283       9.6499541      0.2            93.047589    
      4200   0.20485266     0.0011383692   0.0011383692   0              0              379.06167      709.58899      48.339233      0              29.285273      0              0              9.6413184      9.6491407      0.2            93.030438    
      4300   0.22608516     0.0013976997   0.0013976997   0              0              301.52369      666.73289     -63.926073      0              148.08764      0              0              9.6403537      9.6474945      0.2            93.00526     
      4400   0.20655394     0.00091497091  0.00091497091  0              0              375.35569      577.41946      173.11895      0              528.9439       0              0              9.6393891      9.6444355      0.2            92.966466    
      4500   0.1821244      0.0010807004   0.0010807004   0              0             -192.36705     -311.10706     -73.813048      0              684.17146      0              0              9.6384244      9.6440431      0.2            92.95338     
      4600   0.21733193     0.0010379434   0.0010379434   0              0              346.75787      698.09708     -4.7864707      0              455.31383      0              0              9.6374598      9.6432296      0.2            92.936237    
      4700   0.24596112     0.0010967823   0.0010967823   0              0             -117.64778     -351.20698      115.70161      0              78.581292      0              0              9.6364951      9.646566       0.2            92.959086    
      4800   0.19456445     0.0010398294   0.0010398294   0              0             -362.29683     -516.07131     -208.72136      0              439.50086      0              0              9.6355305      9.6527063      0.2            93.008945    
      4900   0.1955177      0.0011076419   0.0011076419   0              0              414.45104      788.45513      40.225159      0              37.552708      0              0              9.6345658      9.6522901      0.2            92.995624    
      5000   0.18821633     0.0012130564   0.0012130564   0              0             -103.90858     -383.68327      175.66078      0              65.159611      0              0              9.6336011      9.64437        0.2            92.910014    
      5100   0.20243888     0.0012267809   0.0012267809   0              0             -193.8155      -68.491607     -319.31486      0              567.6842       0              0              9.6326365      9.6413421      0.2            92.871544    
      5200   0.21213456     0.00097361097  0.00097361097  0              0              263.7124       288.00413      239.26673      0             -179.41367      0              0              9.6316718      9.6442173      0.2            92.889936    
      5300   0.20415991     0.0013476143   0.0013476143   0              0              858.32871      1466.0314      250.44626      0             -31.622087      0              0              9.6307072      9.6463135      0.2            92.90082     
      5400   0.25373998     0.00095597359  0.00095597359  0              0              88.915745      747.21544     -569.5967       0             -125.31004      0              0              9.6297425      9.6476137      0.2            92.904036    
      5500   0.21658201     0.0012045754   0.0012045754   0              0              674.88745      874.53059      475.04082      0             -325.26018      0              0              9.6287779      9.6343967      0.2            92.767466    
      5600   0.21643075     0.0011292931   0.0011292931   0              0              628.36642      1208.9788      47.532984      0              245.58867      0              0              9.6278132      9.6404819      0.2            92.816759    
      5700   0.16914022     0.0013487704   0.0013487704   0              0             -590.58961     -487.46702     -693.88641      0             -262.50906      0              0              9.6268486      9.6439569      0.2            92.840913    
      5800   0.1950883      0.001028315    0.001028315    0              0              1511.0958      2233.781       788.21222      0             -315.94404      0              0              9.6258839      9.6395976      0.2            92.789647    
      5900   0.22027236     0.0012222508   0.0012222508   0              0              711.3945       2033.079      -610.49631      0              719.80926      0              0              9.6249193      9.6455714      0.2            92.837847    
      6000   0.21581115     0.0013136955   0.0013136955   0              0             -108.07445     -188.42702     -27.922881      0             -913.63748      0              0              9.6239546      9.6552058      0.2            92.921262    
      6100   0.24702725     0.0011943264   0.0011943264   0              0              1137.3076      1402.0135      872.40489      0             -725.10525      0              0              9.62299        9.6518519      0.2            92.879674    
      6200   0.24870855     0.0014178344   0.0014178344   0              0              413.07398      1975.3586     -1149.3972      0             -1313.4378      0              0              9.6220253      9.6611962      0.2            92.960274    
      6300   0.16881852     0.0010144767   0.0010144767   0              0              1128.9791      1715.4217      542.3198       0             -798.64451      0              0              9.6210607      9.6474013      0.2            92.818233    
      6400   0.18937038     0.0012319691   0.0012319691   0              0              346.93202      444.0838       249.60083      0             -779.96648      0              0              9.620096       9.6500048      0.2            92.833973    
      6500   0.17565008     0.0010947997   0.0010947997   0              0             -151.33889      614.45433     -917.33063      0             -478.958        0              0              9.6191314      9.6566869      0.2            92.888939    
      6600   0.27816451     0.00096085855  0.00096085855  0              0              977.14607      892.61605      1061.472       0             -409.77428      0              0              9.6181667      9.651241       0.2            92.827245    
      6700   0.2002655      0.0011567754   0.0011567754   0              0              144.4875       876.87117     -588.07844      0             -717.49171      0              0              9.617202       9.6553836      0.2            92.857775    
      6800   0.17203136     0.0015245335   0.0015245335   0              0              1215.4173      2677.0551     -246.39971      0             -168.87532      0              0              9.6162374      9.6589751      0.2            92.882997    
      6900   0.21270342     0.00141755     0.00141755     0              0              1433.9973      2026.1371      841.66096      0             -781.43943      0              0              9.6152727      9.6543899      0.2            92.829592    
      7000   0.20742179     0.0013101044   0.0013101044   0              0              363.88823      1774.8534     -1047.2634      0             -29.317692      0              0              9.6143081      9.6554375      0.2            92.830351    
      7100   0.23551786     0.0013667205   0.0013667205   0              0              862.0547       1079.5592      644.36591      0             -647.92005      0              0              9.6133434      9.6517784      0.2            92.785861    
      7200   0.24387033     0.0011402978   0.0011402978   0              0              924.03695      1592.3408      255.53532      0             -698.10384      0              0              9.6123788      9.6464273      0.2            92.725113    
      7300   0.19685566     0.001268936    0.001268936    0              0              800.50943      2470.7781     -869.94032      0             -632.57285      0              0              9.6114141      9.6492307      0.2            92.742752    
      7400   0.18353203     0.0013737377   0.0013737377   0              0              1779.8992      2613.6603      945.94112      0             -162.95469      0              0              9.6104495      9.6418864      0.2            92.662862    
      7500   0.21409871     0.0013001053   0.0013001053   0              0              760.49192      1803.6065     -282.85004      0             -89.98682       0              0              9.6094848      9.6489207      0.2            92.721157    
      7600   0.24668016     0.001191164    0.001191164    0              0              933.37239      2325.1762     -458.60639      0             -226.09202      0              0              9.6085202      9.6516643      0.2            92.738211    
      7700   0.20836899     0.0013083308   0.0013083308   0              0              1254.0747      1671.7447      836.1839       0             -508.18852      0              0              9.6075555      9.6529524      0.2            92.741276    
      7800   0.2175345      0.0010676359   0.0010676359   0              0              428.38478      1483.2503     -626.69553      0              271.5799       0              0              9.6065909      9.6622999      0.2            92.821762    
      7900   0.18709019     0.001089245    0.001089245    0              0              836.4456       1446.4042      226.26269      0              214.03049      0              0              9.6056262      9.6549277      0.2            92.741626    
      8000   0.20791252     0.0014903481   0.0014903481   0              0              854.04223      1383.1507      324.71467      0              530.7337       0              0              9.6046616      9.6617163      0.2            92.797515    
      8100   0.22290395     0.0014052255   0.0014052255   0              0              509.39489      1596.9613     -578.32982      0             -18.33431       0              0              9.6036969      9.6589357      0.2            92.761491    
      8200   0.26007433     0.0013669367   0.0013669367   0              0              1568.3859      2647.6549      488.9299       0             -384.63666      0              0              9.6027323      9.6504858      0.2            92.671031    
      8300   0.22194478     0.0014402471   0.0014402471   0              0              665.63807      1565.2982     -234.25488      0              58.743115      0              0              9.6017676      9.6567819      0.2            92.722176    
      8400   0.23404683     0.0015597681   0.0015597681   0              0              742.98636      1826.2162     -340.42232      0              281.09847      0              0              9.600803       9.6601066      0.2            92.74478     
      8500   0.21355218     0.0012207717   0.0012207717   0              0              1533.9639      2503.271       564.43836      0              461.73235      0              0              9.5998383      9.6583525      0.2            92.718622    
      8600   0.24235        0.0014022967   0.0014022967   0              0              1470.049       3315.9196     -376.02759      0              26.418874      0              0              9.5988736      9.6674369      0.2            92.796506    
      8700   0.1991054      0.0012510164   0.0012510164   0              0              1131.423       2209.0987      53.564779      0             -315.11869      0              0              9.597909       9.6605774      0.2            92.721343    
      8800   0.18621686     0.0011208181   0.0011208181   0              0              1322.6674      2254.2091      390.9232       0              59.810113      0              0              9.5969443      9.6592413      0.2            92.699201    
      8900   0.17656266     0.0013611956   0.0013611956   0              0              955.57968      2467.613      -556.63376      0             -697.95989      0              0              9.5959797      9.661251       0.2            92.709168    
      9000   0.22750396     0.0012437407   0.0012437407   0              0              1296.7434      2169.3529      423.91682      0             -632.8728       0              0              9.595015       9.6596947      0.2            92.684916    
      9100   0.19784606     0.0016253081   0.0016253081   0              0              1078.8447      2272.3181     -114.88518      0             -1075.0297      0              0              9.5940504      9.6666406      0.2            92.742237    
      9200   0.19019068     0.0015560521   0.0015560521   0              0              890.81034      1922.3541     -140.94578      0             -793.04935      0              0              9.5930857      9.6671525      0.2            92.737822    
      9300   0.20711951     0.0013005779   0.0013005779   0              0              1077.2005      1821.5714      332.64334      0             -1034.2305      0              0              9.5921211      9.6659876      0.2            92.717324    
      9400   0.20030399     0.0013667653   0.0013667653   0              0              711.59892      1758.6809     -335.68348      0             -373.61923      0              0              9.5911564      9.6685602      0.2            92.732674    
      9500   0.22006877     0.0015265992   0.0015265992   0              0              490.88466      923.74727      57.825852      0             -431.3758       0              0              9.5901918      9.667352       0.2            92.71176     
      9600   0.16443881     0.0016347882   0.0016347882   0              0              876.7965       1663.2915      90.087805      0             -553.28828      0              0              9.5892271      9.6693707      0.2            92.721792    
      9700   0.22071931     0.0013846194   0.0013846194   0              0              349.57051      1036.9598     -337.95783      0             -397.85824      0              0              9.5882625      9.6644298      0.2            92.665089    
      9800   0.17501971     0.0014497684   0.0014497684   0              0              1142.0422      2027.7625      256.12012      0             -505.65616      0              0              9.5872978      9.6563937      0.2            92.578722    
      9900   0.16761562     0.0012959114   0.0012959114   0              0              633.12102      1432.163      -166.13071      0             -439.60211      0              0              9.5863332      9.6640158      0.2            92.642475    
     10000   0.21776896     0.0013627638   0.0013627638   0              0              1101.1906      2165.0516      37.14371       0             -415.60567      0              0              9.5853685      9.6649307      0.2            92.641922    
     10100   0.18123053     0.0017386466   0.0017386466   0              0              1325.8055      2544.4017      107.05736      0             -536.43454      0              0              9.5844039      9.6645795      0.2            92.629233    
     10200   0.16074561     0.0016529386   0.0016529386   0              0              1547.6517      3222.4786     -127.36147      0              254.11819      0              0              9.5834392      9.6615703      0.2            92.591072    
     10300   0.18981529     0.0015412227   0.0015412227   0              0              1429.4043      2774.9805      83.630614      0              52.389252      0              0              9.5824745      9.6667424      0.2            92.631313    
     10400   0.18331668     0.0015464475   0.0015464475   0              0              1231.6153      2438.1806      24.863663      0              0.60517339     0              0              9.5815099      9.6740486      0.2            92.691993    
     10500   0.19636216     0.0016067845   0.0016067845   0              0              808.07899      1688.9352     -72.956316      0             -177.45892      0              0              9.5805452      9.6730836      0.2            92.673415    
     10600   0.26204942     0.0016835482   0.0016835482   0              0              1394.5456      2610.6546      178.19318      0              30.034661      0              0              9.5795806      9.6655262      0.2            92.591687    
     10700   0.19563221     0.0017483581   0.0017483581   0              0              872.55025      1775.237      -30.345622      0             -791.06069      0              0              9.5786159      9.6770459      0.2            92.692706    
     10800   0.20613082     0.0019378923   0.0019378923   0              0              1620.9946      3361.909      -120.11744      0              80.752213      0              0              9.5776513      9.6725615      0.2            92.640421    
     10900   0.18409715     0.001763582    0.001763582    0              0              1490.7375      2717.5148      263.72604      0             -287.47707      0              0              9.5766866      9.6756579      0.2            92.660744    
     11000   0.20281087     0.0018241954   0.0018241954   0              0              1649.1268      3514.0208     -215.96003      0              36.324385      0              0              9.575722       9.6759695      0.2            92.654394    
     11100   0.22328284     0.0017545251   0.0017545251   0              0              1458.7452      2773.2824      144.05499      0             -334.69583      0              0              9.5747573      9.6649711      0.2            92.539753    
     11200   0.2271607      0.0019241728   0.0019241728   0              0              1374.6606      2734.3879      14.695267      0             -635.15194      0              0              9.5737927      9.6639426      0.2            92.520582    
     11300   0.20016399     0.0017106422   0.0017106422   0              0              1029.524       2263.8724     -205.00562      0             -371.32908      0              0              9.572828       9.6709758      0.2            92.578588    
     11400   0.21766331     0.0017864562   0.0017864562   0              0              1273.7959      2390.4529      156.92542      0             -628.36871      0              0              9.5718634      9.6779428      0.2            92.635946    
     11500   0.20772612     0.0015906853   0.0015906853   0              0              1507.3966      3018.4175     -3.8296982      0             -435.71452      0              0              9.5708987      9.6792638      0.2            92.639254    
     11600   0.21650846     0.0015864551   0.0015864551   0              0              1850.4231      3633.3477      67.302041      0             -147.1445       0              0              9.5699341      9.6703556      0.2            92.544665    
     11700   0.18650966     0.0018644675   0.0018644675   0              0              1429.4305      2847.4608      11.229883      0              218.14918      0              0              9.5689694      9.6649313      0.2            92.483432    
     11800   0.19803764     0.0016076339   0.0016076339   0              0              1444.2275      2927.8008     -39.549896      0             -112.86614      0              0              9.5680048      9.6730649      0.2            92.551931    
     11900   0.22325793     0.0016945675   0.0016945675   0              0              1720.8011      3406.7999      34.598493      0             -26.211671      0              0              9.5670401      9.6769618      0.2            92.579882    
     12000   0.1826032      0.0018143442   0.0018143442   0              0              1515.7575      3041.5318     -10.245317      0              212.9477       0              0              9.5660755      9.6711468      0.2            92.51492     
     12100   0.19832145     0.0018118681   0.0018118681   0              0              1402.9223      2863.0649     -57.436981      0             -996.4612       0              0              9.5651108      9.6707618      0.2            92.501908    
     12200   0.22264544     0.0016784713   0.0016784713   0              0              1317.0343      2536.0418      97.851916      0             -406.7624       0              0              9.5641461      9.6744613      0.2            92.527962    
     12300   0.21073989     0.0018766457   0.0018766457   0              0              1980.1974      4028.4954     -68.32827       0             -459.58941      0              0              9.5631815      9.6732954      0.2            92.50748     
     12400   0.23250208     0.001770835    0.001770835    0              0              1409.8245      2782.1119      37.326387      0             -494.61554      0              0              9.5622168      9.6798651      0.2            92.56097     
     12500   0.21243311     0.0018062965   0.0018062965   0              0              1925.7868      3723.577       127.81594      0             -505.72075      0              0              9.5612522      9.6750463      0.2            92.505558    
     12600   0.20504828     0.0019736826   0.0019736826   0              0              1461.8004      3169.5489     -246.1562       0              316.11885      0              0              9.5602875      9.6782921      0.2            92.527256    
     12700   0.195702       0.0018749508   0.0018749508   0              0              1881.3606      3526.1811      236.32343      0             -203.36358      0              0              9.5593229      9.672475       0.2            92.462311    
     12800   0.18855972     0.0019606396   0.0019606396   0              0              1779.4728      3637.8292     -79.071476      0             -643.56582      0              0              9.5583582      9.6752742      0.2            92.479737    
     12900   0.28294784     0.0020135541   0.0020135541   0              0              2071.1931      4306.3858     -164.19646      0             -446.7888       0              0              9.5573936      9.6830662      0.2            92.544875    
     13000   0.25372147     0.0016709062   0.0016709062   0              0              2177.6281      3992.3658      362.67625      0             -805.88412      0              0              9.5564289      9.6738071      0.2            92.44705     
     13100   0.25000608     0.0019913847   0.0019913847   0              0              1495.9211      3280.0119     -288.3666       0             -677.5037       0              0              9.5554643      9.6688546      0.2            92.390395    
     13200   0.22648698     0.0017546727   0.0017546727   0              0              1721.2839      3495.7121     -53.350727      0             -969.90352      0              0              9.5544996      9.6686174      0.2            92.378801    
     13300   0.18102492     0.0020217562   0.0020217562   0              0              2022.3958      3650.0369      394.5583       0             -830.57987      0              0              9.553535       9.6621653      0.2            92.307834    
     13400   0.24367507     0.0019388535   0.0019388535   0              0              1452.5768      3598.9261     -694.00427      0              43.901772      0              0              9.5525703      9.6668073      0.2            92.342856    
     13500   0.20618717     0.001814548    0.001814548    0              0              2481.3333      4343.1459      619.33975      0             -242.98839      0              0              9.5516057      9.6644028      0.2            92.310564    
     13600   0.24467937     0.0020381328   0.0020381328   0              0              1754.559       3702.0232     -193.10248      0             -924.62015      0              0              9.550641       9.6739818      0.2            92.392728    
     13700   0.2370885      0.0017326765   0.0017326765   0              0              1184.7138      2858.4633     -489.27146      0             -479.41032      0              0              9.5496764      9.6751806      0.2            92.394844    
     13800   0.25069917     0.0021019323   0.0021019323   0              0              2713.5524      4457.1124      969.78426      0             -605.36245      0              0              9.5487117      9.6659724      0.2            92.297584    
     13900   0.22862216     0.0020882984   0.0020882984   0              0              1067.0162      3106.4389     -972.63319      0             -929.52858      0              0              9.5477471      9.6731862      0.2            92.357135    
     14000   0.20475866     0.0020920958   0.0020920958   0              0              2117.9981      3606.9788      628.7784       0              56.67177       0              0              9.5467824      9.6644971      0.2            92.264851    
     14100   0.27420864     0.0021231396   0.0021231396   0              0              1617.9366      3161.7089      73.952352      0             -825.5647       0              0              9.5458177      9.673243       0.2            92.339015    
     14200   0.20852891     0.0021263536   0.0021263536   0              0              1237.3647      3311.2491     -836.75285      0             -608.02738      0              0              9.5448531      9.6745139      0.2            92.341814    
     14300   0.22411578     0.0020421075   0.0020421075   0              0              2399.9973      3482.8571      1316.9735      0              95.750819      0              0              9.5438884      9.661171       0.2            92.205138    
     14400   0.19611802     0.002269906    0.002269906    0              0              680.97106      2608.2943     -1246.5782      0              116.56595      0              0              9.5429238      9.671303       0.2            92.292508    
     14500   0.21751855     0.0021446376   0.0021446376   0              0              1876.4496      3215.3351      537.36662      0             -435.09418      0              0              9.5419591      9.6650055      0.2            92.223087    
     14600   0.20440639     0.0020657302   0.0020657302   0              0              2442.4528      4363.6267      521.10456      0             -657.12313      0              0              9.5409945      9.6656242      0.2            92.219667    
     14700   0.18741414     0.0022284625   0.0022284625   0              0              947.37243      3121.9334     -1227.3979      0             -49.64593       0              0              9.5400298      9.6838561      0.2            92.384276    
     14800   0.21988517     0.001933224    0.001933224    0              0              2515.6725      3683.3438      1347.832       0             -440.403        0              0              9.5390652      9.6792581      0.2            92.331073    
     14900   0.17431838     0.0021507025   0.0021507025   0              0              1038.6454      3235.2518     -1158.1806      0             -192.48935      0              0              9.5381005      9.684557       0.2            92.372279    
     15000   0.1748106      0.0021825887   0.0021825887   0              0              1992.6905      3513.0918      472.09204      0             -768.01192      0              0              9.5371359      9.683707       0.2            92.354829    
     15100   0.18619609     0.0020607264   0.0020607264   0              0              2268.0381      4173.5275      362.3428       0             -480.06109      0              0              9.5361712      9.6751438      0.2            92.263828    
     15200   0.1882653      0.0021208843   0.0021208843   0              0              1796.3237      4446.5302     -854.11563      0             -425.99931      0              0              9.5352066      9.6779981      0.2            92.281711    
     15300   0.22170686     0.0021179838   0.0021179838   0              0              2481.2625      3900.07        1062.2543      0             -356.56486      0              0              9.5342419      9.6631182      0.2            92.130507    
     15400   0.17464191     0.0022411617   0.0022411617   0              0              1149.6829      3227.095      -927.90409      0             -960.86857      0              0              9.5332773      9.6743558      0.2            92.228317    
     15500   0.19794703     0.0026317759   0.0026317759   0              0              1948.4616      3452.8591      443.86058      0             -369.60732      0              0              9.5323126      9.6671674      0.2            92.150462    
     15600   0.20038576     0.0025620436   0.0025620436   0              0              2024.1007      3925.4815      122.4993       0             -540.19443      0              0              9.531348       9.6745383      0.2            92.211391    
     15700   0.18674828     0.0024434834   0.0024434834   0              0              1257.4107      3057.0361     -542.4111       0             -268.07025      0              0              9.5303833      9.6718787      0.2            92.176711    
     15800   0.20291792     0.0024970835   0.0024970835   0              0              2665.8897      4458.8943      872.68274      0             -316.31527      0              0              9.5294186      9.6663778      0.2            92.114961    
     15900   0.17652446     0.0025194227   0.0025194227   0              0              1148.8058      2984.6558     -687.23434      0             -473.41982      0              0              9.528454       9.676068       0.2            92.197968    
     16000   0.17244524     0.0027730427   0.0027730427   0              0              2457.1141      4393.9698      520.03556      0             -477.42245      0              0              9.5274893      9.6691724      0.2            92.122937    
     16100   0.19787049     0.0026581895   0.0026581895   0              0              2159.626       4436.6812     -117.60931      0             -383.59553      0              0              9.5265247      9.6727732      0.2            92.147913    
     16200   0.18892296     0.002698709    0.002698709    0              0              2113.3694      4423.9353     -197.41736      0             -1038.0945      0              0              9.52556        9.6798667      0.2            92.206151    
     16300   0.22898025     0.0027515593   0.0027515593   0              0              2595.1001      4634.4842      555.48405      0             -635.2031       0              0              9.5245954      9.6765684      0.2            92.165398    
     16400   0.20927572     0.0029914546   0.0029914546   0              0              2369.002       5467.9797     -730.1967       0             -615.82063      0              0              9.5236307      9.6770336      0.2            92.160494    
     16500   0.17924646     0.002842895    0.002842895    0              0              2063.929       3532.5265      595.11295      0             -363.98224      0              0              9.5226661      9.6692326      0.2            92.076873    
     16600   0.20191163     0.0028742336   0.0028742336   0              0              1901.5641      4041.0237     -238.07323      0             -30.5193        0              0              9.5217014      9.6684864      0.2            92.060441    
     16700   0.18767169     0.0027675496   0.0027675496   0              0              2004.7968      4053.1358     -43.776263      0             -307.01716      0              0              9.5207368      9.6741307      0.2            92.104852    
     16800   0.18791416     0.0027574651   0.0027574651   0              0              2358.1239      4345.4289      370.61196      0             -178.61148      0              0              9.5197721      9.6750532      0.2            92.104302    
     16900   0.24222102     0.0029789608   0.0029789608   0              0              1875.5818      4367.5329     -616.57934      0             -55.398087      0              0              9.5188075      9.6769554      0.2            92.113075    
     17000   0.18188959     0.0025919247   0.0025919247   0              0              2510.9305      4304.2653      717.36924      0              285.81909      0              0              9.5178428      9.6665065      0.2            92.004289    
     17100   0.20408481     0.0029250187   0.0029250187   0              0              1771.554       4227.5647     -684.62562      0              85.425088      0              0              9.5168782      9.6700385      0.2            92.028579    
     17200   0.18397555     0.0028178637   0.0028178637   0              0              2916.567       5293.309       539.6122       0             -454.09974      0              0              9.5159135      9.6678012      0.2            91.99796     
     17300   0.20862683     0.0029009295   0.0029009295   0              0              2784.0381      5758.6935     -190.84375      0             -261.25241      0              0              9.5149489      9.6638725      0.2            91.951252    
     17400   0.20951609     0.002896295    0.002896295    0              0              2567.2555      5302.882      -168.59667      0             -260.49795      0              0              9.5139842      9.6708845      0.2            92.008642    
     17500   0.20593587     0.0026375853   0.0026375853   0              0              3038.426       5469.0339      607.62165      0             -854.10656      0              0              9.5130196      9.6657035      0.2            91.950027    
     17600   0.22780335     0.0029270595   0.0029270595   0              0              2442.2586      5738.5259     -854.15156      0             -442.84403      0              0              9.5120549      9.6752301      0.2            92.03132     
     17700   0.22932565     0.0026330489   0.0026330489   0              0              3189.6224      5387.9021      991.11744      0             -607.38112      0              0              9.5110902      9.6703499      0.2            91.975571    
     17800   0.20653787     0.0031661195   0.0031661195   0              0              1549.6031      3903.4257     -804.44897      0             -300.26675      0              0              9.5101256      9.6891868      0.2            92.145383    
     17900   0.21082089     0.003051989    0.003051989    0              0              2576.3208      4784.2604      368.19715      0             -169.5237       0              0              9.5091609      9.6854014      0.2            92.100041    
     18000   0.21928166     0.0029605455   0.0029605455   0              0              2459.6898      4853.8228      65.36428       0             -258.97189      0              0              9.5081963      9.6857187      0.2            92.093715    
     18100   0.19021818     0.0029843274   0.0029843274   0              0              2483.1331      5390.9448     -424.85061      0             -628.31564      0              0              9.5072316      9.6909431      0.2            92.13404     
     18200   0.18729533     0.003169957    0.003169957    0              0              3113.2971      5611.1317      615.23048      0             -1100.3164      0              0              9.506267       9.6818861      0.2            92.038594    
     18300   0.19906147     0.003010554    0.003010554    0              0              2429.6646      5404.3971     -545.27385      0             -444.50721      0              0              9.5053023      9.6832122      0.2            92.04186     
     18400   0.21688336     0.003153699    0.003153699    0              0              3280.114       5903.6358      656.37691      0             -323.22999      0              0              9.5043377      9.6788169      0.2            91.990744    
     18500   0.21241585     0.0031461102   0.0031461102   0              0              2093.4453      4514.6468     -327.94715      0             -420.8946       0              0              9.503373       9.6913882      0.2            92.100877    
     18600   0.24425804     0.0028334017   0.0028334017   0              0              2011.7873      4080.5926     -57.238837      0             -772.83797      0              0              9.5024084      9.6932441      0.2            92.109163    
     18700   0.22640196     0.0029470291   0.0029470291   0              0              2746.262       5307.607       184.69673      0             -572.96083      0              0              9.5014437      9.6919021      0.2            92.087062    
     18800   0.29058087     0.0031199431   0.0031199431   0              0              2347.9287      4929.184      -233.56697      0             -817.8488       0              0              9.5004791      9.6933832      0.2            92.091784    
     18900   0.20888443     0.0032251936   0.0032251936   0              0              3081.4162      5923.9972      238.59799      0             -554.33444      0              0              9.4995144      9.6921073      0.2            92.070313    
     19000   0.19095807     0.0032384357   0.0032384357   0              0              2092.7511      4437.1679     -251.85451      0             -961.75477      0              0              9.4985498      9.6860361      0.2            92.003296    
     19100   0.22569876     0.0030091667   0.0030091667   0              0              2500.5838      4770.1388      230.82204      0             -944.57816      0              0              9.4975851      9.6835098      0.2            91.969958    
     19200   0.19933011     0.0030887695   0.0030887695   0              0              2955.4162      5843.1911      67.444444      0             -638.26007      0              0              9.4966205      9.6816652      0.2            91.9431      
     19300   0.2317701      0.0031719053   0.0031719053   0              0              3058.7516      6193.7486     -76.433937      0             -1214.6464      0              0              9.4956558      9.6861084      0.2            91.975951    
     19400   0.22292131     0.0031523422   0.0031523422   0              0              2436.0556      4681.4974      190.42548      0             -968.087        0              0              9.4946911      9.6844886      0.2            91.951228    
     19500   0.1838717      0.0031484081   0.0031484081   0              0              2907.3193      6060.5785     -246.14784      0             -398.0104       0              0              9.4937265      9.6868603      0.2            91.964403    
     19600   0.17122334     0.0030850882   0.0030850882   0              0              3046.8227      5890.6767      202.77378      0             -140.12154      0              0              9.4927618      9.6878081      0.2            91.964055    
     19700   0.17400095     0.0033783807   0.0033783807   0              0              2743.5314      5490.614      -3.7257784      0             -511.01418      0              0              9.4917972      9.6896976      0.2            91.972644    
     19800   0.21347426     0.003321912    0.003321912    0              0              2261.0213      4719.0635     -197.22999      0              343.63724      0              0              9.4908325      9.6917428      0.2            91.982708    
     19900   0.19776995     0.0031310602   0.0031310602   0              0              2009.1077      3766.4423      251.56961      0              205.02004      0              0              9.4898679      9.6797555      0.2            91.859601    
     20000   0.20897849     0.0031136369   0.0031136369   0              0              1900.127       4088.0344     -287.99942      0             -632.12966      0              0              9.4889032      9.6807916      0.2            91.860095    
     20100   0.22632389     0.0030367183   0.0030367183   0              0              2601.9323      5011.7245      191.90849      0             -910.14809      0              0              9.4879386      9.6797141      0.2            91.840533    
     20200   0.21086797     0.0031278139   0.0031278139   0              0              2028.9338      4092.0013     -34.353649      0             -608.77966      0              0              9.4869739      9.6849913      0.2            91.88126     
     20300   0.22293599     0.0031627147   0.0031627147   0              0              2200.4358      4505.0172     -104.33983      0             -584.29172      0              0              9.4860093      9.6926399      0.2            91.944472    
     20400   0.20966979     0.0033171419   0.0033171419   0              0              2357.4338      4645.3105      69.366666      0             -96.184664      0              0              9.4850446      9.6891907      0.2            91.902406    
     20500   0.1801129      0.0033564046   0.0033564046   0              0              2540.444       5210.9539     -130.22725      0             -647.67855      0              0              9.48408        9.6880462      0.2            91.882205    
     20600   0.20648642     0.0032827828   0.0032827828   0              0              2380.0873      4543.3775      216.62335      0             -795.13788      0              0              9.4831153      9.6915488      0.2            91.906075    
     20700   0.23223294     0.0032764805   0.0032764805   0              0              2299.0171      4844.3687     -246.52752      0             -811.65132      0              0              9.4821507      9.6933419      0.2            91.913728    
     20800   0.21378627     0.003518345    0.003518345    0              0              3263.0513      6357.3022      168.61354      0             -166.35983      0              0              9.481186       9.6893732      0.2            91.86675     
     20900   0.24522647     0.0034835408   0.0034835408   0              0              2441.6753      4941.2686     -58.141719      0             -881.3924       0              0              9.4802214      9.6945688      0.2            91.906658    
     21000   0.19989066     0.0035125362   0.0035125362   0              0              2691.947       5502.5113     -118.79973      0             -922.06276      0              0              9.4792567      9.6955614      0.2            91.906716    
     21100   0.19031796     0.003396977    0.003396977    0              0              3222.082       6138.14        305.81532      0             -728.16597      0              0              9.4782921      9.6946423      0.2            91.888651    
     21200   0.19377074     0.0034290855   0.0034290855   0              0              2515.2325      5356.8982     -326.60738      0             -1302.4832      0              0              9.4773274      9.6955893      0.2            91.888275    
     21300   0.22826805     0.0033198854   0.0033198854   0              0              2681.7422      5154.727       208.52944      0             -587.0662       0              0              9.4763627      9.6928575      0.2            91.853034    
     21400   0.17419094     0.0033072697   0.0033072697   0              0              2764.4407      5556.363      -27.693878      0             -584.05981      0              0              9.4753981      9.6942238      0.2            91.85663     
     21500   0.21227557     0.0033099534   0.0033099534   0              0              2703.7899      5551.418      -144.06312      0             -206.25683      0              0              9.4744334      9.6836469      0.2            91.747068    
     21600   0.20485284     0.0033051496   0.0033051496   0              0              2530.1122      4929.9072      130.12247      0             -1188.2346      0              0              9.4734688      9.6851957      0.2            91.752399    
     21700   0.21999267     0.0033665805   0.0033665805   0              0              3289.5459      6922.7543     -343.86178      0             -1693.9494      0              0              9.4725041      9.6833655      0.2            91.72572     
     21800   0.2176415      0.0034331593   0.0034331593   0              0              2747.3237      4882.4865      611.97321      0             -840.44887      0              0              9.4715395      9.6820989      0.2            91.704382    
     21900   0.22326109     0.0033537969   0.0033537969   0              0              1966.1615      4546.9491     -614.80505      0             -145.97891      0              0              9.4705748      9.6919125      0.2            91.787982    
     22000   0.18761109     0.0032919834   0.0032919834   0              0              3373.1978      6186.5384      559.64775      0             -738.53401      0              0              9.4696102      9.6829084      0.2            91.693368    
     22100   0.21024057     0.0033379686   0.0033379686   0              0              1920.0394      4366.641      -526.76885      0             -1013.6391      0              0              9.4686455      9.6924044      0.2            91.773941    
     22200   0.2412048      0.0032710241   0.0032710241   0              0              2695.1332      5070.2377      319.81986      0             -643.25249      0              0              9.4676809      9.6942289      0.2            91.781865    
     22300   0.23080979     0.0031893014   0.0031893014   0              0              2723.2099      5481.4084     -35.176535      0             -81.041053      0              0              9.4667162      9.701123       0.2            91.837778    
     22400   0.26392718     0.0032573316   0.0032573316   0              0              2308.1602      4953.5141     -337.37502      0             -540.55526      0              0              9.4657516      9.6940375      0.2            91.761351    
     22500   0.19339658     0.0034004104   0.0034004104   0              0              2997.7991      5230.0628      765.36214      0             -494.89895      0              0              9.4647869      9.6854134      0.2            91.670374    
     22600   0.18833788     0.0032028147   0.0032028147   0              0              2420.1561      5987.2156     -1147.1186      0             -323.91397      0              0              9.4638223      9.6926714      0.2            91.72972     
     22700   0.21722854     0.003213168    0.003213168    0              0              3799.159       6404.7918      1193.2982      0             -66.056995      0              0              9.4628576      9.6787656      0.2            91.58878     
     22800   0.20645538     0.0031516957   0.0031516957   0              0              2208.8028      5481.9508     -1064.547       0             -60.879604      0              0              9.461893       9.6912594      0.2            91.697659    
     22900   0.19366145     0.0034085703   0.0034085703   0              0              3198.223       5508.9065      887.31189      0              15.472555      0              0              9.4609283      9.6821182      0.2            91.601826    
     23000   0.21501509     0.0036751834   0.0036751834   0              0              2413.8418      5187.0125     -359.482        0             -760.10714      0              0              9.4599637      9.6889982      0.2            91.657571    
     23100   0.1785962      0.0036899483   0.0036899483   0              0              2485.5985      5126.6398     -155.64264      0             -105.83009      0              0              9.458999       9.6910904      0.2            91.668014    
     23200   0.18387619     0.0032298215   0.0032298215   0              0              2683.9469      4707.3963      660.31272      0             -42.794655      0              0              9.4580343      9.6834161      0.2            91.586082    
     23300   0.20995976     0.0034861309   0.0034861309   0              0              2244.2883      5697.1593     -1208.7693      0             -455.08668      0              0              9.4570697      9.6930231      0.2            91.667595    
     23400   0.20128719     0.0036103505   0.0036103505   0              0              3311.0215      5327.1329      1294.6828      0              5.6602564      0              0              9.456105       9.6907467      0.2            91.636719    
     23500   0.22247467     0.0035230857   0.0035230857   0              0              2228.5315      5795.5603     -1338.681       0             -237.35113      0              0              9.4551404      9.6988574      0.2            91.704059    
     23600   0.20060253     0.0036222272   0.0036222272   0              0              3797.2423      6392.3974      1201.8679      0             -231.07666      0              0              9.4541757      9.6856326      0.2            91.569673    
     23700   0.2436811      0.0034436441   0.0034436441   0              0              1626.3318      4249.5186     -997.06769      0             -610.33112      0              0              9.4532111      9.699531       0.2            91.691713    
     23800   0.21028032     0.0034119206   0.0034119206   0              0              3038.323       5254.6857      821.80034      0             -966.82483      0              0              9.4522464      9.6882409      0.2            91.575641    
     23900   0.19751344     0.0032944085   0.0032944085   0              0              1735.475       4054.2344     -583.45268      0             -585.72531      0              0              9.4512818      9.6936302      0.2            91.617231    
     24000   0.21030109     0.00370525     0.00370525     0              0              2839.6084      5341.2071      337.78698      0              171.63093      0              0              9.4503171      9.6959616      0.2            91.629912    
     24100   0.18740945     0.0034585121   0.0034585121   0              0              2412.2841      4864.1986     -39.824549      0             -810.86831      0              0              9.4493525      9.7029735      0.2            91.686817    
     24200   0.15627235     0.0034946413   0.0034946413   0              0              2128.6141      4524.6273     -267.59689      0             -501.83935      0              0              9.4483878      9.7055842      0.2            91.702123    
     24300   0.18943312     0.003481721    0.003481721    0              0              2830.4451      5441.6426      219.04257      0             -204.17315      0              0              9.4474232      9.7014387      0.2            91.653596    
     24400   0.18726558     0.0034074285   0.0034074285   0              0              2712.309       5809.3453     -384.93662      0             -267.84976      0              0              9.4464585      9.6940406      0.2            91.574352    
     24500   0.18369696     0.0036817571   0.0036817571   0              0              3355.8137      6228.988       482.47838      0              251.95285      0              0              9.4454939      9.6868775      0.2            91.497342    
     24600   0.21867151     0.0034601124   0.0034601124   0              0              2162.8614      4712.0909     -386.55226      0             -44.56522       0              0              9.4445292      9.6937321      0.2            91.552736    
     24700   0.23376458     0.003396639    0.003396639    0              0              2896.82        5372.2         421.22036      0              168.96471      0              0              9.4435646      9.6896245      0.2            91.504594    
     24800   0.20758437     0.0037161793   0.0037161793   0              0              2576.2387      5453.239      -300.95219      0             -75.962776      0              0              9.4425999      9.6918178      0.2            91.515958    
     24900   0.19454499     0.0033487889   0.0033487889   0              0              1743.6036      3320.7747      166.22722      0             -200.71778      0              0              9.4416352      9.6986263      0.2            91.570892    
     25000   0.18875256     0.0035657163   0.0035657163   0              0              2509.3318      5076.5481     -58.071456      0             -235.23226      0              0              9.4406706      9.7042379      0.2            91.614514    
     25100   0.16622609     0.0034470935   0.0034470935   0              0              2814.3158      5633.9902     -5.5920723      0             -486.15863      0              0              9.4397059      9.6993724      0.2            91.559223    
     25200   0.20401496     0.0036051837   0.0036051837   0              0              2463.975       4811.2293      116.53182      0             -710.40335      0              0              9.4387413      9.6985991      0.2            91.542568    
     25300   0.24008064     0.0034546836   0.0034546836   0              0              2837.8957      6006.3815     -330.76067      0              536.13634      0              0              9.4377766      9.6942541      0.2            91.492205    
     25400   0.2163708      0.0039219509   0.0039219509   0              0              2370.2177      4301.1858      439.05126      0              343.00702      0              0              9.436812       9.692213       0.2            91.463592    
     25500   0.2300508      0.0037886005   0.0037886005   0              0              1454.7753      3495.8955     -586.54809      0             -608.83373      0              0              9.4358473      9.7037454      0.2            91.56306     
     25600   0.19116275     0.0036221761   0.0036221761   0              0              3223.3234      5892.4413      553.95038      0             -350.93749      0              0              9.4348827      9.6925985      0.2            91.44853     
     25700   0.17355942     0.0038430805   0.0038430805   0              0              2150.2551      4809.1265     -508.75625      0             -240.72595      0              0              9.433918       9.6969762      0.2            91.480478    
     25800   0.16249686     0.0037210306   0.0037210306   0              0              3070.6396      5617.1555      523.94252      0              98.529184      0              0              9.4329534      9.6906405      0.2            91.41136     
     25900   0.19011649     0.0035703423   0.0035703423   0              0              2346.3196      5144.0016     -451.57178      0              25.082853      0              0              9.4319887      9.6985472      0.2            91.476588    
     26000   0.21465579     0.0037736481   0.0037736481   0              0              2667.9875      4889.4448      446.35564      0              418.0939       0              0              9.4310241      9.6927132      0.2            91.412212    
     26100   0.22581835     0.0035761161   0.0035761161   0              0              1963.2498      4178.5811     -252.31         0             -103.15786      0              0              9.4300594      9.6926977      0.2            91.402715    
     26200   0.18699333     0.0038269557   0.0038269557   0              0              2134.1096      4202.4609      65.579035      0             -643.00831      0              0              9.4290948      9.6840274      0.2            91.311612    
     26300   0.22236163     0.0037939359   0.0037939359   0              0              2397.6365      4644.2428      150.83007      0              407.03588      0              0              9.4281301      9.6882277      0.2            91.341871    
     26400   0.18375086     0.0038929111   0.0038929111   0              0              2391.8077      5146.5166     -363.1289       0              425.89983      0              0              9.4271655      9.6886614      0.2            91.336614    
     26500   0.22299875     0.0037783023   0.0037783023   0              0              3153.8505      5748.6404      558.79552      0              300.8256       0              0              9.4262008      9.6860905      0.2            91.303034    
     26600   0.1845503      0.0038713025   0.0038713025   0              0              2293.3275      5219.3204     -632.87511      0              837.51418      0              0              9.4252362      9.6923715      0.2            91.35289     
     26700   0.17762684     0.0037745195   0.0037745195   0              0              2953.5279      5118.8719      787.97302      0              230.49251      0              0              9.4242715      9.6851663      0.2            91.275637    
     26800   0.15138275     0.0038659992   0.0038659992   0              0              1599.0319      4121.2811     -923.41481      0             -133.45396      0              0              9.4233068      9.6897683      0.2            91.30966     
     26900   0.16838252     0.003705417    0.003705417    0              0              3600.3828      6249.5891      950.97998      0              489.0907       0              0              9.4223422      9.6823026      0.2            91.229969    
     27000   0.23303308     0.0036622995   0.0036622995   0              0              1867.4514      4638.7597     -904.04208      0              207.98221      0              0              9.4213775      9.6849639      0.2            91.245702    
     27100   0.25365897     0.0040102325   0.0040102325   0              0              3304.5814      5754.201       854.78154      0             -119.71474      0              0              9.4204129      9.6769855      0.2            91.161199    
     27200   0.21196182     0.0039940113   0.0039940113   0              0              2586.5675      5894.1712     -721.25613      0             -18.340152      0              0              9.4194482      9.6908234      0.2            91.28221     
     27300   0.23083297     0.0039418864   0.0039418864   0              0              3009.0362      5500.6288      517.24567      0              698.42102      0              0              9.4184836      9.6833747      0.2            91.202706    
     27400   0.21508509     0.0039370674   0.0039370674   0              0              1753.4657      3618.0816     -111.34338      0             -210.8596       0              0              9.4175189      9.6834643      0.2            91.194208    
     27500   0.22533798     0.0039849211   0.0039849211   0              0              1673.736       3554.9746     -207.70202      0              284.76993      0              0              9.4165543      9.6850493      0.2            91.199793    
     27600   0.23239867     0.0038931803   0.0038931803   0              0              2615.3134      4692.2618      538.15263      0             -444.30474      0              0              9.4155896      9.6771485      0.2            91.116059    
     27700   0.24403272     0.0040995215   0.0040995215   0              0              2390.4927      5613.1541     -832.35032      0             -431.32387      0              0              9.414625       9.6836724      0.2            91.168144    
     27800   0.24514641     0.0039828019   0.0039828019   0              0              2561.2818      3971.9077      1150.4311      0              502.45099      0              0              9.4136603      9.6758487      0.2            91.085153    
     27900   0.18317728     0.0041454211   0.0041454211   0              0              1820.9028      4880.8671     -1239.2864      0              450.49753      0              0              9.4126957      9.6857385      0.2            91.168909    
     28000   0.25071242     0.0041632704   0.0041632704   0              0              3438.1394      5634.842       1241.2282      0              355.18372      0              0              9.411731       9.6776853      0.2            91.083771    
     28100   0.20340499     0.004008755    0.004008755    0              0              1321.7776      3784.2723     -1140.9326      0              363.93719      0              0              9.4107664      9.688521       0.2            91.176407    
     28200   0.20619637     0.0041016816   0.0041016816   0              0              2347.1212      3750.0305      943.99716      0             -176.22128      0              0              9.4098017      9.6771906      0.2            91.060445    
     28300   0.24223417     0.0039862358   0.0039862358   0              0              1555.8072      3927.684      -816.26857      0              52.264943      0              0              9.4088371      9.6847447      0.2            91.122185    
     28400   0.18753077     0.0038771365   0.0038771365   0              0              2379.6204      4172.442       586.57265      0              916.43386      0              0              9.4078724      9.6821815      0.2            91.088728    
     28500   0.18961142     0.0038945592   0.0038945592   0              0              2233.0727      4930.7833     -464.8286       0              491.00767      0              0              9.4069077      9.6762118      0.2            91.023232    
     28600   0.23550297     0.0036828981   0.0036828981   0              0              2166.6415      4158.9294      174.17494      0             -109.84856      0              0              9.4059431      9.6800167      0.2            91.049686    
     28700   0.17239932     0.0039437288   0.0039437288   0              0              2553.9017      5100.6357      6.9252647      0              320.67406      0              0              9.4049784      9.6813198      0.2            91.052604    
     28800   0.20221563     0.0038691246   0.0038691246   0              0              1770.4464      3872.9785     -332.31799      0              522.62969      0              0              9.4040138      9.6740829      0.2            90.975209    
     28900   0.23287879     0.0037272721   0.0037272721   0              0              2976.7355      5443.4428      509.80985      0             -65.35809       0              0              9.4030491      9.6700782      0.2            90.928221    
     29000   0.17810798     0.0035657673   0.0035657673   0              0              2101.0799      4706.0574     -504.11318      0             -478.36674      0              0              9.4020845      9.6830765      0.2            91.041104    
     29100   0.16467138     0.0040037869   0.0040037869   0              0              2676.4992      4783.7906      568.99188      0              76.713272      0              0              9.4011198      9.6723508      0.2            90.930929    
     29200   0.171437       0.0038297428   0.0038297428   0              0              2487.6113      5593.191      -618.20384      0             -200.15093      0              0              9.4001552      9.6810032      0.2            91.002932    
     29300   0.24576732     0.0037865262   0.0037865262   0              0              2519.5805      4497.3719      541.60164      0              276.81469      0              0              9.3991905      9.6785631      0.2            90.970658    
     29400   0.19465765     0.0042233262   0.0042233262   0              0              2193.0628      4912.6572     -526.75015      0             -68.108436      0              0              9.3982259      9.680341       0.2            90.978031    
     29500   0.19310197     0.0041251091   0.0041251091   0              0              2980.5081      5538.2443      422.56929      0             -168.48358      0              0              9.3972612      9.679903       0.2            90.964577    
     29600   0.19126821     0.0040347352   0.0040347352   0              0              2301.4574      4938.8936     -336.16666      0             -1110.9474      0              0              9.3962966      9.688102       0.2            91.03228     
     29700   0.19235324     0.0040124061   0.0040124061   0              0              2399.6928      4642.6933      156.46715      0             -930.38492      0              0              9.3953319      9.6824673      0.2            90.969994    
     29800   0.19291025     0.0040544041   0.0040544041   0              0              2555.714       5166.9066     -55.684986      0             -1182.5453      0              0              9.3943673      9.6821348      0.2            90.957531    
     29900   0.19388349     0.0038471154   0.0038471154   0              0              1921.4755      4049.0101     -206.27976      0             -1709.7729      0              0              9.3934026      9.6819219      0.2            90.946191    
     30000   0.19568183     0.0038698319   0.0038698319   0              0              2401.8501      4350.3989      453.11299      0             -1480.5058      0              0              9.392438       9.6766693      0.2            90.887516    
     30100   0.18835045     0.0038762658   0.0038762658   0              0              2310.6159      5356.3308     -735.30047      0             -368.47699      0              0              9.3914733      9.6852495      0.2            90.958762    
     30200   0.20464808     0.0041527575   0.0041527575   0              0              3187.9883      5515.9431      859.84524      0             -74.042172      0              0              9.3905087      9.6705382      0.2            90.811273    
     30300   0.17840899     0.0040124363   0.0040124363   0              0              2388.8812      5667.2894     -889.72368      0             -63.462856      0              0              9.389544       9.6808306      0.2            90.898584    
     30400   0.20482129     0.0039325522   0.0039325522   0              0              2852.1566      4768.7347      935.35076      0             -815.82083      0              0              9.3885793      9.6697251      0.2            90.784982    
     30500   0.19175385     0.0039448042   0.0039448042   0              0              1621.173       4243.4357     -1001.2752      0             -405.95866      0              0              9.3876147      9.6774877      0.2            90.848526    
     30600   0.20887103     0.0038644166   0.0038644166   0              0              3175.8695      5481.2691      870.2973       0             -413.91438      0              0              9.38665        9.6726757      0.2            90.794022    
     30700   0.18054668     0.0037799337   0.0037799337   0              0              2070.3863      4870.5892     -730.08122      0              109.56811      0              0              9.3856854      9.6793314      0.2            90.847159    
[...]
     46400   0.18529708     0.002065174    0.002065174    0              0              1172.5651      1311.9898      1032.9462      0              274.20977      0              0              9.2342349      9.6181665      0.2            88.816409    
     46500   0.21024998     0.0019606234   0.0019606234   0              0              78.261739      854.62846     -698.30066      0             -659.79924      0              0              9.2332703      9.6268177      0.2            88.88701     
     46600   0.16738389     0.0021523853   0.0021523853   0              0              599.73019      919.77163      279.50588      0             -667.32877      0              0              9.2323056      9.6257181      0.2            88.867572    
     46700   0.19021545     0.0019659659   0.0019659659   0              0              789.52837      1420.7423      158.06461      0             -277.98069      0              0              9.2313409      9.6247551      0.2            88.849396    
     46800   0.21025974     0.0020569868   0.0020569868   0              0              479.36866      1508.0946     -549.58249      0             -807.82279      0              0              9.2303763      9.6266692      0.2            88.857779    
     46900   0.18790751     0.0022932512   0.0022932512   0              0              1352.3989      1966.3595      738.19742      0             -528.2331       0              0              9.2294116      9.6124901      0.2            88.717628    
     47000   0.22364329     0.0020298926   0.0020298926   0              0             -74.160253      553.67115     -702.20303      0             -400.16308      0              0              9.228447       9.6256259      0.2            88.829578    
     47100   0.20463625     0.0020723053   0.0020723053   0              0              801.78021      1058.8572      544.50944      0              252.21229      0              0              9.2274823      9.620938       0.2            88.777035    
     47200   0.23327772     0.0022703341   0.0022703341   0              0              217.1294       680.51115     -246.44486      0              538.52116      0              0              9.2265177      9.6163952      0.2            88.72584     
     47300   0.2466323      0.0018785209   0.0018785209   0              0              841.51019      1758.5354     -75.749333      0             -9.8569927      0              0              9.225553       9.622367       0.2            88.771657    
     47400   0.20665968     0.001956109    0.001956109    0              0              804.90771      1164.9289      444.68837      0             -283.73482      0              0              9.2245884      9.616971       0.2            88.712599    
     47500   0.22567712     0.0020555876   0.0020555876   0              0              238.83203      1149.6561     -672.19004      0             -196.32788      0              0              9.2236237      9.6128421      0.2            88.665238    
     47600   0.23348659     0.0020962265   0.0020962265   0              0              1387.7265      2038.5561      736.68532      0             -720.96193      0              0              9.2226591      9.6127443      0.2            88.655064    
     47700   0.2009094      0.0020526746   0.0020526746   0              0              472.44797      1470.6187     -525.90885      0              811.2355       0              0              9.2216944      9.61084        0.2            88.62823     
     47800   0.19436099     0.0018206148   0.0018206148   0              0              416.82208      696.72197      136.70845      0              432.47156      0              0              9.2207298      9.6056353      0.2            88.570968    
     47900   0.16281448     0.0018374502   0.0018374502   0              0              257.06622      147.6518       366.33302      0              441.65239      0              0              9.2197651      9.6040126      0.2            88.546741    
     48000   0.19042085     0.0016148055   0.0016148055   0              0             -442.71105     -337.17379     -548.50915      0              55.231188      0              0              9.2188005      9.6102915      0.2            88.595359    
     48100   0.208103       0.0019366887   0.0019366887   0              0              979.92446      1400.7443      558.86984      0             -151.0975       0              0              9.2178358      9.6036561      0.2            88.524925    
     48200   0.20052989     0.0018957034   0.0018957034   0              0              82.100059      350.80337     -186.79546      0             -139.50643      0              0              9.2168712      9.6102043      0.2            88.576015    
     48300   0.22739958     0.0020167165   0.0020167165   0              0             -277.5638      -237.68722     -317.63798      0              331.48864      0              0              9.2159065      9.5999044      0.2            88.471821    
     48400   0.1974194      0.0016553138   0.0016553138   0              0              1426.8799      2225.7569      627.82085      0             -202.42098      0              0              9.2149419      9.6011278      0.2            88.473835    
     48500   0.19980471     0.0021043953   0.0021043953   0              0              211.30832      1032.3537     -609.94412      0              92.960514      0              0              9.2139772      9.6164253      0.2            88.605523    
     48600   0.23165067     0.0019557667   0.0019557667   0              0             -406.44445     -1330.6302      517.56602      0             -832.30183      0              0              9.2130125      9.6094914      0.2            88.532365    
     48700   0.19874379     0.0018383042   0.0018383042   0              0              256.08866      772.93298     -261.00927      0             -882.69484      0              0              9.2120479      9.6092861      0.2            88.521204    
     48800   0.25764681     0.0019725785   0.0019725785   0              0             -25.46474       124.41037     -175.55952      0              186.73161      0              0              9.2110832      9.6129755      0.2            88.545917    
     48900   0.17812758     0.0015678953   0.0015678953   0              0              744.04558      877.90796      609.99219      0              5.4715792      0              0              9.2101186      9.6078643      0.2            88.489569    
     49000   0.14880675     0.0015598289   0.0015598289   0              0             -254.99885     -6.8665751     -503.35985      0              407.86017      0              0              9.2091539      9.6035631      0.2            88.440691    
     49100   0.18903031     0.0015941161   0.0015941161   0              0              169.21852     -7.5073304      345.74333      0             -446.28058      0              0              9.2081893      9.6081874      0.2            88.474009    
     49200   0.21505959     0.0015033779   0.0015033779   0              0              391.80494      842.73105     -59.311535      0             -842.1791       0              0              9.2072246      9.6092         0.2            88.474063    
     49300   0.17660528     0.0016653016   0.0016653016   0              0             -284.11017     -174.79586     -393.63654      0              472.24321      0              0              9.20626        9.6019701      0.2            88.398233    
     49400   0.19564064     0.001657002    0.001657002    0              0              441.98048      375.10235      508.65771      0              327.68273      0              0              9.2052953      9.5968283      0.2            88.341639    
     49500   0.23542662     0.0016425436   0.0016425436   0              0              143.88741      921.17194     -633.61919      0             -317.87479      0              0              9.2043307      9.6099837      0.2            88.453468    
     49600   0.16695773     0.0017648975   0.0017648975   0              0              498.53748      608.31298      388.5617       0             -1221.1275      0              0              9.203366       9.5974305      0.2            88.328666    
     49700   0.18163194     0.0015924857   0.0015924857   0              0              286.85164      597.02522     -23.537043      0             -1048.5863      0              0              9.2024014      9.6025039      0.2            88.366095    
     49800   0.17797871     0.0017473618   0.0017473618   0              0              210.14386      815.57207     -395.49559      0             -981.08322      0              0              9.2014367      9.6076698      0.2            88.404366    
     49900   0.18955114     0.0017211799   0.0017211799   0              0              711.58957      964.06364      458.85906      0             -821.24961      0              0              9.2004721      9.601422       0.2            88.337615    
     50000   0.22183259     0.0016561436   0.0016561436   0              0              39.911669      543.26828     -463.65645      0             -1397.5599      0              0              9.1995074      9.6060201      0.2            88.370653    
     50100   0.20374335     0.0017687782   0.0017687782   0              0             -85.204053     -268.20171      97.579574      0             -1128.8561      0              0              9.1985428      9.6027485      0.2            88.331292    
     50200   0.20693699     0.0019122289   0.0019122289   0              0              513.84295      1072.8823     -45.372858      0             -892.03262      0              0              9.1975781      9.6109926      0.2            88.397855    
     50300   0.19469057     0.0017378932   0.0017378932   0              0              603.28664      1207.6768     -1.3156141      0             -1099.7966      0              0              9.1966135      9.605744       0.2            88.340315    
     50400   0.2027747      0.0017242282   0.0017242282   0              0              578.47149      1193.1933     -36.468822      0             -113.66932      0              0              9.1956488      9.60405        0.2            88.315471    
     50500   0.24860458     0.0015501414   0.0015501414   0              0             -404.88259     -758.22992     -51.732818      0             -185.06006      0              0              9.1946841      9.6063401      0.2            88.327263    
     50600   0.19214034     0.0015430061   0.0015430061   0              0              411.97564      863.15424     -39.4192        0              940.75417      0              0              9.1937195      9.6034911      0.2            88.291803    
     50700   0.19998135     0.0016997515   0.0016997515   0              0              388.94381      723.62128      54.075072      0              123.2001       0              0              9.1927548      9.5973814      0.2            88.226374    
     50800   0.21238636     0.0019246262   0.0019246262   0              0              247.54614      393.73558      101.15115      0             -191.46575      0              0              9.1917902      9.6074737      0.2            88.309883    
     50900   0.20452487     0.0017623684   0.0017623684   0              0             -232.51553     -184.06834     -281.17421      0             -824.28722      0              0              9.1908255      9.6029538      0.2            88.259073    
     51000   0.23846802     0.0017133574   0.0017133574   0              0              929.12873      1826.2874      31.763912      0             -695.16027      0              0              9.1898609      9.6012866      0.2            88.234488    
     51100   0.22530868     0.0016639451   0.0016639451   0              0              1018.4359      1803.0329      233.64291      0              453.2604       0              0              9.1888962      9.6005447      0.2            88.218409    
     51200   0.23076338     0.0015858431   0.0015858431   0              0              272.70369      828.34322     -283.189        0              358.81156      0              0              9.1879316      9.6029607      0.2            88.231346    
     51300   0.22013058     0.0015808011   0.0015808011   0              0             -419.83031     -865.82352      25.97095       0             -658.902        0              0              9.1869669      9.6031685      0.2            88.223992    
     51400   0.22672141     0.0013446723   0.0013446723   0              0              603.32932      1079.7438      126.7338       0             -5.8963125      0              0              9.1860023      9.5956007      0.2            88.14521     
     51500   0.167262       0.0017911385   0.0017911385   0              0             -117.25551      98.480286     -333.20579      0             -281.28862      0              0              9.1850376      9.5920526      0.2            88.103364    
     51600   0.14727397     0.0015889971   0.0015889971   0              0              438.24231      314.75793      561.54572      0              163.53352      0              0              9.184073       9.5857753      0.2            88.03646     
     51700   0.22325445     0.0014602941   0.0014602941   0              0             -122.25647      193.97045     -438.68555      0             -629.41257      0              0              9.1831083      9.6003463      0.2            88.16102     
     51800   0.17914957     0.0015470507   0.0015470507   0              0             -242.65229     -433.30913     -52.209901      0             -391.53118      0              0              9.1821437      9.6028652      0.2            88.174888    
     51900   0.22985608     0.0016824532   0.0016824532   0              0              297.78242     -66.998796      662.36812      0             -221.81846      0              0              9.181179       9.5990014      0.2            88.13015     
     52000   0.19567263     0.0016414477   0.0016414477   0              0             -701.75967     -443.52898     -960.22261      0             -452.30964      0              0              9.1802144      9.6095247      0.2            88.217496    
     52100   0.16606995     0.0016701766   0.0016701766   0              0              1637.9152      2329.9157      945.66725      0             -358.70328      0              0              9.1792497      9.6112323      0.2            88.223901    
     52200   0.17064726     0.0018699929   0.0018699929   0              0              138.98793      760.90411     -483.16511      0             -1066.5707      0              0              9.178285       9.6236415      0.2            88.328525    
     52300   0.23118672     0.0016803094   0.0016803094   0              0              275.35934      830.10501     -279.58813      0             -370.36468      0              0              9.1773204      9.6173639      0.2            88.26163     
     52400   0.16665088     0.0018070821   0.0018070821   0              0              551.56665      156.42154      946.50002      0             -256.49492      0              0              9.1763557      9.6182931      0.2            88.260879    
     52500   0.20859023     0.0017187896   0.0017187896   0              0             -89.535873      1044.2249     -1223.5067      0             -984.5083       0              0              9.1753911      9.6232231      0.2            88.296835    
     52600   0.21266534     0.001627388    0.001627388    0              0              1773.733       2625.6105      921.58266      0             -1023.8572      0              0              9.1744264      9.6071747      0.2            88.140318    
     52700   0.21918768     0.0017642539   0.0017642539   0              0              748.87043      1628.9684     -131.42917      0             -869.13099      0              0              9.1734618      9.6142218      0.2            88.195696    
     52800   0.21879525     0.0015988651   0.0015988651   0              0              112.01636      962.69066     -738.86793      0             -268.42868      0              0              9.1724971      9.6184311      0.2            88.225031    
     52900   0.19683062     0.0018620501   0.0018620501   0              0              1062.5661      837.48923      1287.4435      0             -836.03476      0              0              9.1715325      9.6085441      0.2            88.125074    
     53000   0.21184142     0.0017934713   0.0017934713   0              0             -665.94731      20.806199     -1352.9231      0             -246.25214      0              0              9.1705678      9.6155315      0.2            88.179884    
     53100   0.18213359     0.0015801628   0.0015801628   0              0              560.47193      469.56432      651.17506      0             -975.28897      0              0              9.1696032      9.6002458      0.2            88.030444    
     53200   0.21997371     0.0016481709   0.0016481709   0              0              874.77276      1341.2556      408.05558      0             -544.43045      0              0              9.1686385      9.6026158      0.2            88.042914    
     53300   0.21831619     0.0015394105   0.0015394105   0              0             -55.49377       1090.2157     -1201.4115      0             -300.73232      0              0              9.1676739      9.6135025      0.2            88.133455    
     53400   0.16576762     0.0017762583   0.0017762583   0              0              2011.5916      2667.2025      1355.7997      0             -639.8762       0              0              9.1667092      9.5984394      0.2            87.986103    
     53500   0.1919358      0.0016458068   0.0016458068   0              0             -173.20714      596.18286     -942.79799      0             -4.5330761      0              0              9.1657446      9.6125805      0.2            88.106457    
     53600   0.17646535     0.0019094192   0.0019094192   0              0              491.33289      1022.4464     -39.961205      0             -206.7104       0              0              9.1647799      9.6071549      0.2            88.04746     
     53660   0.17781104     0.0016098632   0.0016098632   0              0              468.64204      332.85757      604.22064      0             -669.63554      0              0              9.1642011      9.6053311      0.2            88.025186    
Loop time of 1.21554 on 1 procs for 50000 steps with 67 atoms

Performance: 35539.708 ns/day, 0.001 hours/ns, 41133.921 timesteps/s
99.0% CPU use with 1 MPI tasks x 1 OpenMP threads

MPI task timing breakdown:
Section |  min time  |  avg time  |  max time  |%varavg| %total
---------------------------------------------------------------
Pair    | 0          | 0          | 0          |   0.0 |  0.00
Bond    | 0.18968    | 0.18968    | 0.18968    |   0.0 | 15.60
Neigh   | 0          | 0          | 0          |   0.0 |  0.00
Comm    | 0.41225    | 0.41225    | 0.41225    |   0.0 | 33.92
Output  | 0.0071469  | 0.0071469  | 0.0071469  |   0.0 |  0.59
Modify  | 0.57798    | 0.57798    | 0.57798    |   0.0 | 47.55
Other   |            | 0.02848    |            |       |  2.34

Nlocal:             67 ave          67 max          67 min
Histogram: 1 0 0 0 0 0 0 0 0 0
Nghost:            566 ave         566 max         566 min
Histogram: 1 0 0 0 0 0 0 0 0 0
Neighs:              0 ave           0 max           0 min
Histogram: 1 0 0 0 0 0 0 0 0 0

Total # of neighbors = 0
Ave neighs/atom = 0
Ave special neighs/atom = 24.447761
Neighbor list builds = 0
Dangerous builds = 0


Total wall time: 0:00:01
