ITEM: TIMESTEP
250
ITEM: NUMBER OF ATOMS
44
ITEM: BOX BOUNDS pp pp pp
-4.8090212320488703e+00 4.8090212320488703e+00
-4.8083434117834525e+00 4.8083434117834525e+00
-1.0000000000000001e-01 1.0000000000000001e-01
ITEM: ATOMS id type xs ys zs
7 1 0.51876 0.0685609 0.499855
11 1 0.743091 0.0301295 0.49963
35 1 0.441415 0.188246 0.500199
44 1 0.53955 0.19207 0.499372
39 1 0.640265 0.129893 0.500501
40 1 0.762366 0.170314 0.499855
49 1 0.851122 0.248206 0.501111
33 1 0.232898 0.28014 0.499191
17 1 0.358575 0.292582 0.499993
4 1 0.647659 0.269904 0.500173
71 1 0.775929 0.261431 0.500794
38 1 0.124043 0.344255 0.500622
62 1 0.138424 0.443229 0.499789
16 1 0.241755 0.420349 0.500626
15 1 0.505073 0.334749 0.499715
30 1 0.629669 0.423066 0.500509
68 1 0.742899 0.32016 0.500348
75 1 0.706345 0.36611 0.50094
64 1 0.73022 0.412304 0.500354
20 1 0.833035 0.369043 0.498958
41 1 0.951074 0.42762 0.500449
34 1 0.0492794 0.458674 0.500287
37 1 0.166931 0.538656 0.499818
13 1 0.299206 0.570008 0.500426
2 1 0.397588 0.449774 0.500023
29 1 0.532645 0.479885 0.499789
23 1 0.623931 0.552968 0.500224
57 1 0.70797 0.50521 0.500763
28 1 0.812393 0.513126 0.500339
19 1 0.939401 0.555391 0.499422
22 1 0.0692574 0.587471 0.498826
25 1 0.189903 0.652902 0.500346
31 1 0.43458 0.584417 0.501141
55 1 0.494126 0.673435 0.500549
27 1 0.630572 0.669957 0.500233
26 1 0.740865 0.615062 0.499869
80 1 0.277058 0.674583 0.499401
9 1 0.378513 0.710137 0.499575
66 1 0.564811 0.718542 0.500396
3 1 0.739011 0.757328 0.499631
42 1 0.61333 0.786119 0.499939
1 1 0.880123 0.840661 0.499168
24 1 0.744799 0.888017 0.499102
51 1 0.835788 0.962248 0.500417
ITEM: TIMESTEP
500
ITEM: NUMBER OF ATOMS
44
ITEM: BOX BOUNDS pp pp pp
-4.8078188781478381e+00 4.8078188781478381e+00
-4.8175931512142132e+00 4.8175931512142132e+00
-1.0000000000000001e-01 1.0000000000000001e-01
ITEM: ATOMS id type xs ys zs
7 1 0.519626 0.0687545 0.500513
11 1 0.742502 0.0296933 0.499994
35 1 0.442528 0.188789 0.49941
44 1 0.540526 0.192636 0.499272
39 1 0.640843 0.130715 0.500013
40 1 0.762706 0.170551 0.501064
49 1 0.850172 0.250145 0.501533
33 1 0.232319 0.281114 0.497625
17 1 0.358053 0.292546 0.500502
4 1 0.648316 0.270384 0.499599
71 1 0.774665 0.261423 0.501395
38 1 0.123821 0.344356 0.49945
62 1 0.13872 0.443389 0.500022
16 1 0.241913 0.420524 0.499691
15 1 0.505083 0.33463 0.499389
30 1 0.629741 0.423462 0.500235
68 1 0.74322 0.321063 0.500634
75 1 0.70647 0.366469 0.50055
64 1 0.730092 0.412567 0.500773
20 1 0.83295 0.370456 0.497077
41 1 0.950444 0.42919 0.500763
34 1 0.0494232 0.458325 0.501354
37 1 0.16717 0.538421 0.498783
13 1 0.299761 0.570801 0.49983
2 1 0.39804 0.450123 0.500552
29 1 0.532703 0.47982 0.500879
23 1 0.624444 0.553363 0.500322
57 1 0.708316 0.505859 0.499429
28 1 0.812355 0.513981 0.502353
19 1 0.939809 0.556176 0.501029
22 1 0.0696067 0.587133 0.499167
25 1 0.189509 0.652125 0.501501
31 1 0.435255 0.584885 0.501834
55 1 0.492712 0.674482 0.500774
27 1 0.630679 0.670382 0.501483
26 1 0.741414 0.616054 0.502058
80 1 0.276377 0.674438 0.498995
9 1 0.377628 0.710476 0.500893
66 1 0.564788 0.718324 0.499972
3 1 0.738688 0.757758 0.499372
42 1 0.612965 0.786288 0.500578
1 1 0.880141 0.840957 0.499997
24 1 0.744603 0.887059 0.498515
51 1 0.834843 0.961403 0.500486
ITEM: TIMESTEP
750
ITEM: NUMBER OF ATOMS
44
ITEM: BOX BOUNDS pp pp pp
-4.8066165242468060e+00 4.8066165242468060e+00
-4.8181134646539174e+00 4.8181134646539174e+00
-1.0000000000000001e-01 1.0000000000000001e-01
ITEM: ATOMS id type xs ys zs
7 1 0.520292 0.0698674 0.501366
11 1 0.742611 0.0297263 0.501941
35 1 0.442416 0.189997 0.49779
44 1 0.540614 0.193389 0.499909
39 1 0.641035 0.131143 0.501547
40 1 0.763213 0.169911 0.502397
49 1 0.850347 0.249653 0.503027
33 1 0.232665 0.280938 0.498112
17 1 0.358349 0.292955 0.498078
4 1 0.647897 0.271269 0.498967
71 1 0.774297 0.260634 0.500077
38 1 0.123952 0.345512 0.500462
62 1 0.138642 0.444401 0.499662
16 1 0.241969 0.421396 0.498112
15 1 0.504561 0.334974 0.498868
30 1 0.630273 0.423 0.499606
68 1 0.743602 0.320309 0.50225
75 1 0.707717 0.366779 0.503218
64 1 0.730854 0.413138 0.499206
20 1 0.833788 0.369963 0.498296
41 1 0.95119 0.428558 0.498358
34 1 0.0494443 0.458816 0.501615
37 1 0.167741 0.539054 0.49772
13 1 0.30022 0.571029 0.499123
2 1 0.398261 0.450043 0.50069
29 1 0.532925 0.479297 0.499895
23 1 0.624646 0.552752 0.499694
57 1 0.708123 0.505531 0.500336
28 1 0.812386 0.513674 0.501625
19 1 0.939783 0.556455 0.499789
22 1 0.070144 0.586986 0.499325
25 1 0.190171 0.652946 0.500887
31 1 0.435244 0.584913 0.501323
55 1 0.493566 0.674358 0.501555
27 1 0.630653 0.669608 0.501312
26 1 0.740912 0.61546 0.502861
80 1 0.276978 0.675316 0.498244
9 1 0.378296 0.710208 0.500921
66 1 0.564443 0.717995 0.50021
3 1 0.739068 0.757525 0.503059
42 1 0.613148 0.785678 0.500653
1 1 0.880204 0.841119 0.499174
24 1 0.745246 0.887359 0.498526
51 1 0.835417 0.961807 0.50182
ITEM: TIMESTEP
1000
ITEM: NUMBER OF ATOMS
44
ITEM: BOX BOUNDS pp pp pp
-4.8054141703457747e+00 4.8054141703457747e+00
-4.8168134474548125e+00 4.8168134474548125e+00
-1.0000000000000001e-01 1.0000000000000001e-01
ITEM: ATOMS id type xs ys zs
7 1 0.519772 0.070475 0.501348
11 1 0.742498 0.0297981 0.501077
35 1 0.44234 0.189503 0.496423
44 1 0.540553 0.194369 0.499456
39 1 0.640798 0.131527 0.501746
40 1 0.764067 0.169341 0.501455
49 1 0.851087 0.24993 0.50284
33 1 0.23338 0.281812 0.498515
17 1 0.358624 0.292468 0.497793
4 1 0.649218 0.27094 0.499555
71 1 0.775211 0.260349 0.497001
38 1 0.123963 0.345186 0.502172
62 1 0.138698 0.444869 0.499758
16 1 0.242038 0.421822 0.497538
15 1 0.506003 0.334908 0.498972
30 1 0.630505 0.422658 0.500114
68 1 0.74436 0.320378 0.50265
75 1 0.708359 0.366619 0.503087
64 1 0.730848 0.413589 0.49897
20 1 0.833518 0.370567 0.499354
41 1 0.95133 0.429068 0.499032
34 1 0.0498772 0.459057 0.502656
37 1 0.167209 0.54001 0.498702
13 1 0.300232 0.571132 0.498991
2 1 0.398538 0.44976 0.500775
29 1 0.533247 0.479114 0.499899
23 1 0.62424 0.552256 0.499381
57 1 0.70871 0.505389 0.501071
28 1 0.813527 0.513584 0.500588
19 1 0.93983 0.555983 0.500411
22 1 0.0690833 0.587968 0.49827
25 1 0.190862 0.653708 0.503131
31 1 0.436075 0.584379 0.502872
55 1 0.494503 0.672968 0.500509
27 1 0.631526 0.669877 0.503073
26 1 0.741499 0.615094 0.501863
80 1 0.27768 0.675436 0.497705
9 1 0.379451 0.710145 0.500217
66 1 0.565262 0.718332 0.50165
3 1 0.739965 0.757212 0.504422
42 1 0.614383 0.785394 0.499695
1 1 0.880533 0.841816 0.49868
24 1 0.744871 0.88815 0.497693
51 1 0.835261 0.961581 0.501469
ITEM: TIMESTEP
1250
ITEM: NUMBER OF ATOMS
44
ITEM: BOX BOUNDS pp pp pp
-4.8042118164447425e+00 4.8042118164447425e+00
-4.8275436022299578e+00 4.8275436022299578e+00
-1.0000000000000001e-01 1.0000000000000001e-01
ITEM: ATOMS id type xs ys zs
7 1 0.519985 0.0699859 0.501824
11 1 0.742673 0.0303659 0.499743
35 1 0.441392 0.188474 0.495687
44 1 0.539997 0.19318 0.499713
39 1 0.641313 0.131627 0.502359
40 1 0.763667 0.170706 0.503203
49 1 0.851827 0.249786 0.500298
33 1 0.233966 0.281659 0.500865
17 1 0.358958 0.292586 0.497693
4 1 0.648423 0.271183 0.497877
71 1 0.776211 0.261277 0.497587
38 1 0.124326 0.345394 0.502637
62 1 0.139313 0.444517 0.498469
16 1 0.242188 0.421265 0.499869
15 1 0.505652 0.334952 0.498407
30 1 0.630882 0.422787 0.499537
68 1 0.743999 0.320321 0.501233
75 1 0.707989 0.366382 0.503178
64 1 0.730968 0.412615 0.499996
20 1 0.833945 0.370259 0.499458
41 1 0.95173 0.428881 0.499311
34 1 0.0499239 0.459611 0.502551
37 1 0.167975 0.539279 0.500042
13 1 0.300698 0.570519 0.498638
2 1 0.398529 0.44992 0.501138
29 1 0.533176 0.479236 0.498048
23 1 0.624651 0.552505 0.500039
57 1 0.709222 0.505272 0.501076
28 1 0.813466 0.513439 0.501561
19 1 0.940016 0.556341 0.502742
22 1 0.0697006 0.587068 0.495135
25 1 0.191189 0.652614 0.502463
31 1 0.435733 0.584602 0.503197
55 1 0.494734 0.673242 0.500347
27 1 0.63127 0.669383 0.502844
26 1 0.741729 0.61513 0.5027
80 1 0.278368 0.675075 0.498521
9 1 0.379915 0.710201 0.499528
66 1 0.565694 0.717834 0.503265
3 1 0.740143 0.757005 0.503393
42 1 0.613916 0.784881 0.500919
1 1 0.881055 0.842079 0.498683
24 1 0.7444 0.886396 0.497273
51 1 0.834654 0.961625 0.501137
ITEM: TIMESTEP
1500
ITEM: NUMBER OF ATOMS
44
ITEM: BOX BOUNDS pp pp pp
-4.8030094625437103e+00 4.8030094625437103e+00
-4.8254185198123460e+00 4.8254185198123460e+00
-1.0000000000000001e-01 1.0000000000000001e-01
ITEM: ATOMS id type xs ys zs
7 1 0.520198 0.070205 0.500395
11 1 0.743049 0.0313548 0.500521
35 1 0.443074 0.189184 0.495746
44 1 0.541161 0.194046 0.49973
39 1 0.641381 0.1319 0.504033
40 1 0.763704 0.17085 0.504138
49 1 0.852026 0.249485 0.498102
33 1 0.233108 0.282581 0.501309
17 1 0.35954 0.293142 0.497245
4 1 0.648693 0.271027 0.499256
71 1 0.776658 0.261239 0.495802
38 1 0.123327 0.3455 0.503612
62 1 0.13889 0.443854 0.499198
16 1 0.242554 0.421605 0.499046
15 1 0.506213 0.33507 0.500016
30 1 0.630546 0.422782 0.499579
68 1 0.744141 0.320193 0.502537
75 1 0.708399 0.366834 0.502461
64 1 0.730924 0.413577 0.500598
20 1 0.83395 0.369936 0.499237
41 1 0.950978 0.428725 0.499599
34 1 0.049668 0.458809 0.50137
37 1 0.167095 0.538525 0.499419
13 1 0.30042 0.570448 0.496667
2 1 0.398409 0.450221 0.500594
29 1 0.533334 0.479495 0.497717
23 1 0.624732 0.552778 0.500643
57 1 0.708262 0.505448 0.501853
28 1 0.813398 0.512894 0.501836
19 1 0.93993 0.555511 0.500926
22 1 0.0696111 0.587514 0.494944
25 1 0.190757 0.651958 0.504094
31 1 0.435765 0.5847 0.502507
55 1 0.494653 0.673968 0.500671
27 1 0.631059 0.670149 0.502898
26 1 0.741441 0.614603 0.50235
80 1 0.277598 0.67399 0.498732
9 1 0.378581 0.710119 0.498139
66 1 0.565455 0.718908 0.502626
3 1 0.740673 0.756186 0.502817
42 1 0.614711 0.785988 0.500278
1 1 0.880204 0.841765 0.500016
24 1 0.743969 0.886337 0.497579
51 1 0.83455 0.961351 0.499966
ITEM: TIMESTEP
1750
ITEM: NUMBER OF ATOMS
44
ITEM: BOX BOUNDS pp pp pp
-4.8018071086426781e+00 4.8018071086426781e+00
-4.8350997814934322e+00 4.8350997814934322e+00
-1.0000000000000001e-01 1.0000000000000001e-01
ITEM: ATOMS id type xs ys zs
7 1 0.519472 0.0705292 0.499689
11 1 0.741903 0.0305715 0.500009
35 1 0.442355 0.190586 0.495485
44 1 0.540614 0.193622 0.499026
39 1 0.641165 0.131952 0.505076
40 1 0.763366 0.170638 0.505446
49 1 0.851642 0.248957 0.497115
33 1 0.233453 0.282712 0.500644
17 1 0.359157 0.293708 0.498241
4 1 0.648573 0.270852 0.499863
71 1 0.776132 0.26119 0.497024
38 1 0.123671 0.345972 0.502988
62 1 0.139202 0.444615 0.501214
16 1 0.242673 0.421879 0.498531
15 1 0.50573 0.335272 0.499654
30 1 0.63044 0.422438 0.500239
68 1 0.743938 0.320253 0.503168
75 1 0.70786 0.366365 0.503483
64 1 0.730998 0.412696 0.498879
20 1 0.83412 0.368973 0.499009
41 1 0.951791 0.427562 0.498554
34 1 0.0501883 0.459326 0.502302
37 1 0.167173 0.539487 0.501512
13 1 0.299829 0.570061 0.497084
2 1 0.398507 0.450038 0.499476
29 1 0.533262 0.47936 0.496559
23 1 0.624492 0.552232 0.501889
57 1 0.708585 0.504663 0.501283
28 1 0.813292 0.511976 0.501428
19 1 0.93922 0.554811 0.501137
22 1 0.0689799 0.588215 0.493831
25 1 0.191215 0.653061 0.504577
31 1 0.435551 0.58401 0.502467
55 1 0.494899 0.672418 0.500926
27 1 0.630249 0.668745 0.503985
26 1 0.741853 0.613828 0.502583
80 1 0.278162 0.674256 0.4987
9 1 0.379614 0.709469 0.498247
66 1 0.565054 0.717956 0.503351
3 1 0.739735 0.755724 0.502573
42 1 0.614476 0.784628 0.501062
1 1 0.879248 0.8414 0.500788
24 1 0.742855 0.88593 0.49892
51 1 0.832925 0.960551 0.50073
ITEM: TIMESTEP
2000
ITEM: NUMBER OF ATOMS
44
ITEM: BOX BOUNDS pp pp pp
-4.8006047547416459e+00 4.8006047547416459e+00
-4.8271808547408916e+00 4.8271808547408916e+00
-1.0000000000000001e-01 1.0000000000000001e-01
ITEM: ATOMS id type xs ys zs
7 1 0.518868 0.0709987 0.500708
11 1 0.742969 0.0314325 0.499401
35 1 0.441328 0.189889 0.494567
44 1 0.53987 0.195028 0.500292
39 1 0.640305 0.132185 0.503626
40 1 0.762833 0.171039 0.506252
49 1 0.85149 0.249168 0.497913
33 1 0.232097 0.281803 0.500585
17 1 0.358215 0.293141 0.499684
4 1 0.647843 0.27126 0.50106
71 1 0.775587 0.261655 0.497161
38 1 0.122638 0.345847 0.501987
62 1 0.138543 0.444753 0.502461
16 1 0.241392 0.420816 0.496308
15 1 0.504851 0.334549 0.499113
30 1 0.630231 0.422409 0.501265
68 1 0.743469 0.32061 0.50534
75 1 0.70738 0.366731 0.503129
64 1 0.731013 0.412571 0.499475
20 1 0.833752 0.369344 0.499146
41 1 0.951719 0.428431 0.495867
34 1 0.0496973 0.459945 0.503762
37 1 0.167112 0.539307 0.501748
13 1 0.300112 0.569764 0.495187
2 1 0.397606 0.450246 0.500298
29 1 0.532875 0.479121 0.498175
23 1 0.624588 0.551774 0.502977
57 1 0.708685 0.504462 0.502065
28 1 0.812992 0.512118 0.501562
19 1 0.939999 0.556112 0.501966
22 1 0.0694522 0.588356 0.493143
25 1 0.1909 0.652674 0.505761
31 1 0.435524 0.58363 0.502704
55 1 0.49437 0.672171 0.501881
27 1 0.631137 0.668483 0.505329
26 1 0.741798 0.61415 0.503724
80 1 0.278006 0.674758 0.499653
9 1 0.379342 0.709195 0.499994
66 1 0.565865 0.716885 0.50492
3 1 0.739922 0.756107 0.501896
42 1 0.614636 0.783942 0.500837
1 1 0.87941 0.841048 0.500998
24 1 0.742026 0.885654 0.501014
51 1 0.832603 0.959718 0.50094
ITEM: TIMESTEP
2250
ITEM: NUMBER OF ATOMS
44
ITEM: BOX BOUNDS pp pp pp
-4.7994024008406138e+00 4.7994024008406138e+00
-4.8402180336263720e+00 4.8402180336263720e+00
-1.0000000000000001e-01 1.0000000000000001e-01
ITEM: ATOMS id type xs ys zs
7 1 0.518601 0.0710362 0.499763
11 1 0.742567 0.0328205 0.499226
35 1 0.440706 0.189453 0.49537
44 1 0.539524 0.194463 0.501097
39 1 0.640343 0.132801 0.502499
40 1 0.762951 0.1715 0.507074
49 1 0.851599 0.248911 0.499122
33 1 0.232055 0.281689 0.500972
17 1 0.358019 0.293513 0.500767
4 1 0.648218 0.271775 0.499555
71 1 0.776454 0.261964 0.496654
38 1 0.122976 0.345882 0.501911
62 1 0.139124 0.443704 0.50173
16 1 0.242151 0.420795 0.496357
15 1 0.504504 0.334595 0.499702
30 1 0.631106 0.422469 0.501869
68 1 0.744157 0.320618 0.504457
75 1 0.70828 0.366818 0.504694
64 1 0.731977 0.41254 0.499597
20 1 0.83498 0.369217 0.499712
41 1 0.952281 0.429122 0.495498
34 1 0.0502963 0.460525 0.504078
37 1 0.16682 0.538723 0.501526
13 1 0.299799 0.569597 0.496103
2 1 0.398873 0.450064 0.500676
29 1 0.533454 0.478141 0.498056
23 1 0.624801 0.552243 0.502672
57 1 0.709053 0.505122 0.503296
28 1 0.81326 0.512985 0.501849
19 1 0.93972 0.555876 0.502635
22 1 0.0693282 0.588425 0.492089
25 1 0.190188 0.65232 0.506958
31 1 0.435951 0.584665 0.500907
55 1 0.494361 0.672961 0.501846
27 1 0.631137 0.668822 0.505307
26 1 0.741684 0.614703 0.503102
80 1 0.277682 0.674111 0.498178
9 1 0.378633 0.709144 0.500277
66 1 0.565732 0.717768 0.504048
3 1 0.739422 0.75621 0.501567
42 1 0.614121 0.784817 0.500647
1 1 0.880077 0.842417 0.499832
24 1 0.743024 0.885829 0.502117
51 1 0.832599 0.961512 0.500243
ITEM: TIMESTEP
2500
ITEM: NUMBER OF ATOMS
44
ITEM: BOX BOUNDS pp pp pp
-4.7982000469395816e+00 4.7982000469395816e+00
-4.8217508983299213e+00 4.8217508983299213e+00
-1.0000000000000001e-01 1.0000000000000001e-01
ITEM: ATOMS id type xs ys zs
7 1 0.518298 0.0708843 0.502283
11 1 0.742571 0.031304 0.49809
35 1 0.441438 0.190585 0.494702
44 1 0.539757 0.194626 0.501121
39 1 0.640245 0.131852 0.50281
40 1 0.762451 0.171077 0.506119
49 1 0.851794 0.249155 0.499999
33 1 0.232647 0.281248 0.499188
17 1 0.358093 0.293685 0.501375
4 1 0.649093 0.271295 0.498649
71 1 0.776315 0.261302 0.496036
38 1 0.123746 0.345674 0.500994
62 1 0.139459 0.443856 0.501527
16 1 0.242288 0.420747 0.496083
15 1 0.505457 0.334481 0.498618
30 1 0.631368 0.422709 0.501665
68 1 0.744653 0.320718 0.503162
75 1 0.708254 0.366783 0.5068
64 1 0.731894 0.413134 0.499671
20 1 0.835048 0.369501 0.498698
41 1 0.952435 0.429077 0.496848
34 1 0.0503418 0.460146 0.504343
37 1 0.167046 0.538435 0.501057
13 1 0.300083 0.57005 0.496302
2 1 0.398778 0.450207 0.499694
29 1 0.533589 0.478992 0.494989
23 1 0.624527 0.552298 0.504126
57 1 0.708997 0.50515 0.502332
28 1 0.813966 0.512653 0.501908
19 1 0.939977 0.556388 0.500701
22 1 0.0695424 0.589773 0.490621
25 1 0.190512 0.651823 0.505325
31 1 0.435641 0.583844 0.500975
55 1 0.494082 0.672891 0.502623
27 1 0.630318 0.669789 0.505597
26 1 0.741562 0.614986 0.504025
80 1 0.277377 0.674723 0.496278
9 1 0.379153 0.709905 0.500838
66 1 0.564386 0.71838 0.504682
3 1 0.739586 0.755872 0.500801
42 1 0.613793 0.785509 0.50095
1 1 0.879428 0.840438 0.500547
24 1 0.743252 0.885818 0.501683
51 1 0.83323 0.960461 0.499164
ITEM: TIMESTEP
2750
ITEM: NUMBER OF ATOMS
44
ITEM: BOX BOUNDS pp pp pp
-4.7969976930385494e+00 4.7969976930385494e+00
-4.8336640038910046e+00 4.8336640038910046e+00
-1.0000000000000001e-01 1.0000000000000001e-01
ITEM: ATOMS id type xs ys zs
7 1 0.518226 0.0717096 0.502075
11 1 0.74292 0.0310228 0.494473
35 1 0.441709 0.190944 0.493856
44 1 0.540117 0.194685 0.49997
39 1 0.64002 0.131708 0.503638
40 1 0.762198 0.171422 0.50703
49 1 0.851576 0.250023 0.498154
33 1 0.233383 0.281124 0.500113
17 1 0.358906 0.293842 0.502969
4 1 0.64917 0.270459 0.498975
71 1 0.775786 0.262034 0.49512
38 1 0.123461 0.34472 0.50044
62 1 0.138321 0.443694 0.500712
16 1 0.241349 0.420585 0.495243
15 1 0.505763 0.335351 0.498471
30 1 0.630058 0.423312 0.502946
68 1 0.744126 0.321276 0.503102
75 1 0.707132 0.36664 0.506173
64 1 0.730757 0.41262 0.498867
20 1 0.83404 0.370589 0.499394
41 1 0.950452 0.431108 0.497663
34 1 0.0496218 0.461236 0.504631
37 1 0.166371 0.538529 0.501855
13 1 0.2995 0.570061 0.495984
2 1 0.398047 0.450255 0.499408
29 1 0.532405 0.479447 0.49584
23 1 0.623583 0.551977 0.503089
57 1 0.708432 0.505033 0.50197
28 1 0.813118 0.513366 0.50105
19 1 0.939613 0.558198 0.499931
22 1 0.0699533 0.589633 0.489771
25 1 0.190009 0.652316 0.504649
31 1 0.43545 0.584007 0.501354
55 1 0.494359 0.67271 0.501478
27 1 0.630357 0.669421 0.506887
26 1 0.740635 0.614229 0.503807
80 1 0.277183 0.674213 0.495273
9 1 0.378332 0.708753 0.502857
66 1 0.564729 0.718041 0.504337
3 1 0.739765 0.755727 0.499393
42 1 0.613738 0.784875 0.499344
1 1 0.879904 0.839971 0.502577
24 1 0.743681 0.886006 0.502003
51 1 0.834015 0.960093 0.500421
ITEM: TIMESTEP
3000
ITEM: NUMBER OF ATOMS
44
ITEM: BOX BOUNDS pp pp pp
-4.7957953391375172e+00 4.7957953391375172e+00
-4.8398303275944743e+00 4.8398303275944743e+00
-1.0000000000000001e-01 1.0000000000000001e-01
ITEM: ATOMS id type xs ys zs
7 1 0.518461 0.0706145 0.502468
11 1 0.742538 0.0315896 0.495693
35 1 0.442005 0.190719 0.493689
44 1 0.54018 0.192655 0.501603
39 1 0.640716 0.131361 0.502699
40 1 0.762895 0.171695 0.506284
49 1 0.851482 0.250797 0.496439
33 1 0.232787 0.280396 0.502032
17 1 0.358053 0.293702 0.502431
4 1 0.648599 0.270234 0.500559
71 1 0.77584 0.261666 0.493612
38 1 0.123872 0.344358 0.498546
62 1 0.138271 0.443589 0.500135
16 1 0.241567 0.420095 0.495139
15 1 0.505246 0.33414 0.499024
30 1 0.630545 0.422841 0.504769
68 1 0.744251 0.320933 0.501912
75 1 0.707561 0.366373 0.505724
64 1 0.731497 0.412382 0.496513
20 1 0.834395 0.370879 0.49872
41 1 0.95109 0.43033 0.497785
34 1 0.0493722 0.461496 0.503872
37 1 0.166124 0.538275 0.500937
13 1 0.299441 0.569094 0.496436
2 1 0.398208 0.449814 0.498101
29 1 0.533034 0.478524 0.495172
23 1 0.62434 0.552108 0.503163
57 1 0.708466 0.505196 0.502427
28 1 0.812848 0.5131 0.501013
19 1 0.939216 0.557446 0.501854
22 1 0.0692868 0.589818 0.489508
25 1 0.189934 0.651307 0.503068
31 1 0.435514 0.583718 0.501434
55 1 0.49403 0.672546 0.502812
27 1 0.630842 0.669126 0.506332
26 1 0.741191 0.614437 0.503934
80 1 0.277031 0.672968 0.494891
9 1 0.378338 0.708088 0.5032
66 1 0.564675 0.717384 0.502289
3 1 0.739458 0.755913 0.499457
42 1 0.613388 0.784422 0.499953
1 1 0.879851 0.841777 0.501961
24 1 0.742671 0.885388 0.501516
51 1 0.832749 0.960291 0.501997
ITEM: TIMESTEP
3250
ITEM: NUMBER OF ATOMS
44
ITEM: BOX BOUNDS pp pp pp
-4.7945929852364850e+00 4.7945929852364850e+00
-4.8234043647585754e+00 4.8234043647585754e+00
-1.0000000000000001e-01 1.0000000000000001e-01
ITEM: ATOMS id type xs ys zs
7 1 0.518618 0.0705428 0.502701
11 1 0.743587 0.0314939 0.495426
35 1 0.44146 0.190608 0.49338
44 1 0.539985 0.193862 0.502953
39 1 0.640672 0.130919 0.502181
40 1 0.762282 0.171663 0.507749
49 1 0.851844 0.249238 0.497843
33 1 0.231211 0.279702 0.501515
17 1 0.357358 0.293379 0.502882
4 1 0.648835 0.270216 0.501389
71 1 0.776487 0.262016 0.493168
38 1 0.122189 0.343802 0.498769
62 1 0.138443 0.442175 0.501104
16 1 0.24187 0.419219 0.493773
15 1 0.505074 0.334169 0.497138
30 1 0.630037 0.423125 0.506602
68 1 0.743888 0.320627 0.500744
75 1 0.707081 0.366383 0.507255
64 1 0.731179 0.412346 0.497524
20 1 0.834085 0.370006 0.498432
41 1 0.950639 0.43068 0.49812
34 1 0.0495075 0.460949 0.50428
37 1 0.166263 0.536946 0.502861
13 1 0.299059 0.568996 0.498171
2 1 0.397964 0.449507 0.498679
29 1 0.532601 0.478677 0.493669
23 1 0.623659 0.552526 0.502416
57 1 0.708238 0.50476 0.502627
28 1 0.813175 0.51255 0.501852
19 1 0.939254 0.557974 0.500595
22 1 0.0698381 0.589159 0.491668
25 1 0.188947 0.651285 0.501881
31 1 0.435327 0.583234 0.501309
55 1 0.49348 0.672642 0.502186
27 1 0.63057 0.669066 0.507285
26 1 0.741429 0.614339 0.504721
80 1 0.276428 0.673004 0.498032
9 1 0.377635 0.709162 0.501241
66 1 0.564637 0.717685 0.503134
3 1 0.739817 0.756234 0.498968
42 1 0.614218 0.784712 0.501205
1 1 0.880337 0.840065 0.501678
24 1 0.743775 0.885739 0.500145
51 1 0.834674 0.96029 0.499961
ITEM: TIMESTEP
3500
ITEM: NUMBER OF ATOMS
44
ITEM: BOX BOUNDS pp pp pp
-4.7933906313354528e+00 4.7933906313354528e+00
-4.8284865090399203e+00 4.8284865090399203e+00
-1.0000000000000001e-01 1.0000000000000001e-01
ITEM: ATOMS id type xs ys zs
7 1 0.518846 0.069706 0.502649
11 1 0.744351 0.032145 0.495487
35 1 0.440596 0.188754 0.492668
44 1 0.539403 0.19298 0.504232
39 1 0.640406 0.130784 0.502314
40 1 0.762384 0.172025 0.50714
49 1 0.85165 0.249536 0.497306
33 1 0.231102 0.279115 0.501425
17 1 0.356302 0.292713 0.500828
4 1 0.647504 0.27051 0.501589
71 1 0.776684 0.262689 0.493091
38 1 0.12169 0.34429 0.499118
62 1 0.138133 0.442668 0.500649
16 1 0.241139 0.418943 0.493323
15 1 0.504677 0.333743 0.495557
30 1 0.629405 0.422395 0.507028
68 1 0.743152 0.320601 0.498909
75 1 0.706801 0.366284 0.508073
64 1 0.730192 0.412454 0.497093
20 1 0.833113 0.369578 0.49859
41 1 0.949935 0.430887 0.498874
34 1 0.0492781 0.460267 0.504335
37 1 0.16665 0.537347 0.503996
13 1 0.298615 0.568803 0.49839
2 1 0.397651 0.448872 0.498868
29 1 0.531723 0.478296 0.492725
23 1 0.623502 0.551788 0.500898
57 1 0.707764 0.505079 0.504505
28 1 0.813065 0.513586 0.500647
19 1 0.939889 0.557502 0.499021
22 1 0.0704436 0.588573 0.490767
25 1 0.188507 0.651846 0.50087
31 1 0.434243 0.583272 0.501848
55 1 0.493259 0.671812 0.504051
27 1 0.629924 0.669192 0.506637
26 1 0.740325 0.614425 0.504721
80 1 0.275966 0.673013 0.498223
9 1 0.377823 0.708172 0.499388
66 1 0.563547 0.71759 0.504976
3 1 0.738768 0.755998 0.498009
42 1 0.613192 0.784482 0.500085
1 1 0.880584 0.840429 0.501979
24 1 0.744817 0.88638 0.500087
51 1 0.835101 0.960602 0.499143
ITEM: TIMESTEP
3750
ITEM: NUMBER OF ATOMS
44
ITEM: BOX BOUNDS pp pp pp
-4.7921882774344216e+00 4.7921882774344216e+00
-4.8292202161461208e+00 4.8292202161461208e+00
-1.0000000000000001e-01 1.0000000000000001e-01
ITEM: ATOMS id type xs ys zs
7 1 0.519371 0.0684047 0.503433
11 1 0.744038 0.0320985 0.495155
35 1 0.440751 0.187083 0.490567
44 1 0.539566 0.192267 0.504134
39 1 0.640428 0.130636 0.502346
40 1 0.762271 0.171894 0.505496
49 1 0.851243 0.250376 0.499635
33 1 0.231683 0.280529 0.501402
17 1 0.357956 0.291295 0.501074
4 1 0.647462 0.269628 0.500018
71 1 0.775609 0.262695 0.492828
38 1 0.121537 0.344338 0.497856
62 1 0.137095 0.443154 0.501273
16 1 0.240608 0.419539 0.494183
15 1 0.504349 0.335158 0.494271
30 1 0.628424 0.422443 0.507516
68 1 0.742224 0.320782 0.499488
75 1 0.705376 0.36629 0.505863
64 1 0.729201 0.412269 0.496111
20 1 0.832528 0.369967 0.497479
41 1 0.950044 0.43023 0.498262
34 1 0.0485037 0.461414 0.504215
37 1 0.165651 0.537467 0.503985
13 1 0.298829 0.568548 0.498119
2 1 0.396839 0.448409 0.500469
29 1 0.53129 0.47904 0.493628
23 1 0.622627 0.552677 0.500789
57 1 0.706795 0.505063 0.504943
28 1 0.812036 0.51316 0.500216
19 1 0.938832 0.557851 0.498029
22 1 0.0696774 0.589537 0.49099
25 1 0.190118 0.650545 0.502389
31 1 0.435023 0.582534 0.502894
55 1 0.493362 0.671616 0.50394
27 1 0.629937 0.669387 0.505602
26 1 0.740858 0.614829 0.506165
80 1 0.277353 0.67298 0.499613
9 1 0.378251 0.707716 0.499583
66 1 0.56403 0.717233 0.505542
3 1 0.738065 0.756438 0.498813
42 1 0.612151 0.785433 0.499316
1 1 0.878974 0.839699 0.500534
24 1 0.743127 0.885924 0.500776
51 1 0.833677 0.959629 0.5003
ITEM: TIMESTEP
4000
ITEM: NUMBER OF ATOMS
44
ITEM: BOX BOUNDS pp pp pp
-4.7909859235333894e+00 4.7909859235333894e+00
-4.8379773562737247e+00 4.8379773562737247e+00
-1.0000000000000001e-01 1.0000000000000001e-01
ITEM: ATOMS id type xs ys zs
7 1 0.518847 0.0689539 0.504197
11 1 0.743809 0.0318693 0.495645
35 1 0.441529 0.188175 0.492453
44 1 0.540207 0.192388 0.504327
39 1 0.640276 0.13097 0.503032
40 1 0.762024 0.171549 0.506911
49 1 0.850827 0.250357 0.49953
33 1 0.23227 0.281143 0.502064
17 1 0.358314 0.291325 0.500457
4 1 0.647891 0.269154 0.500213
71 1 0.774774 0.262586 0.493437
38 1 0.122435 0.34422 0.497548
62 1 0.136397 0.44344 0.50112
16 1 0.240122 0.420911 0.4945
15 1 0.504597 0.334614 0.493887
30 1 0.628512 0.422984 0.510077
68 1 0.742484 0.321111 0.500621
75 1 0.704404 0.365457 0.506258
64 1 0.728981 0.411218 0.495323
20 1 0.832654 0.369852 0.499134
41 1 0.94909 0.431114 0.49879
34 1 0.0479343 0.461464 0.506192
37 1 0.164163 0.537822 0.504095
13 1 0.298356 0.568827 0.498204
2 1 0.396549 0.448946 0.502009
29 1 0.531032 0.47841 0.492057
23 1 0.621667 0.552683 0.501508
57 1 0.706915 0.505723 0.505402
28 1 0.811165 0.51315 0.500543
19 1 0.937895 0.557797 0.495725
22 1 0.0678381 0.589419 0.488341
25 1 0.189195 0.650398 0.502683
31 1 0.435084 0.582628 0.501138
55 1 0.493769 0.670931 0.502835
27 1 0.628269 0.669838 0.507013
26 1 0.739188 0.615504 0.507723
80 1 0.276275 0.67281 0.501881
9 1 0.37782 0.708031 0.500666
66 1 0.562238 0.719049 0.505692
3 1 0.73748 0.757259 0.497857
42 1 0.61191 0.785962 0.499241
1 1 0.879417 0.841665 0.501762
24 1 0.742833 0.887549 0.500345
51 1 0.83383 0.960962 0.500893
ITEM: TIMESTEP
4250
ITEM: NUMBER OF ATOMS
44
ITEM: BOX BOUNDS pp pp pp
-4.7897835696323572e+00 4.7897835696323572e+00
-4.8288149007959582e+00 4.8288149007959582e+00
-1.0000000000000001e-01 1.0000000000000001e-01
ITEM: ATOMS id type xs ys zs
7 1 0.518355 0.0695219 0.50355
11 1 0.743762 0.0308439 0.495513
35 1 0.440157 0.188576 0.493787
44 1 0.538917 0.19222 0.502884
39 1 0.640501 0.130611 0.503704
40 1 0.762258 0.17152 0.509209
49 1 0.851089 0.249777 0.498822
33 1 0.230741 0.279107 0.500434
17 1 0.357151 0.292575 0.499316
4 1 0.647556 0.269878 0.499837
71 1 0.775576 0.262142 0.493495
38 1 0.121666 0.344499 0.496973
62 1 0.136114 0.443003 0.501551
16 1 0.239659 0.4197 0.49335
15 1 0.504207 0.33451 0.494644
30 1 0.628802 0.42352 0.510281
68 1 0.742785 0.320926 0.499809
75 1 0.705549 0.366039 0.504813
64 1 0.729223 0.41211 0.496832
20 1 0.833013 0.369847 0.498902
41 1 0.949763 0.430391 0.498227
34 1 0.048 0.462469 0.506586
37 1 0.164251 0.537727 0.503199
13 1 0.297943 0.568635 0.497252
2 1 0.396631 0.449266 0.501713
29 1 0.530915 0.478798 0.491998
23 1 0.621584 0.552974 0.502043
57 1 0.706338 0.506208 0.503724
28 1 0.810864 0.513077 0.50036
19 1 0.937486 0.557964 0.49479
22 1 0.068385 0.590705 0.489553
25 1 0.188773 0.65059 0.501787
31 1 0.434667 0.582752 0.501281
55 1 0.49364 0.671289 0.502918
27 1 0.628561 0.669886 0.507548
26 1 0.739025 0.615583 0.506465
80 1 0.275887 0.672855 0.499407
9 1 0.377641 0.707999 0.501182
66 1 0.562833 0.718948 0.503938
3 1 0.737907 0.757085 0.497539
42 1 0.612393 0.7862 0.50037
1 1 0.8794 0.840799 0.50077
24 1 0.744463 0.886802 0.499753
51 1 0.834923 0.961091 0.501429
ITEM: TIMESTEP
4500
ITEM: NUMBER OF ATOMS
44
ITEM: BOX BOUNDS pp pp pp
-4.7885812157313250e+00 4.7885812157313250e+00
-4.8168479720552515e+00 4.8168479720552515e+00
-1.0000000000000001e-01 1.0000000000000001e-01
ITEM: ATOMS id type xs ys zs
7 1 0.517888 0.0691203 0.506719
11 1 0.743866 0.0301182 0.494535
35 1 0.44118 0.189302 0.494826
44 1 0.539429 0.192433 0.502898
39 1 0.640042 0.130029 0.503997
40 1 0.762128 0.170411 0.507797
49 1 0.851521 0.249443 0.497042
33 1 0.231014 0.279243 0.500606
17 1 0.356581 0.291357 0.500552
4 1 0.647622 0.269548 0.498631
71 1 0.776031 0.260976 0.492917
38 1 0.121237 0.343258 0.496945
62 1 0.136348 0.442436 0.500991
16 1 0.239649 0.419494 0.494506
15 1 0.503638 0.333831 0.494727
30 1 0.629089 0.422669 0.510311
68 1 0.743661 0.319901 0.500559
75 1 0.706315 0.365469 0.50489
64 1 0.729298 0.411959 0.497749
20 1 0.832848 0.370262 0.497692
41 1 0.949337 0.43151 0.499064
34 1 0.0481572 0.461334 0.506503
37 1 0.164967 0.537705 0.504434
13 1 0.29857 0.568559 0.497208
2 1 0.396663 0.448037 0.499125
29 1 0.531251 0.478678 0.49223
23 1 0.622047 0.552793 0.502222
57 1 0.706062 0.505912 0.504317
28 1 0.810975 0.513323 0.500266
19 1 0.938382 0.558722 0.495647
22 1 0.0690039 0.590207 0.489419
25 1 0.189112 0.651294 0.502769
31 1 0.434711 0.582516 0.501095
55 1 0.494252 0.671959 0.500901
27 1 0.629298 0.670072 0.506342
26 1 0.739604 0.615171 0.50707
80 1 0.276402 0.673184 0.499545
9 1 0.377662 0.707845 0.501355
66 1 0.563641 0.719299 0.502863
3 1 0.739061 0.756813 0.495398
42 1 0.613483 0.786394 0.500203
1 1 0.880358 0.840014 0.502179
24 1 0.74523 0.887801 0.500603
51 1 0.83605 0.961258 0.502369
ITEM: TIMESTEP
4750
ITEM: NUMBER OF ATOMS
44
ITEM: BOX BOUNDS pp pp pp
-4.7873788618302928e+00 4.7873788618302928e+00
-4.8244694316327621e+00 4.8244694316327621e+00
-1.0000000000000001e-01 1.0000000000000001e-01
ITEM: ATOMS id type xs ys zs
7 1 0.518439 0.0684974 0.505976
11 1 0.743269 0.0299342 0.494149
35 1 0.440519 0.188571 0.497154
44 1 0.539637 0.191875 0.501738
39 1 0.640593 0.129792 0.502278
40 1 0.762326 0.170254 0.506093
49 1 0.85031 0.249276 0.49699
33 1 0.231398 0.279947 0.502485
17 1 0.357231 0.292522 0.501406
4 1 0.647322 0.26975 0.49877
71 1 0.774693 0.261744 0.495519