LAMMPS (23 Jun 2022 - Update 4)
  using 1 OpenMP thread(s) per MPI task
# Compute elastic constant tensor for a crystal
#
# Written by Aidan Thompson (Sandia, athomps@sandia.gov)
#
#  This script uses the following three include files.
#
#   init.mod      (must be modified for different crystal structures)
# 	       	  Define units, deformation parameters and initial
#		  configuration of the atoms and simulation cell.
#
#
#   potential.mod    (must be modified for different pair styles)
# 		     Define pair style and other attributes
#		     not stored in restart file
#
#
#   displace.mod    (displace.mod should not need to be modified)
# 		    Perform positive and negative box displacements
# 		    in direction ${dir} and size ${up}.
# 		    It uses the resultant changes
#		    in stress to compute one
# 		    row of the elastic stiffness tensor
#
#		    Inputs variables:
#		    	   dir = the Voigt deformation component
#		    		    (1,2,3,4,5,6)
#		    Global constants:
#       	    	   up = the deformation magnitude (strain units)
#       		   cfac = conversion from LAMMPS pressure units to
#               	   output units for elastic constants
#
#
#  To run this on a different system, it should only be necessary to
#  modify the files init.mod and potential.mod. In order to calculate
#  the elastic constants correctly, care must be taken to specify
#  the correct units in init.mod (units, cfac and cunits). It is also
#  important to verify that the minimization of energy w.r.t atom
#  positions in the deformed cell is fully converged.
#  One indication of this is that the elastic constants are insensitive
#  to the choice of the variable ${up} in init.mod. Another is to check
#  the final max and two-norm forces reported in the log file. If you know
#  that minimization is not required, you can set maxiter = 0.0 in
#  init.mod.
#



variable dt equal 0.01
variable strain equal 0.05
variable srate equal 1e-4
variable M equal 1000 # averaging time for properties
variable strainsteps equal ${strain}/${dt}/${srate}
variable strainsteps equal 0.05/${dt}/${srate}
variable strainsteps equal 0.05/0.01/${srate}
variable strainsteps equal 0.05/0.01/0.0001


dimension 2
include init.mod
# NOTE: This script can be modified for different atomic structures,
# units, etc. See in.elastic for more info.
#

# Define the finite deformation size. Try several values of this
# variable to verify that results do not depend on it.
variable up equal 1.0e-1

# Define the amount of random jiggle for atoms
# This prevents atoms from staying on saddle points
variable atomjiggle equal 1.0e-6

# Uncomment one of these blocks, depending on what units
# you are using in LAMMPS and for output

# metal units, elastic constants in eV/A^3
#units		metal
#variable cfac equal 6.2414e-7
#variable cunits string eV/A^3

# Choose potential
# metal units, elastic constants in GPa
units		metal
atom_style	full
#pair_style      lj/cut 1.0
#pair_style      yukawa 1.0 2.0
#pair_modify     mix arithmetic
bond_style      harmonic
angle_style     harmonic
dihedral_style  zero
special_bonds   amber
variable cfac equal 1.0e-4
variable cunits string GPa
boundary	p p p

# Need to set mass to something, just to satisfy LAMMPS
#mass 1 1.0e-20
read_data network.lmp
Reading data file ...
  orthogonal box = (-4.809416 -4.809416 -0.1) to (4.809416 4.809416 0.1)
  1 by 1 by 1 MPI processor grid
WARNING: Atom style in data file differs from currently defined atom style (src/read_data.cpp:538)
  reading atoms ...
  44 atoms
WARNING: Bond style in data file differs from currently defined bond style (src/read_data.cpp:630)
  scanning bonds ...
  5 = max bonds/atom
  reading bonds ...
  91 bonds
Finding 1-2 1-3 1-4 neighbors ...
  special bond factors lj:    0        0        0.5     
  special bond factors coul:  0        0        0.8333333333333334
     7 = max # of 1-2 neighbors
    24 = max # of 1-3 neighbors
   109 = max # of 1-4 neighbors
    31 = max # of special neighbors
  special bonds CPU = 0.000 seconds
  read_data CPU = 0.003 seconds

# real units, elastic constants in GPa
#units		real
#variable cfac equal 1.01325e-4
#variable cunits string GPa

# Define minimization parameters
variable etol equal 0.0
variable ftol equal 5.0e-10
variable maxiter equal 100000
variable maxeval equal 20000
variable dmax equal 1.0e-2


include potential.mod
# NOTE: This script can be modified for different pair styles
# See in.elastic for more info.

# Setup neighbor style
neighbor 3.0 nsq
neigh_modify once no every 1 delay 0 check yes
comm_modify cutoff 2.0

# Setup minimization style
min_style	     cg
min_modify	     dmax ${dmax} line quadratic
min_modify	     dmax 0.01 line quadratic

timestep	0.001


# Setup output
thermo		500
thermo_style custom step temp pe ebond eangle edihed press pxx pyy pzz pxy pxz pyz lx ly lz vol
thermo_modify norm no


#change_box all triclinic
comm_modify mode single cutoff 10.0 vel yes
atom_modify sort 0 0



# Compute initial state

#dump rela all atom 1 traj_relax.lmpstrj
fix 3 all box/relax x 0 y 0 # xy 0  #MS comment: relax if the network is periodic
minimize ${etol} ${ftol} ${maxiter} ${maxeval}
minimize 0 ${ftol} ${maxiter} ${maxeval}
minimize 0 5e-10 ${maxiter} ${maxeval}
minimize 0 5e-10 100000 ${maxeval}
minimize 0 5e-10 100000 20000
Neighbor list info ...
  update every 1 steps, delay 0 steps, check yes
  max neighbors/atom: 2000, page size: 100000
  master list distance cutoff = 0
  ghost atom cutoff = 10
  0 neighbor lists, perpetual/occasional/extra = 0 0 0
WARNING: Inconsistent image flags (src/domain.cpp:819)
Per MPI rank memory allocation (min/avg/max) = 8.89 | 8.89 | 8.89 Mbytes
   Step          Temp          PotEng         E_bond        E_angle        E_dihed         Press           Pxx            Pyy            Pzz            Pxy            Pxz            Pyz             Lx             Ly             Lz           Volume    
         0   0              2.1210569e-11  2.1210569e-11  0              0              0.11595994     0.14273267     0.089187218    0              0.0003042301   0              0              9.618832       9.618832       0.2            92.521929    
       168   0              9.9682828e-17  9.9682828e-17  0              0             -7.6818948e-08 -2.6447573e-08 -1.2719032e-07  0              8.8949957e-06  0              0              9.6188312      9.6188346      0.2            92.521947    
Loop time of 0.00754748 on 1 procs for 168 steps with 44 atoms

100.0% CPU use with 1 MPI tasks x 1 OpenMP threads

Minimization stats:
  Stopping criterion = force tolerance
  Energy initial, next-to-last, final = 
    2.12105694631151e-11 9.97275659345618e-17 9.96828276960949e-17
  Force two-norm initial, final = 1.8113116e-05 4.5586308e-10
  Force max component initial, final = 8.2424764e-06 1.295504e-10
  Final line search alpha, max atom move = 1 1.295504e-10
  Iterations, force evaluations = 168 336

MPI task timing breakdown:
Section |  min time  |  avg time  |  max time  |%varavg| %total
---------------------------------------------------------------
Pair    | 0          | 0          | 0          |   0.0 |  0.00
Bond    | 0.0010036  | 0.0010036  | 0.0010036  |   0.0 | 13.30
Neigh   | 0          | 0          | 0          |   0.0 |  0.00
Comm    | 0.0022435  | 0.0022435  | 0.0022435  |   0.0 | 29.73
Output  | 0          | 0          | 0          |   0.0 |  0.00
Modify  | 0          | 0          | 0          |   0.0 |  0.00
Other   |            | 0.0043     |            |       | 56.98

Nlocal:             44 ave          44 max          44 min
Histogram: 1 0 0 0 0 0 0 0 0 0
Nghost:            358 ave         358 max         358 min
Histogram: 1 0 0 0 0 0 0 0 0 0
Neighs:              0 ave           0 max           0 min
Histogram: 1 0 0 0 0 0 0 0 0 0

Total # of neighbors = 0
Ave neighs/atom = 0
Ave special neighs/atom = 20.181818
Neighbor list builds = 0
Dangerous builds = 0
#dump rela all atom 1 traj_relax.lmpstrj
thermo 100
unfix 3

fix 2d all enforce2d



#dump dump0 all xyz 1000000 cfg0.xyz
#dump_modify dump0 format line "%d %20.10g %20.10g %20.10g"
#minimize ${etol} ${ftol} ${maxiter} ${maxeval}

#undump rela

#write_restart restart.equil

# These formulas define the derivatives w.r.t. strain components
# Constants uses $, variables use v_


timestep        ${dt}
timestep        0.01
variable nsteps equal round(${strainsteps})
variable nsteps equal round(50000)

fix             4 all nve
fix             5 all langevin 0.1 0.1 1 904297
#fix		6 all press/berendsen y  0.0 0.0 1 x 0.0 0.0 10
fix             6 all nph y 0.0 0.0 10 ptemp 0.1 # x 0.0 0.0 10

# For PLUMED2
# fix 22 all plumed plumedfile plumed.dat outfile plumed.out

#fix             6 all nph x 0.0 0.0 10
fix     	9 all deform 1 x erate -${srate} units box remap x
fix     	9 all deform 1 x erate -0.0001 units box remap x

#fix     8 all deform 1 xy erate ${srate} units box remap x



#fix    10 all ave/time

dump 1 all atom 250 deform_dump.lammpstrj


#To avoid flying ice cube phenomenon:
#fix 21 all momentum 100 linear 1 1 1 angular


run  ${nsteps}
run  50000
WARNING: One or more atoms are time integrated more than once (src/modify.cpp:292)
WARNING: Inconsistent image flags (src/domain.cpp:819)
Per MPI rank memory allocation (min/avg/max) = 7.765 | 7.765 | 7.765 Mbytes
   Step          Temp          PotEng         E_bond        E_angle        E_dihed         Press           Pxx            Pyy            Pzz            Pxy            Pxz            Pyz             Lx             Ly             Lz           Volume    
       168   0              9.9682828e-17  9.9682828e-17  0              0             -7.6818948e-08 -2.6447573e-08 -1.2719032e-07  0              8.8949957e-06  0              0              9.6188312      9.6188346      0.2            92.521947    
       200   0.10498439     0.00014421118  0.00014421118  0              0             -63.633928     -113.29325     -14.133656      0              78.921652      0              0              9.6185234      9.621525       0.2            92.544863    
       300   0.2344211      0.00053280995  0.00053280995  0              0             -221.31313     -478.07193      35.324661      0             -142.84475      0              0              9.6175615      9.622363       0.2            92.543668    
       400   0.26367707     0.00081414744  0.00081414744  0              0              130.17224      188.64984      71.549081      0             -20.610867      0              0              9.6165996      9.6324494      0.2            92.631409    
       500   0.22169167     0.00066035237  0.00066035237  0              0              82.836768      293.87825     -128.34177      0             -260.38442      0              0              9.6156378      9.6351863      0.2            92.648461    
       600   0.17771054     0.00067861751  0.00067861751  0              0              593.15237      858.02847      328.17577      0              882.08367      0              0              9.6146759      9.6220287      0.2            92.512687    
       700   0.17146762     0.00069542131  0.00069542131  0              0              127.47678      691.03251     -436.1659       0              646.07524      0              0              9.613714       9.6347117      0.2            92.625362    
       800   0.18073224     0.0007363157   0.0007363157   0              0              1110.2808      1801.302       419.12371      0              136.83769      0              0              9.6127521      9.6322567      0.2            92.592496    
       900   0.21536909     0.00072584466  0.00072584466  0              0              85.703767      519.74611     -348.4464       0             -557.94921      0              0              9.6117902      9.6413841      0.2            92.670962    
      1000   0.22512572     0.0007262288   0.0007262288   0              0              416.83826      747.95959      85.593593      0              443.55347      0              0              9.6108283      9.6336269      0.2            92.587134    
      1100   0.22649615     0.00068251632  0.00068251632  0              0              118.47691      13.133062      223.71765      0              454.77276      0              0              9.6098665      9.6262934      0.2            92.507394    
      1200   0.2189987      0.00063994227  0.00063994227  0              0             -282.34177     -147.99909     -416.82863      0             -284.2078       0              0              9.6089046      9.6413986      0.2            92.64328     
      1300   0.18879839     0.00058230177  0.00058230177  0              0              825.12279      1076.7058      573.4193       0              273.04366      0              0              9.6079427      9.6562531      0.2            92.776726    
      1400   0.16932011     0.00068243899  0.00068243899  0              0             -292.29013      8.4194741     -593.12617      0              31.397006      0              0              9.6069808      9.6651727      0.2            92.853129    
      1500   0.18579566     0.00072866139  0.00072866139  0              0              432.32938      318.87535      545.64053      0              201.32463      0              0              9.6060189      9.650837       0.2            92.706123    
      1600   0.2351629      0.00089151445  0.00089151445  0              0              507.95029      1394.8165     -379.03391      0              195.27912      0              0              9.605057       9.6662903      0.2            92.845269    
      1700   0.18109677     0.00077105418  0.00077105418  0              0              496.5189       1005.0953     -12.196132      0             -167.6416       0              0              9.6040952      9.6674367      0.2            92.846982    
      1800   0.20739707     0.00069097383  0.00069097383  0              0              722.91847      1059.2233      386.50678      0              689.5071       0              0              9.6031333      9.6687733      0.2            92.850519    
      1900   0.24407879     0.00075823305  0.00075823305  0              0             -358.05574      23.524554     -739.76919      0              448.14128      0              0              9.6021714      9.6791331      0.2            92.940695    
      2000   0.19993535     0.00082795331  0.00082795331  0              0              1133.9615      1282.1063      985.69984      0              5.5585225      0              0              9.6012095      9.6543617      0.2            92.693549    
      2100   0.1890018      0.00082744123  0.00082744123  0              0             -471.27781      138.97091     -1081.6253      0              132.80817      0              0              9.6002476      9.6756213      0.2            92.88836     
      2200   0.17371396     0.00079432054  0.00079432054  0              0              665.45782      396.93665      933.86789      0             -282.9963       0              0              9.5992857      9.658241       0.2            92.712216    
      2300   0.17322118     0.00076238824  0.00076238824  0              0              103.39036      709.21642     -502.57517      0              19.012886      0              0              9.5983239      9.6734315      0.2            92.848728    
      2400   0.19559081     0.00088228794  0.00088228794  0              0              570.98267      1152.0353     -10.243921      0             -193.0098       0              0              9.597362       9.6596528      0.2            92.707184    
      2500   0.17132278     0.0008404384   0.0008404384   0              0              904.48016      1078.5002      730.31665      0              769.46222      0              0              9.5964001      9.6435018      0.2            92.542902    
      2600   0.199644       0.00095624287  0.00095624287  0              0             -469.38867      210.38777     -1149.2809      0              487.50199      0              0              9.5954382      9.6729032      0.2            92.815745    
      2700   0.23271747     0.00067112828  0.00067112828  0              0              1306.3924      1284.2906      1328.3704      0              668.21079      0              0              9.5944763      9.6509669      0.2            92.595973    
      2800   0.22633786     0.00072139576  0.00072139576  0              0             -729.11554     -234.68319     -1223.6896      0              439.30424      0              0              9.5935144      9.6728008      0.2            92.796154    
      2900   0.20110201     0.00070465655  0.00070465655  0              0              547.01817      247.39808      846.48882      0             -230.93351      0              0              9.5925526      9.661152       0.2            92.675108    
      3000   0.26270441     0.0006521837   0.0006521837   0              0              253.18969      723.72012     -217.48139      0             -287.32526      0              0              9.5915907      9.6796607      0.2            92.843343    
      3100   0.22522093     0.00069876079  0.00069876079  0              0             -97.519043      130.00627     -325.19142      0              31.188351      0              0              9.5906288      9.6798783      0.2            92.83612     
      3200   0.20387218     0.00075608821  0.00075608821  0              0              485.52544      292.53233      678.38062      0              284.83933      0              0              9.5896669      9.6633949      0.2            92.668739    
      3300   0.19112873     0.0010066469   0.0010066469   0              0             -276.232        175.36815     -727.94618      0              97.508796      0              0              9.588705       9.6562783      0.2            92.591205    
      3400   0.18804343     0.0010210149   0.0010210149   0              0              762.47008      869.21504      655.61346      0             -270.58181      0              0              9.5877431      9.6467998      0.2            92.491038    
      3500   0.26955138     0.00090539045  0.00090539045  0              0             -13.687994      484.72773     -512.23731      0             -88.973879      0              0              9.5867813      9.656973       0.2            92.579288    
      3600   0.18512439     0.00069462195  0.00069462195  0              0              841.81667      1374.3226      309.18921      0              148.09556      0              0              9.5858194      9.6565558      0.2            92.565999    
      3700   0.27975439     0.00086579243  0.00086579243  0              0              317.73655      798.0644      -162.71926      0             -43.065156      0              0              9.5848575      9.667052       0.2            92.657316    
      3800   0.22657372     0.00071752925  0.00071752925  0              0              434.37638      925.30848     -56.672644      0              79.300611      0              0              9.5838956      9.6700755      0.2            92.676994    
      3900   0.20099274     0.00097844575  0.00097844575  0              0              414.65668      528.72295      300.45765      0             -160.33392      0              0              9.5829337      9.6719954      0.2            92.686091    
      4000   0.16645376     0.0011422158   0.0011422158   0              0              117.28515      684.11536     -449.66522      0             -181.91256      0              0              9.5819718      9.6759547      0.2            92.714726    
      4100   0.23548093     0.00084167908  0.00084167908  0              0              535.37989      610.86919      459.77538      0             -209.43895      0              0              9.58101        9.6686826      0.2            92.635745    
      4200   0.21128404     0.00088244336  0.00088244336  0              0             -173.89248      55.973011     -403.89353      0              628.17209      0              0              9.5800481      9.6604807      0.2            92.54787     
      4300   0.23592915     0.00086825134  0.00086825134  0              0              343.40268      340.75487      345.91624      0             -152.81015      0              0              9.5790862      9.6531085      0.2            92.467958    
      4400   0.20595981     0.00067534096  0.00067534096  0              0             -18.077971      229.32925     -265.59991      0             -83.032094      0              0              9.5781243      9.6342025      0.2            92.277589    
      4500   0.23914006     0.00082305557  0.00082305557  0              0              904.72583      1781.1544      28.144899      0             -166.58659      0              0              9.5771624      9.6336959      0.2            92.263471    
      4600   0.18744666     0.0010189802   0.0010189802   0              0              413.38663      723.68131      102.98414      0             -277.0091       0              0              9.5762005      9.6395178      0.2            92.309956    
      4700   0.19925042     0.00071096055  0.00071096055  0              0              357.94         971.66418     -255.9183       0              145.92142      0              0              9.5752387      9.6449821      0.2            92.353006    
      4800   0.22013723     0.00091355017  0.00091355017  0              0              940.87313      1478.726       402.8815       0              301.32555      0              0              9.5742768      9.6471868      0.2            92.364836    
      4900   0.17362136     0.00064609579  0.00064609579  0              0             -6.4046048      466.67671     -479.63217      0              47.987019      0              0              9.5733149      9.6625267      0.2            92.502411    
      5000   0.18449002     0.00064625531  0.00064625531  0              0              413.69565      435.61824      391.63756      0              54.489861      0              0              9.572353       9.646026       0.2            92.335166    
      5100   0.22990653     0.00064555167  0.00064555167  0              0              459.7004       1083.1536     -163.91286      0              244.55481      0              0              9.5713911      9.650265       0.2            92.366461    
      5200   0.21417976     0.00073121377  0.00073121377  0              0              610.01664      1236.7048     -16.815656      0             -350.74198      0              0              9.5704292      9.6452919      0.2            92.309584    
      5300   0.17538576     0.0007049295   0.0007049295   0              0              447.0766       752.46106      141.54688      0             -396.53079      0              0              9.5694674      9.6498347      0.2            92.343778    
      5400   0.20449118     0.00074788317  0.00074788317  0              0             -128.04873     -32.090034     -224.11096      0              93.441532      0              0              9.5685055      9.654159       0.2            92.375874    
      5500   0.20034077     0.00070310516  0.00070310516  0              0              385.64174      446.58713      324.56719      0              420.71108      0              0              9.5675436      9.6598853      0.2            92.421374    
      5600   0.25247508     0.00060349199  0.00060349199  0              0             -19.415697      302.49443     -341.43437      0             -1.2609455      0              0              9.5665817      9.6600577      0.2            92.413732    
      5700   0.15733166     0.0006753201   0.0006753201   0              0              541.21969      722.89106      359.44009      0              111.20689      0              0              9.5656198      9.6608649      0.2            92.412161    
      5800   0.16153061     0.00067417701  0.00067417701  0              0             -38.56795       132.68639     -209.94165      0              764.83308      0              0              9.564658       9.6785153      0.2            92.571689    
      5900   0.22389487     0.00090693733  0.00090693733  0              0              457.1908       820.70549      93.536671      0              572.7451       0              0              9.5636961      9.6659694      0.2            92.442394    
      6000   0.17179371     0.00076593234  0.00076593234  0              0              429.81819      811.72622      47.776781      0              740.24231      0              0              9.5627342      9.6640781      0.2            92.41501     
      6100   0.18519587     0.0006391365   0.0006391365   0              0             -342.97781     -447.82162     -238.25313      0              436.04982      0              0              9.5617723      9.6590912      0.2            92.358031    
      6200   0.19829076     0.00057414268  0.00057414268  0              0              516.16076      632.00177      400.18994      0             -37.202594      0              0              9.5608104      9.6629998      0.2            92.386109    
      6300   0.22330492     0.00060017722  0.00060017722  0              0             -44.775848      345.55828     -435.24767      0             -164.42263      0              0              9.5598485      9.6579802      0.2            92.328828    
      6400   0.20915047     0.00077659871  0.00077659871  0              0              41.810657     -327.26207      410.79788      0             -367.86964      0              0              9.5588867      9.6638903      0.2            92.376032    
      6500   0.20201286     0.00069367007  0.00069367007  0              0             -256.90818     -155.92705     -357.98845      0              252.27291      0              0              9.5579248      9.6741482      0.2            92.464781    
      6600   0.18852223     0.00052432496  0.00052432496  0              0              277.10819      380.55844      173.51319      0             -280.43112      0              0              9.5569629      9.6730177      0.2            92.444671    
      6700   0.16736411     0.00066552064  0.00066552064  0              0              270.76494      497.75238      43.674484      0             -318.19892      0              0              9.556001       9.6573081      0.2            92.285246    
      6800   0.16891669     0.00060368843  0.00060368843  0              0              260.51085      794.16289     -273.26839      0             -266.51592      0              0              9.5550391      9.6531247      0.2            92.235984    
      6900   0.1907923      0.00082726253  0.00082726253  0              0              970.5557       1411.2964      529.68015      0             -96.398202      0              0              9.5540772      9.6600196      0.2            92.292573    
      7000   0.22866022     0.00075297416  0.00075297416  0              0              127.11543      839.58603     -585.49551      0             -191.95043      0              0              9.5531154      9.6816459      0.2            92.489881    
      7100   0.2299043      0.00068683846  0.00068683846  0              0              1039.333       1494.0279      584.48601      0              189.43538      0              0              9.5521535      9.666301       0.2            92.333991    
      7200   0.28151956     0.00077078655  0.00077078655  0              0             -281.02287     -222.76811     -339.41037      0             -5.9323192      0              0              9.5511916      9.6627812      0.2            92.291075    
      7300   0.24233729     0.00082329842  0.00082329842  0              0              737.3362       1603.777      -129.22323      0              175.70525      0              0              9.5502297      9.6574515      0.2            92.23088     
      7400   0.17809284     0.00085113964  0.00085113964  0              0              967.88454      1376.1863      559.46291      0              293.99076      0              0              9.5492678      9.6602809      0.2            92.248609    
      7500   0.19032714     0.00093836153  0.00093836153  0              0              157.59983      1175.2846     -860.20796      0             -95.045442      0              0              9.5483059      9.6706413      0.2            92.338241    
      7600   0.22926525     0.00080075824  0.00080075824  0              0              931.54088      1026.9092      836.03695      0             -105.29197      0              0              9.5473441      9.6681255      0.2            92.30492     
      7700   0.25322692     0.00092068751  0.00092068751  0              0             -130.09233      310.43698     -570.75617      0             -49.549054      0              0              9.5463822      9.6792991      0.2            92.402289    
      7800   0.26972369     0.00082428128  0.00082428128  0              0              917.03916      1734.1796      99.775962      0              43.171642      0              0              9.5454203      9.6679524      0.2            92.284669    
      7900   0.23059679     0.00096777496  0.00096777496  0              0              950.22753      1372.2399      528.07255      0             -580.8752       0              0              9.5444584      9.657463       0.2            92.175254    
      8000   0.15708475     0.00090910158  0.00090910158  0              0              474.34417      1866.8292     -918.2848       0              387.34627      0              0              9.5434965      9.6654434      0.2            92.242125    
      8100   0.16737589     0.00093101758  0.00093101758  0              0              1805.918       2537.1696      1074.5007      0             -184.54951      0              0              9.5425346      9.6560521      0.2            92.143212    
      8200   0.1832983      0.00080912781  0.00080912781  0              0              542.16867      1995.5546     -911.36241      0             -326.94227      0              0              9.5415728      9.673795       0.2            92.303219    
      8300   0.18670492     0.00088028814  0.00088028814  0              0              1116.7926      1769.5234      463.90477      0             -727.46149      0              0              9.5406109      9.6585658      0.2            92.148618    
      8400   0.19842261     0.0008881333   0.0008881333   0              0              959.10371      1901.5117      16.565925      0             -218.76701      0              0              9.539649       9.6626686      0.2            92.178467    
      8500   0.17928296     0.0010116079   0.0010116079   0              0              357.99066      1142.4154     -426.54409      0             -104.36928      0              0              9.5386871      9.6615954      0.2            92.158936    
      8600   0.18726542     0.0010429872   0.0010429872   0              0              909.78645      1121.8434      697.59137      0              519.97586      0              0              9.5377252      9.6440511      0.2            91.982309    
      8700   0.17048533     0.00093921234  0.00093921234  0              0              597.86318      1892.2918     -696.70058      0             -38.731759      0              0              9.5367633      9.6561341      0.2            92.088266    
      8800   0.23040159     0.00059715032  0.00059715032  0              0              1087.3183      1561.8374      612.66401      0             -117.57995      0              0              9.5358015      9.6390295      0.2            91.915871    
      8900   0.18468305     0.00086677474  0.00086677474  0              0              465.31992      1253.8886     -323.38227      0             -289.98225      0              0              9.5348396      9.6495787      0.2            92.007185    
      9000   0.18625919     0.00087982935  0.00087982935  0              0              347.83289      651.77642      43.74951       0              36.249228      0              0              9.5338777      9.6480167      0.2            91.983012    
      9100   0.27217577     0.0007901649   0.0007901649   0              0              623.07318      995.3934       250.61103      0             -17.948159      0              0              9.5329158      9.6518371      0.2            92.010151    
      9200   0.23094253     0.00071366511  0.00071366511  0              0              242.12745      917.93065     -433.81837      0             -318.9586       0              0              9.5319539      9.6590569      0.2            92.069685    
      9300   0.18005236     0.00070640129  0.00070640129  0              0              567.23481      625.31248      509.0051       0             -45.782943      0              0              9.530992       9.652231       0.2            91.995337    
      9400   0.21185291     0.00072865396  0.00072865396  0              0             -174.27252      84.351728     -433.02462      0              408.23425      0              0              9.5300302      9.6699774      0.2            92.155176    
      9500   0.20451402     0.00084704657  0.00084704657  0              0              528.63258      939.51368      117.63597      0             -123.03572      0              0              9.5290683      9.6814168      0.2            92.254881    
      9600   0.21873148     0.00080032414  0.00080032414  0              0              46.043386     -91.54762       183.49099      0             -458.2946       0              0              9.5281064      9.6840426      0.2            92.270588    
      9700   0.20669773     0.00084226859  0.00084226859  0              0              319.17226      987.66409     -349.44865      0             -673.39248      0              0              9.5271445      9.6937142      0.2            92.353416    
      9800   0.26371207     0.00078473505  0.00078473505  0              0              514.04058      499.7307       528.20136      0             -239.95762      0              0              9.5261826      9.6961351      0.2            92.367154    
      9900   0.22335379     0.00084645684  0.00084645684  0              0              308.90358      1194.5998     -576.92505      0              31.880584      0              0              9.5252207      9.7168685      0.2            92.555317    
     10000   0.17740327     0.00065596595  0.00065596595  0              0              486.71915      565.91759      407.3859       0              290.57252      0              0              9.5242589      9.7149075      0.2            92.527293    
     10100   0.23380433     0.0010259273   0.0010259273   0              0              486.62331      1153.821      -180.69363      0             -473.60472      0              0              9.523297       9.7122244      0.2            92.492398    
     10200   0.16721708     0.0010288476   0.0010288476   0              0              559.59537      1239.6997     -120.65297      0             -394.31664      0              0              9.5223351      9.6951157      0.2            92.32014     
     10300   0.2124339      0.000762369    0.000762369    0              0              707.4227       1092.9569      321.75783      0             -211.82852      0              0              9.5213732      9.6926474      0.2            92.287313    
     10400   0.1754646      0.00082861113  0.00082861113  0              0             -393.0901      -248.4197      -537.87212      0             -30.266677      0              0              9.5204113      9.7047777      0.2            92.393476    
     10500   0.17451298     0.0010095067   0.0010095067   0              0              408.26348      367.01335      449.35953      0              226.4592       0              0              9.5194494      9.6845383      0.2            92.191472    
     10600   0.19239651     0.0009553106   0.0009553106   0              0              360.18132      978.5914      -258.36173      0              850.21126      0              0              9.5184876      9.6930884      0.2            92.263542    
     10700   0.23536775     0.00067096316  0.00067096316  0              0              492.04482      1164.1749     -180.22069      0              425.95303      0              0              9.5175257      9.6936365      0.2            92.259434    
     10800   0.22049387     0.00074187342  0.00074187342  0              0              746.60235      1024.0129      469.0239       0             -20.643171      0              0              9.5165638      9.6864568      0.2            92.181784    
     10900   0.24933167     0.00078063934  0.00078063934  0              0             -247.13894      67.626085     -562.069        0              175.24589      0              0              9.5156019      9.6803186      0.2            92.114058    
     11000   0.20672991     0.0009935634   0.0009935634   0              0              303.46285      153.85168      452.94336      0              477.05029      0              0              9.51464        9.6671309      0.2            91.979271    
     11100   0.21388951     0.0008640605   0.0008640605   0              0             -124.26751      1.0768607     -249.77059      0             -54.779594      0              0              9.5136781      9.6831044      0.2            92.121938    
     11200   0.24120347     0.00061781537  0.00061781537  0              0              211.8566       538.53459     -114.95943      0             -1.8921355      0              0              9.5127163      9.664477       0.2            91.935427    
     11300   0.21953069     0.00089208233  0.00089208233  0              0              269.56883      118.01693      420.98193      0              222.78308      0              0              9.5117544      9.6427991      0.2            91.719936    
     11400   0.25154236     0.00057267797  0.00057267797  0              0             -451.98788     -282.5953      -621.54897      0             -404.6204       0              0              9.5107925      9.649842       0.2            91.777645    
     11500   0.20936811     0.00064025938  0.00064025938  0              0              43.560729     -492.36689      579.37943      0             -496.34793      0              0              9.5098306      9.6411583      0.2            91.685783    
     11600   0.17564142     0.00061323639  0.00061323639  0              0              25.058359      533.9884      -483.99065      0             -1202.1074      0              0              9.5088687      9.653436       0.2            91.793255    
     11700   0.2133251      0.0005252138   0.0005252138   0              0              461.9793       537.45084      386.39434      0             -613.8576       0              0              9.5079068      9.643282       0.2            91.687427    
     11800   0.18524678     0.00072704137  0.00072704137  0              0              144.99905      408.71091     -118.8333       0              140.42129      0              0              9.506945       9.633333       0.2            91.583567    
     11900   0.20931768     0.00067413028  0.00067413028  0              0              134.33469      563.61039     -295.06807      0              111.23371      0              0              9.5059831      9.6430496      0.2            91.666667    
     12000   0.20987047     0.00071390829  0.00071390829  0              0              343.41349     -57.816211      744.53585      0             -189.29423      0              0              9.5050212      9.6429219      0.2            91.656178    
     12100   0.13679425     0.0007508963   0.0007508963   0              0             -152.00744      480.56044     -784.70066      0             -441.94634      0              0              9.5040593      9.6556711      0.2            91.76807     
     12200   0.17991342     0.00054608893  0.00054608893  0              0              562.22296      558.46158      565.85081      0             -350.94379      0              0              9.5030974      9.6513973      0.2            91.718169    
     12300   0.17638293     0.00053307638  0.00053307638  0              0              311.88183      881.87227     -258.25759      0             -391.01884      0              0              9.5021355      9.6515497      0.2            91.710333    
     12400   0.20460566     0.00062708622  0.00062708622  0              0              436.52955      927.90726     -54.986621      0             -398.42908      0              0              9.5011737      9.6617082      0.2            91.797567    
     12500   0.25376502     0.00069211744  0.00069211744  0              0              105.83737     -92.524798      304.08068      0             -298.00958      0              0              9.5002118      9.6636577      0.2            91.806795    
     12600   0.2212277      0.00062508687  0.00062508687  0              0             -373.16083     -154.84407     -591.63512      0             -371.07911      0              0              9.4992499      9.6739015      0.2            91.894808    
     12700   0.212082       0.00061138418  0.00061138418  0              0              713.03635      816.21766      609.70259      0              182.24393      0              0              9.498288       9.6485563      0.2            91.644767    
     12800   0.20816184     0.00071159192  0.00071159192  0              0             -319.08454     -99.737215     -538.57435      0             -470.2775       0              0              9.4973261      9.6636355      0.2            91.778698    
     12900   0.18093473     0.00071292978  0.00071292978  0              0              777.55321      1246.1412      308.82515      0              321.58429      0              0              9.4963642      9.6564104      0.2            91.70079     
     13000   0.21982354     0.000826272    0.000826272    0              0              907.01935      1729.521       84.369306      0             -146.92671      0              0              9.4954024      9.6504427      0.2            91.634837    
     13100   0.20086423     0.00074628166  0.00074628166  0              0             -101.74198      97.688424     -301.3187       0              501.07407      0              0              9.4944405      9.6587367      0.2            91.704301    
     13200   0.18412182     0.00083881639  0.00083881639  0              0              513.71543      684.97688      342.35271      0              18.28276       0              0              9.4934786      9.6621023      0.2            91.726962    
     13300   0.23473482     0.00077332119  0.00077332119  0              0              514.53648      1314.9072     -285.97266      0              93.326235      0              0              9.4925167      9.6662903      0.2            91.757422    
     13400   0.24508392     0.00085384779  0.00085384779  0              0              550.75216      865.16247      236.20831      0              426.78726      0              0              9.4915548      9.6672703      0.2            91.757426    
     13500   0.26692389     0.00077056276  0.00077056276  0              0              753.28764      1444.4814      61.945266      0              375.75901      0              0              9.490593       9.6661084      0.2            91.7371      
     13600   0.18921277     0.00081675815  0.00081675815  0              0              496.76571      1132.579      -139.19889      0              290.7185       0              0              9.4896311      9.6622312      0.2            91.691009    
     13700   0.19753289     0.00083371447  0.00083371447  0              0              794.08501      1351.3742      236.69076      0             -112.86982      0              0              9.4886692      9.6557045      0.2            91.619786    
     13800   0.23652695     0.00069442312  0.00069442312  0              0              10.016211      230.44926     -210.54512      0             -4.8489674      0              0              9.4877073      9.6545242      0.2            91.5993      
     13900   0.1490144      0.0007510751   0.0007510751   0              0              809.671        1478.2454      140.96407      0              50.045703      0              0              9.4867454      9.6561772      0.2            91.605695    
     14000   0.19489154     0.00071566532  0.00071566532  0              0              124.46231      365.5172      -116.71113      0             -92.078605      0              0              9.4857835      9.6504418      0.2            91.542002    
     14100   0.20059371     0.00088426833  0.00088426833  0              0              157.66601      345.54612     -30.344463      0             -60.224995      0              0              9.4848217      9.6489373      0.2            91.51845     
     14200   0.21343102     0.00081915039  0.00081915039  0              0              350.23683      577.86355      122.48349      0             -454.88015      0              0              9.4838598      9.6538953      0.2            91.556189    
     14300   0.21689801     0.00076671807  0.00076671807  0              0              492.99689      1087.1469     -101.28731      0              41.880098      0              0              9.4828979      9.6548144      0.2            91.555619    
     14400   0.20753101     0.00064318054  0.00064318054  0              0              491.23531      912.77051      69.582229      0              69.897482      0              0              9.481936       9.6543432      0.2            91.541865    
     14500   0.23926985     0.00075897923  0.00075897923  0              0              337.71941      601.05735      74.250355      0             -423.62016      0              0              9.4809741      9.6471305      0.2            91.464195    
     14600   0.19784444     0.0007728323   0.0007728323   0              0             -335.82669     -384.22018     -287.56769      0             -255.24905      0              0              9.4800122      9.6491804      0.2            91.474348    
     14700   0.19482235     0.00085650634  0.00085650634  0              0              426.21544      596.21815      256.07957      0             -221.82108      0              0              9.4790504      9.6504904      0.2            91.477484    
     14800   0.23658205     0.00072784662  0.00072784662  0              0              428.22501      1011.4806     -155.15093      0             -281.99159      0              0              9.4780885      9.651409       0.2            91.476909    
     14900   0.24476575     0.0006595861   0.0006595861   0              0              162.15694      390.80238     -66.598229      0              299.14852      0              0              9.4771266      9.6525484      0.2            91.478423    
     15000   0.22530971     0.00064210523  0.00064210523  0              0              386.53292      558.2331       214.67993      0             -13.075778      0              0              9.4761647      9.6503526      0.2            91.448331    
     15100   0.17500197     0.00081392245  0.00081392245  0              0             -60.293701      130.35621     -251.03879      0              114.95717      0              0              9.4752028      9.6398982      0.2            91.33999     
     15200   0.20395625     0.00074664312  0.00074664312  0              0              298.30298      466.545        129.93129      0             -445.9425       0              0              9.4742409      9.6402393      0.2            91.33395     
     15300   0.21180307     0.00062044233  0.00062044233  0              0              109.26828      188.52836      29.864738      0             -13.328138      0              0              9.4732791      9.6501565      0.2            91.418626    
     15400   0.21348383     0.00062185749  0.00062185749  0              0             -132.1347      -104.29274     -160.11049      0             -10.459256      0              0              9.4723172      9.6563011      0.2            91.467547    
     15500   0.21875713     0.00078206358  0.00078206358  0              0              229.63453      225.60424      233.5472       0             -429.4303       0              0              9.4713553      9.6573803      0.2            91.46848     
     15600   0.20134063     0.00054188549  0.00054188549  0              0             -327.07435     -368.83224     -285.47961      0             -718.34866      0              0              9.4703934      9.6577585      0.2            91.462773    
     15700   0.22241807     0.00082483393  0.00082483393  0              0              21.709508     -164.62611      207.89553      0             -201.8005       0              0              9.4694315      9.6525228      0.2            91.403904    
     15800   0.16049128     0.0008829657   0.0008829657   0              0              82.331124      156.23694      8.3133827      0             -363.81243      0              0              9.4684696      9.6545986      0.2            91.414274    
     15900   0.22848389     0.0007714275   0.0007714275   0              0              117.1199       322.92915     -88.795387      0             -267.27891      0              0              9.4675078      9.6622543      0.2            91.477467    
     16000   0.23934468     0.00049671745  0.00049671745  0              0             -97.540604     -344.06033      148.87999      0             -154.56939      0              0              9.4665459      9.6654134      0.2            91.498079    
     16100   0.19322248     0.00079876773  0.00079876773  0              0             -453.81793     -784.76117     -123.01409      0             -503.28193      0              0              9.465584       9.6566714      0.2            91.406034    
     16200   0.21452629     0.00077526681  0.00077526681  0              0             -537.92109     -992.46203     -83.507976      0             -526.64039      0              0              9.4646221      9.6609877      0.2            91.437598    
     16300   0.23821144     0.00059545507  0.00059545507  0              0             -23.342469     -157.70219      110.88395      0             -341.78454      0              0              9.4636602      9.6545265      0.2            91.367158    
     16400   0.18735301     0.00079353526  0.00079353526  0              0             -604.48168     -1142.2537     -66.849346      0             -347.61164      0              0              9.4626983      9.6465935      0.2            91.282805    
     16500   0.22588471     0.00084449807  0.00084449807  0              0             -344.13185     -707.07638      18.664423      0             -940.19458      0              0              9.4617365      9.6407691      0.2            91.218417    
     16600   0.24738367     0.00054630017  0.00054630017  0              0              91.348621      216.28033     -33.724487      0             -418.63492      0              0              9.4607746      9.6450544      0.2            91.249686    
     16700   0.1919957      0.00071511604  0.00071511604  0              0             -98.727719     -197.49587     -0.093974828    0             -269.5712       0              0              9.4598127      9.6500727      0.2            91.28788     
     16800   0.19255911     0.00067761876  0.00067761876  0              0              128.45755      171.43777      85.320707      0             -730.51792      0              0              9.4588508      9.6563498      0.2            91.337972    
     16900   0.19585507     0.00053253146  0.00053253146  0              0              220.61499      613.40671     -172.33858      0             -57.582279      0              0              9.4578889      9.6582969      0.2            91.347099    
     17000   0.19035445     0.00066817713  0.00066817713  0              0              760.46553      1344.112       176.66353      0             -110.04146      0              0              9.456927       9.6631992      0.2            91.38417     
     17100   0.25975214     0.00051128415  0.00051128415  0              0              175.30647      420.14712     -69.677109      0             -124.19197      0              0              9.4559652      9.6860242      0.2            91.590707    
     17200   0.18558417     0.00061460145  0.00061460145  0              0              110.23684      116.88113      103.46129      0             -22.858474      0              0              9.4550033      9.6820808      0.2            91.544106    
     17300   0.22024198     0.00057150297  0.00057150297  0              0              513.0732       1062.9272     -36.893331      0              6.6472727      0              0              9.4540414      9.6742976      0.2            91.46121     
     17400   0.20991945     0.00070099203  0.00070099203  0              0              534.85961      1080.8865     -11.300536      0              317.42139      0              0              9.4530795      9.6687283      0.2            91.399257    
     17500   0.14265375     0.0006011454   0.0006011454   0              0              558.89182      1059.8318      57.809468      0              42.053088      0              0              9.4521176      9.6509277      0.2            91.221704    
     17600   0.16961336     0.00069598274  0.00069598274  0              0              713.80384      1560.6737     -133.16354      0              237.50779      0              0              9.4511557      9.6536133      0.2            91.237803    
     17700   0.22529838     0.00055535031  0.00055535031  0              0              258.92355      346.94764      170.73021      0              732.7405       0              0              9.4501939      9.6510803      0.2            91.20458     
     17800   0.17215659     0.00065857075  0.00065857075  0              0              7.1047929      132.03531     -117.95207      0              86.161626      0              0              9.449232       9.6531886      0.2            91.215218    
     17900   0.23473769     0.00069943817  0.00069943817  0              0              145.45145      358.85026     -68.080766      0              349.64721      0              0              9.4482701      9.6536197      0.2            91.210006    
     18000   0.21531479     0.00081088952  0.00081088952  0              0              323.10837      466.56328      179.53383      0              421.48334      0              0              9.4473082      9.6536281      0.2            91.2008      
     18100   0.17413456     0.00068832786  0.00068832786  0              0              85.146886      350.32136     -180.1412       0              738.53152      0              0              9.4463463      9.6518314      0.2            91.174542    
     18200   0.25283524     0.00077938998  0.00077938998  0              0              628.56753      1082.5761      174.42258      0              100.77195      0              0              9.4453844      9.652444       0.2            91.171045    
     18300   0.26166572     0.00092368779  0.00092368779  0              0              135.70231      366.96434     -95.697217      0             -215.74354      0              0              9.4444226      9.6683896      0.2            91.312357    
     18400   0.27066197     0.00058795502  0.00058795502  0              0              216.52474      509.55212     -76.637139      0              21.312514      0              0              9.4434607      9.6571321      0.2            91.196747    
     18500   0.17862409     0.00054801158  0.00054801158  0              0              129.42486     -86.035121      344.73452      0             -94.596731      0              0              9.4424988      9.6492491      0.2            91.113023    
     18600   0.20256774     0.00067348644  0.00067348644  0              0             -501.34868     -544.55767     -458.26779      0             -364.4812       0              0              9.4415369      9.656257       0.2            91.169907    
     18700   0.22524012     0.0007274245   0.0007274245   0              0             -46.169426     -549.02071      456.57212      0             -273.99323      0              0              9.440575       9.6436197      0.2            91.041315    
     18800   0.24821759     0.00056012535  0.00056012535  0              0             -239.63931     -149.87268     -329.53097      0             -216.81799      0              0              9.4396131      9.6463503      0.2            91.057815    
     18900   0.20313699     0.000594891    0.000594891    0              0              35.677096     -62.967181      134.19116      0             -382.13123      0              0              9.4386513      9.6410726      0.2            90.998722    
     19000   0.29033408     0.00074186698  0.00074186698  0              0              651.75063      1085.0449      218.3075       0             -315.56688      0              0              9.4376894      9.6459548      0.2            91.035525    
     19100   0.22876975     0.00066173758  0.00066173758  0              0             -184.29625      45.221175     -413.93858      0              399.33782      0              0              9.4367275      9.6404753      0.2            90.974539    
     19200   0.2084928      0.0008320063   0.0008320063   0              0              423.29011      252.60319      593.84271      0              142.68338      0              0              9.4357656      9.6431474      0.2            90.990478    
     19300   0.23289428     0.00073348145  0.00073348145  0              0             -572.78118     -694.36916     -451.31415      0              136.35796      0              0              9.4348037      9.6498883      0.2            91.044802    
     19400   0.20429525     0.00074774685  0.00074774685  0              0              170.16318      7.4661316      332.74128      0             -609.81803      0              0              9.4338418      9.6544038      0.2            91.078119    
     19500   0.19189349     0.00054973893  0.00054973893  0              0             -279.88948     -538.24291     -21.677172      0             -322.15862      0              0              9.43288        9.6544923      0.2            91.069667    
     19600   0.22367605     0.00089107671  0.00089107671  0              0             -107.55265      13.410678     -228.64958      0             -457.37003      0              0              9.4319181      9.6500347      0.2            91.018336    
     19700   0.23586934     0.0006770814   0.0006770814   0              0              983.49898      1381.0356      585.81755      0             -187.65354      0              0              9.4309562      9.634291       0.2            90.860576    
     19800   0.14529129     0.00063474107  0.00063474107  0              0             -892.18944     -1095.6561     -688.88512      0             -279.29868      0              0              9.4299943      9.6380566      0.2            90.886819    
     19900   0.21636515     0.00062324269  0.00062324269  0              0             -66.129054     -686.42006      554.01585      0              244.59468      0              0              9.4290324      9.6378233      0.2            90.875348    
     20000   0.2029247      0.00079629688  0.00079629688  0              0             -411.52871     -570.94279     -252.23168      0              50.628216      0              0              9.4280705      9.6387656      0.2            90.874962    
     20100   0.21933493     0.0006689359   0.0006689359   0              0              124.82944      484.87686     -235.35224      0             -210.35633      0              0              9.4271087      9.6508504      0.2            90.979616    
     20200   0.22016874     0.00074196595  0.00074196595  0              0              322.90194     -44.300457      689.99617      0             -862.7484       0              0              9.4261468      9.6538866      0.2            90.998952    
     20300   0.23857471     0.00076000005  0.00076000005  0              0             -393.15686      58.308348     -844.78202      0             -99.32445       0              0              9.4251849      9.6623961      0.2            91.06987     
     20400   0.18479115     0.00078061107  0.00078061107  0              0              278.49242     -176.18269      733.04468      0             -7.1097095      0              0              9.424223       9.649244       0.2            90.936627    
     20500   0.17121168     0.00077332998  0.00077332998  0              0             -377.4734      -365.87144     -389.22263      0             -27.946503      0              0              9.4232611      9.6619348      0.2            91.046935    
     20600   0.22065092     0.00072366339  0.00072366339  0              0              240.63194      432.52961      48.592696      0             -403.96408      0              0              9.4222992      9.6685134      0.2            91.099627    
     20700   0.27070989     0.00056726617  0.00056726617  0              0              538.73969      763.6808       313.65486      0             -156.05639      0              0              9.4213374      9.6645841      0.2            91.053307    
     20800   0.22179486     0.00055780414  0.00055780414  0              0             -350.09145     -127.91889     -572.39917      0             -106.75611      0              0              9.4203755      9.6712135      0.2            91.106463    
     20900   0.21380885     0.00064750774  0.00064750774  0              0              543.94846      407.8013       679.9729       0             -344.24032      0              0              9.4194136      9.6616403      0.2            91.006986    
     21000   0.21254761     0.00071277619  0.00071277619  0              0             -274.41828     -182.02277     -366.91115      0             -24.418507      0              0              9.4184517      9.6757934      0.2            91.130993    
     21100   0.21982532     0.00067882777  0.00067882777  0              0              89.797516      245.62006     -66.155443      0             -47.952358      0              0              9.4174898      9.668839       0.2            91.056193    
     21200   0.18294549     0.00070401017  0.00070401017  0              0              678.16408      837.09922      519.10861      0             -225.48799      0              0              9.416528       9.6663647      0.2            91.023594    
     21300   0.22977771     0.0006922      0.0006922      0              0             -486.97964     -250.37404     -723.77772      0              199.74765      0              0              9.4155661      9.684005       0.2            91.180389    
     21400   0.18759434     0.00071573944  0.00071573944  0              0              721.15551      859.79971      582.34939      0              97.943286      0              0              9.4146042      9.680469       0.2            91.137784    
     21500   0.17895638     0.00081987565  0.00081987565  0              0             -25.061668      25.759835     -76.009662      0             -74.751255      0              0              9.4136423      9.6868397      0.2            91.188444    
     21600   0.24192202     0.0008370663   0.0008370663   0              0             -862.28293     -1327.2206     -397.46217      0              354.82608      0              0              9.4126804      9.6942607      0.2            91.248977    
     21700   0.25376663     0.00084165013  0.00084165013  0              0              440.23277      95.570445      784.75995      0             -592.5386       0              0              9.4117185      9.6821573      0.2            91.12574     
     21800   0.19666515     0.00064980738  0.00064980738  0              0             -506.12904     -184.11707     -828.27905      0             -244.19984      0              0              9.4107567      9.6827652      0.2            91.122147    
     21900   0.16732328     0.00064843045  0.00064843045  0              0              389.43907      328.1328       450.63325      0             -192.42392      0              0              9.4097948      9.6806083      0.2            91.092538    
     22000   0.19540031     0.00053700832  0.00053700832  0              0              13.233699     -188.33733      214.67901      0              24.29126       0              0              9.4088329      9.6978669      0.2            91.245609    
     22100   0.26530391     0.00065659578  0.00065659578  0              0             -367.16546     -89.236859     -645.22558      0             -422.95355      0              0              9.407871       9.7034472      0.2            91.288779    
     22200   0.22975022     0.00067804998  0.00067804998  0              0              589.35656      471.36813      707.19462      0              192.55001      0              0              9.4069091      9.6837422      0.2            91.094082    
     22300   0.21384476     0.00080434043  0.00080434043  0              0             -517.00724     -532.53178     -501.58239      0             -532.42203      0              0              9.4059472      9.709054       0.2            91.322849    
     22400   0.19179642     0.00077174728  0.00077174728  0              0             -116.20114     -258.0788       25.544581      0             -232.52417      0              0              9.4049854      9.7123331      0.2            91.344351    
     22500   0.24434701     0.00086656557  0.00086656557  0              0              69.074897     -261.46016      399.45272      0              57.858418      0              0              9.4040235      9.6975603      0.2            91.196085    
     22600   0.19298401     0.00071919597  0.00071919597  0              0             -131.49061      333.20654     -596.29008      0             -390.47747      0              0              9.4030616      9.7093862      0.2            91.297957    
     22700   0.18148818     0.00060713081  0.00060713081  0              0              572.84872      598.37066      547.16431      0             -910.11975      0              0              9.4020997      9.6927205      0.2            91.131925    
     22800   0.17079922     0.00072838986  0.00072838986  0              0             -91.407175      106.5349      -289.48183      0              559.17262      0              0              9.4011378      9.6887064      0.2            91.084864    
     22900   0.20793927     0.00055979486  0.00055979486  0              0              153.45324      421.56242     -114.77229      0             -145.89244      0              0              9.4001759      9.6859771      0.2            91.049889    
     23000   0.2010353      0.00063232056  0.00063232056  0              0              627.45041      810.28822      444.48646      0             -646.3253       0              0              9.3992141      9.6740056      0.2            90.92805     
     23100   0.17152588     0.00063164056  0.00063164056  0              0             -243.17904      4.9991043     -491.49122      0             -350.6599       0              0              9.3982522      9.6782786      0.2            90.958903    
     23200   0.1991032      0.00063899641  0.00063899641  0              0              509.93147      543.2558       476.49432      0             -265.37478      0              0              9.3972903      9.6834771      0.2            90.998446    
     23300   0.2340978      0.00064872679  0.00064872679  0              0              109.41133      493.1018      -274.44052      0              33.066344      0              0              9.3963284      9.6804727      0.2            90.9609      
     23400   0.19925303     0.00076745849  0.00076745849  0              0              388.3068       777.73741     -1.2595616      0             -179.48         0              0              9.3953665      9.6727685      0.2            90.879205    
     23500   0.20768216     0.00074702934  0.00074702934  0              0              396.99201      568.30782      225.5452       0              537.96849      0              0              9.3944046      9.674712       0.2            90.88816     
     23600   0.27637577     0.00083663709  0.00083663709  0              0             -234.16466     -163.68737     -304.74381      0              721.12664      0              0              9.3934428      9.6843467      0.2            90.969357    
     23700   0.18669733     0.00073999182  0.00073999182  0              0              321.57355      310.43497      332.5536       0             -455.02326      0              0              9.3924809      9.6733124      0.2            90.856401    
     23800   0.17958573     0.00074005845  0.00074005845  0              0              205.69164      533.77197     -122.54407      0             -279.0571       0              0              9.391519       9.6764437      0.2            90.876505    
     23900   0.19253346     0.00075122308  0.00075122308  0              0              329.27417      658.2778       0.12149109     0             -444.8965       0              0              9.3905571      9.6828352      0.2            90.927217    
     24000   0.20531371     0.00048186537  0.00048186537  0              0              187.16757      332.14679      42.053175      0             -138.68345      0              0              9.3895952      9.6785856      0.2            90.878001    
     24100   0.19781638     0.0007156192   0.0007156192   0              0              138.50624      396.11666     -119.22714      0             -586.58898      0              0              9.3886333      9.6742826      0.2            90.828292    
     24200   0.18162364     0.00076263643  0.00076263643  0              0              418.19197      671.59396      164.63203      0             -222.49905      0              0              9.3876715      9.6724766      0.2            90.802033    
     24300   0.19648016     0.00069836888  0.00069836888  0              0              61.200642      184.77352     -62.475792      0              425.10793      0              0              9.3867096      9.6789113      0.2            90.853129    
     24400   0.21063333     0.00062479055  0.00062479055  0              0              45.80774       197.63413     -106.13479      0             -201.58991      0              0              9.3857477      9.6883678      0.2            90.932576    
     24500   0.2448975      0.00084682491  0.00084682491  0              0             -227.67401     -668.02995      212.57361      0              465.82679      0              0              9.3847858      9.6893944      0.2            90.932891    
     24600   0.21316881     0.00069209521  0.00069209521  0              0             -456.78605     -664.33598     -249.3627       0              172.65962      0              0              9.3838239      9.7034527      0.2            91.055492    
     24700   0.22503796     0.00078691931  0.00078691931  0              0              334.50324      478.7603       190.09855      0              592.85264      0              0              9.382862       9.7025165      0.2            91.037374    
     24800   0.20919319     0.00077024519  0.00077024519  0              0              17.631829      72.965813     -37.815065      0              440.65209      0              0              9.3819002      9.7042196      0.2            91.04402     
     24900   0.22234793     0.00083984141  0.00083984141  0              0              308.07141      784.53361     -168.52674      0              104.40672      0              0              9.3809383      9.7016411      0.2            91.010496    
     25000   0.18547822     0.00069984082  0.00069984082  0              0             -231.21943     -720.61665      258.00865      0              188.52399      0              0              9.3799764      9.6906231      0.2            90.897816    
     25100   0.23274623     0.00074107516  0.00074107516  0              0             -372.80834     -399.20458     -346.5306       0             -927.76909      0              0              9.3790145      9.7034511      0.2            91.008808    
     25200   0.20782484     0.00055691514  0.00055691514  0              0              656.57218      1017.7903      295.22069      0             -1004.6679      0              0              9.3780526      9.7073304      0.2            91.035855    
     25300   0.23001122     0.00069655797  0.00069655797  0              0              24.275926      210.34003     -161.91743      0              54.059052      0              0              9.3770907      9.6953429      0.2            90.91411     
     25400   0.17763735     0.00062412638  0.00062412638  0              0              217.06578      560.60681     -126.61356      0             -100.02115      0              0              9.3761289      9.7085031      0.2            91.028176    
     25500   0.20060868     0.00075253557  0.00075253557  0              0              197.60504      11.024646      384.03993      0             -43.795899      0              0              9.375167       9.6898495      0.2            90.843957    
     25600   0.16217989     0.00074572415  0.00074572415  0              0             -80.84457       305.55854     -467.35653      0             -28.778338      0              0              9.3742051      9.6961076      0.2            90.893301    
     25700   0.17877755     0.00050082281  0.00050082281  0              0             -80.717152     -424.80373      263.25292      0             -76.363435      0              0              9.3732432      9.6983673      0.2            90.905155    
     25800   0.17305913     0.00059344916  0.00059344916  0              0             -5.1572864      22.403774     -32.83526       0              136.08871      0              0              9.3722813      9.683893       0.2            90.76017     
     25900   0.20603057     0.0006469779   0.0006469779   0              0             -237.68375     -207.73122     -267.76911      0             -420.74203      0              0              9.3713194      9.6809855      0.2            90.723608    
     26000   0.17131295     0.0005712305   0.0005712305   0              0              784.66593      985.14407      584.02591      0             -73.505833      0              0              9.3703576      9.6696005      0.2            90.607614    
     26100   0.20125186     0.00069470299  0.00069470299  0              0             -355.10404     -63.541727     -646.79138      0              93.449415      0              0              9.3693957      9.6879104      0.2            90.769866    
     26200   0.19387909     0.00064503652  0.00064503652  0              0             -159.15282     -734.91808      416.47309      0             -411.97092      0              0              9.3684338      9.687821       0.2            90.75971     
     26300   0.25562088     0.00057532362  0.00057532362  0              0             -302.50666     -617.48722      12.350176      0              117.46878      0              0              9.3674719      9.7035313      0.2            90.897556    
     26400   0.20084591     0.00087861376  0.00087861376  0              0             -77.735136      406.15734     -561.73396      0             -449.73801      0              0              9.36651        9.7065316      0.2            90.916325    
     26500   0.22586787     0.00094438189  0.00094438189  0              0             -31.245059     -1045.5449      982.93377      0             -950.45905      0              0              9.3655481      9.6959438      0.2            90.807828    
     26600   0.19215717     0.0007712424   0.0007712424   0              0             -864.18331     -862.09511     -866.41006      0             -604.2853       0              0              9.3645863      9.7096062      0.2            90.926445    
     26700   0.19850402     0.00069790841  0.00069790841  0              0             -268.31748     -1080.0556      543.25903      0             -496.27998      0              0              9.3636244      9.6951349      0.2            90.781601    
     26800   0.17992463     0.00069709138  0.00069709138  0              0             -181.44445     -580.82854      217.78163      0             -404.05745      0              0              9.3626625      9.7060075      0.2            90.874073    
     26900   0.21662727     0.00078720767  0.00078720767  0              0             -847.97929     -743.98991     -952.0906       0             -457.24831      0              0              9.3617006      9.7137122      0.2            90.936866    
     27000   0.20214124     0.00057966799  0.00057966799  0              0              581.82059     -9.4250135      1172.957       0             -180.80052      0              0              9.3607387      9.6977317      0.2            90.777933    
     27100   0.20673209     0.00064055301  0.00064055301  0              0             -284.82373      304.48267     -874.26319      0              382.42909      0              0              9.3597768      9.7115805      0.2            90.898226    
     27200   0.20308052     0.0005896488   0.0005896488   0              0             -152.35605     -372.29484      67.447026      0             -147.03491      0              0              9.358815       9.6999218      0.2            90.779773    
     27300   0.25184604     0.00076510657  0.00076510657  0              0              337.40311      29.199868      645.46139      0             -159.30201      0              0              9.3578531      9.696016       0.2            90.733893    
     27400   0.21891182     0.00067171734  0.00067171734  0              0             -1028.8972     -1064.427      -993.48174      0              78.4643        0              0              9.3568912      9.713473       0.2            90.88791     
     27500   0.26615685     0.00072467902  0.00072467902  0              0              267.64183     -338.79693      873.95741      0              271.51584      0              0              9.3559293      9.7030941      0.2            90.781462    
     27600   0.1769247      0.0005815814   0.0005815814   0              0             -505.77322     -735.52039     -276.15459      0              329.22968      0              0              9.3549674      9.7297666      0.2            91.021649    
     27700   0.24143169     0.00058135901  0.00058135901  0              0             -103.40965      228.76223     -435.71071      0              104.8439       0              0              9.3540055      9.7286375      0.2            91.001729    
     27800   0.22689877     0.00079040658  0.00079040658  0              0              694.80859      581.01655      808.47495      0             -304.18841      0              0              9.3530437      9.7230245      0.2            90.939872    
     27900   0.15925381     0.00085840604  0.00085840604  0              0             -462.4539      -76.824722     -848.20024      0             -447.74968      0              0              9.3520818      9.7348758      0.2            91.041355    
[...]
     42900   0.24188013     0.00068730134  0.00068730134  0              0              254.6668       234.67463      274.52356      0             -429.86972      0              0              9.2077993      9.7836889      0.2            90.086244    
     43000   0.21896972     0.00078802741  0.00078802741  0              0             -922.77518     -1013.1459     -832.53112      0             -280.01757      0              0              9.2068374      9.7959037      0.2            90.189292    
     43100   0.19421415     0.00062852949  0.00062852949  0              0             -85.087059     -651.23219      480.91314      0             -806.80502      0              0              9.2058755      9.7882496      0.2            90.109407    
     43200   0.21556236     0.0006294563   0.0006294563   0              0             -549.04223     -1390.2538      292.04687      0             -377.71361      0              0              9.2049137      9.7929381      0.2            90.14315     
     43300   0.18981529     0.00067307385  0.00067307385  0              0             -746.29205     -630.32171     -862.40255      0             -524.08508      0              0              9.2039518      9.7920067      0.2            90.125157    
     43400   0.18550413     0.00074980747  0.00074980747  0              0              629.18537      750.17708      508.0195       0             -922.20584      0              0              9.2029899      9.7727179      0.2            89.938224    
     43500   0.21693981     0.00081143208  0.00081143208  0              0              570.27325      866.61011      273.81739      0             -337.41737      0              0              9.202028       9.7673541      0.2            89.879466    
     43600   0.19141488     0.00082701003  0.00082701003  0              0             -184.65794      314.05618     -683.50593      0             -219.75819      0              0              9.2010661      9.7679287      0.2            89.875358    
     43700   0.21505723     0.00074042391  0.00074042391  0              0              585.15059      796.30593      373.83855      0              539.38721      0              0              9.2001042      9.7598669      0.2            89.791793    
     43800   0.18203665     0.0009099222   0.0009099222   0              0             -167.58143     -597.03955      261.73266      0              278.36304      0              0              9.1991424      9.7670574      0.2            89.848552    
     43900   0.24213172     0.00080279798  0.00080279798  0              0             -219.55437      65.869784     -505.12092      0             -494.8318       0              0              9.1981805      9.7691966      0.2            89.858834    
     44000   0.29333438     0.0009635744   0.0009635744   0              0              389.89107      494.76774      284.88802      0             -383.85997      0              0              9.1972186      9.7685575      0.2            89.843559    
     44100   0.22379897     0.00089175476  0.00089175476  0              0              412.70848      618.22433      207.04246      0             -349.82985      0              0              9.1962567      9.7740636      0.2            89.884798    
     44200   0.17866072     0.00088056448  0.00088056448  0              0             -133.09617      307.35303     -573.6712       0             -63.513939      0              0              9.1952948      9.783257       0.2            89.959932    
     44300   0.23072412     0.00081203657  0.00081203657  0              0              719.13643      1003.669       434.46145      0             -846.46688      0              0              9.1943329      9.7734533      0.2            89.860384    
     44400   0.18962677     0.00076233373  0.00076233373  0              0              554.9868       1000.0551      109.77605      0              96.283776      0              0              9.1933711      9.7757636      0.2            89.872222    
     44500   0.19573472     0.00084050909  0.00084050909  0              0              54.059816      642.89041     -534.93193      0             -695.47652      0              0              9.1924092      9.785758       0.2            89.954691    
     44600   0.11728725     0.00095853807  0.00095853807  0              0              666.24303      799.07845      533.28194      0             -48.687884      0              0              9.1914473      9.7844736      0.2            89.933474    
     44700   0.17539575     0.00077620219  0.00077620219  0              0              332.86218      577.93585      87.674934      0             -303.38334      0              0              9.1904854      9.7757682      0.2            89.844056    
     44800   0.19612973     0.00064859628  0.00064859628  0              0              28.547587      535.15369     -478.21466      0              664.79391      0              0              9.1895235      9.7666322      0.2            89.750697    
     44900   0.20440263     0.00076954565  0.00076954565  0              0              680.43177      943.26972      417.47324      0              765.52601      0              0              9.1885617      9.7809144      0.2            89.872535    
     45000   0.18844621     0.00073483171  0.00073483171  0              0              152.11552      300.01525      4.071415       0             -61.87338       0              0              9.1875998      9.7990713      0.2            90.029946    
     45100   0.19221125     0.00071922317  0.00071922317  0              0             -33.791247      251.59018     -319.31177      0             -4.4380057      0              0              9.1866379      9.8170148      0.2            90.18536     
     45200   0.20851375     0.00095636818  0.00095636818  0              0              538.97913      695.96207      381.85518      0              283.24362      0              0              9.185676       9.8030911      0.2            90.048019    
     45300   0.22936296     0.00079657954  0.00079657954  0              0              514.16301      1039.6671     -11.477745      0              23.522069      0              0              9.1847141      9.8151058      0.2            90.148941    
     45400   0.18652565     0.00075270456  0.00075270456  0              0              86.760825      697.28477     -523.91218      0              275.65947      0              0              9.1837522      9.8267564      0.2            90.246496    
     45500   0.21218921     0.00083621328  0.00083621328  0              0              1194.7966      1930.6974      458.75302      0              500.0453       0              0              9.1827904      9.8088098      0.2            90.072244    
     45600   0.21946093     0.00095427193  0.00095427193  0              0              857.26466      1545.2048      169.21196      0              232.13537      0              0              9.1818285      9.8179663      0.2            90.146883    
     45700   0.22455778     0.0012213286   0.0012213286   0              0              399.06026      1451.5352     -653.53474      0              213.68619      0              0              9.1808666      9.830259       0.2            90.250296    
     45800   0.21923828     0.0011172924   0.0011172924   0              0              708.12937      1010.8765      405.20832      0             -92.494806      0              0              9.1799047      9.831116       0.2            90.248708    
     45900   0.21551816     0.00088345869  0.00088345869  0              0              456.61789      564.0332       349.07798      0             -123.55378      0              0              9.1789428      9.8387324      0.2            90.309162    
     46000   0.22011125     0.00074538058  0.00074538058  0              0             -314.55154      39.690455     -668.96826      0              39.005076      0              0              9.1779809      9.844797       0.2            90.355359    
     46100   0.2263393      0.00072926173  0.00072926173  0              0              568.26144      747.30663      389.10577      0              369.38419      0              0              9.1770191      9.8396223      0.2            90.298402    
     46200   0.22431283     0.00071366445  0.00071366445  0              0              228.96426      17.475904      440.33523      0              232.58039      0              0              9.1760572      9.8446056      0.2            90.334663    
     46300   0.17527388     0.0006763425   0.0006763425   0              0             -18.728244      497.12182     -534.72783      0             -249.86946      0              0              9.1750953      9.8537522      0.2            90.409115    
     46400   0.21441981     0.00082180309  0.00082180309  0              0              88.141042      350.07939     -173.91383      0             -168.67697      0              0              9.1741334      9.8341244      0.2            90.219569    
     46500   0.16058757     0.00090890178  0.00090890178  0              0              519.14384      486.35504      551.77925      0             -88.930423      0              0              9.1731715      9.8310283      0.2            90.181709    
     46600   0.22669802     0.00081862843  0.00081862843  0              0              296.25419      858.2514      -265.84767      0             -44.06616       0              0              9.1722096      9.8462482      0.2            90.311853    
     46700   0.17913946     0.00077484211  0.00077484211  0              0              450.20561      1292.6551     -392.35162      0             -220.07778      0              0              9.1712478      9.8609184      0.2            90.436926    
     46800   0.19272111     0.00095735841  0.00095735841  0              0              876.51177      1179.4023      573.47659      0             -685.52797      0              0              9.1702859      9.8623376      0.2            90.440455    
     46900   0.21589584     0.00093494369  0.00093494369  0              0              554.97992      1141.3489     -31.516747      0             -410.90711      0              0              9.169324       9.8823267      0.2            90.614255    
     47000   0.20054699     0.00080608339  0.00080608339  0              0              328.38974      1187.6836     -531.03189      0             -466.63024      0              0              9.1683621      9.8727742      0.2            90.517169    
     47100   0.20221788     0.00077346656  0.00077346656  0              0              667.06274      973.05153      360.94507      0             -83.191934      0              0              9.1674002      9.8630193      0.2            90.418245    
     47200   0.2367825      0.00072381666  0.00072381666  0              0              265.95436      331.9115       199.89582      0              6.7835749      0              0              9.1664383      9.8625996      0.2            90.404911    
     47300   0.20075451     0.00066881552  0.00066881552  0              0              20.713693      466.56393     -425.28229      0              288.38361      0              0              9.1654765      9.8608188      0.2            90.379103    
     47400   0.17137172     0.00082986223  0.00082986223  0              0              556.69961      845.61711      267.64172      0              577.12885      0              0              9.1645146      9.8544625      0.2            90.311365    
     47500   0.21530737     0.00069245845  0.00069245845  0              0              851.78378      1466.1415      237.27758      0              636.90585      0              0              9.1635527      9.880437       0.2            90.539905    
     47600   0.17115853     0.00080967302  0.00080967302  0              0              148.87898      687.68671     -390.05138      0              108.09471      0              0              9.1625908      9.8911234      0.2            90.628316    
     47700   0.21181399     0.00066645618  0.00066645618  0              0              541.81097      1068.7189      14.769635      0              147.62958      0              0              9.1616289      9.8822412      0.2            90.537427    
     47800   0.20178641     0.00081723073  0.00081723073  0              0              648.54898      961.47914      335.47895      0              434.36958      0              0              9.160667       9.8820373      0.2            90.526054    
     47900   0.20989827     0.00097405367  0.00097405367  0              0              607.11849      1325.7308     -111.63134      0             -375.84737      0              0              9.1597052      9.8796488      0.2            90.49467     
     48000   0.19995638     0.00075644968  0.00075644968  0              0              401.57584      905.93857     -102.92303      0             -229.76238      0              0              9.1587433      9.8745311      0.2            90.438295    
     48100   0.20167125     0.00055659901  0.00055659901  0              0              352.05615      475.33625      228.66301      0             -145.16191      0              0              9.1577814      9.8745807      0.2            90.429252    
     48200   0.2199089      0.00082486253  0.00082486253  0              0              24.546971      123.6905      -74.702638      0              14.820436      0              0              9.1568195      9.8697138      0.2            90.375188    
     48300   0.14898387     0.00094743601  0.00094743601  0              0              106.34601      437.23365     -224.6629       0              202.7981       0              0              9.1558576      9.8699654      0.2            90.367998    
     48400   0.17292986     0.00077026452  0.00077026452  0              0              409.63135      728.8717       90.257361      0              606.02363      0              0              9.1548957      9.8666557      0.2            90.328204    
     48500   0.18957122     0.00074343887  0.00074343887  0              0              321.81714      533.65875      109.842        0              341.54951      0              0              9.1539339      9.8603162      0.2            90.260682    
     48600   0.17589939     0.00072865099  0.00072865099  0              0              94.552933      394.71952     -205.73939      0              271.73697      0              0              9.152972       9.8557717      0.2            90.209602    
     48700   0.21883285     0.00064851003  0.00064851003  0              0              426.06334      829.89831      22.100602      0              401.92541      0              0              9.1520101      9.8454849      0.2            90.105977    
     48800   0.22047234     0.00057330774  0.00057330774  0              0              478.4708       871.17993      85.62761       0              625.60035      0              0              9.1510482      9.8612919      0.2            90.241158    
     48900   0.1946397      0.00070947448  0.00070947448  0              0              409.53733      856.00512     -37.030847      0              315.60688      0              0              9.1500863      9.8620888      0.2            90.238963    
     49000   0.21517977     0.00080502779  0.00080502779  0              0              508.03837      1037.8296     -21.895912      0             -240.29123      0              0              9.1491244      9.8639462      0.2            90.246471    
     49100   0.23910415     0.00096062766  0.00096062766  0              0              322.75997      686.10954     -40.725923      0             -172.11564      0              0              9.1481626      9.8741346      0.2            90.330189    
     49200   0.2036875      0.00086587031  0.00086587031  0              0             -324.61075     -881.86238      232.50048      0              536.76535      0              0              9.1472007      9.8753324      0.2            90.331647    
     49300   0.2420257      0.0008242287   0.0008242287   0              0             -189.78967     -350.12652     -29.598277      0              434.45167      0              0              9.1462388      9.869641       0.2            90.270094    
     49400   0.22382741     0.001027707    0.001027707    0              0             -233.60696     -221.76519     -245.56297      0              155.77996      0              0              9.1452769      9.866096       0.2            90.22818     
     49500   0.19468168     0.00075059745  0.00075059745  0              0              513.73387      766.42135      260.903        0             -336.25233      0              0              9.144315       9.8529366      0.2            90.098356    
     49600   0.19202913     0.00067197725  0.00067197725  0              0              340.07828      536.70921      143.32753      0              194.05536      0              0              9.1433531      9.8641413      0.2            90.191327    
     49700   0.17782728     0.00070333443  0.00070333443  0              0             -97.695937      166.57082     -362.09558      0              441.90332      0              0              9.1423913      9.8712096      0.2            90.246461    
     49800   0.23023252     0.00087429069  0.00087429069  0              0             -178.49558     -325.9888      -31.190026      0             -238.03394      0              0              9.1414294      9.8708596      0.2            90.233766    
     49900   0.17964432     0.00093731291  0.00093731291  0              0              377.24967      376.28037      378.08321      0             -170.45327      0              0              9.1404675      9.8785666      0.2            90.294717    
     50000   0.24025953     0.00089659591  0.00089659591  0              0              143.28787      411.46474     -125.01186      0             -67.543608      0              0              9.1395056      9.8810007      0.2            90.307461    
     50100   0.26732307     0.00080848876  0.00080848876  0              0              89.522883      472.90673     -293.97967      0              388.86007      0              0              9.1385437      9.8771147      0.2            90.262444    
     50168   0.22253806     0.00058970748  0.00058970748  0              0              384.692        313.89675      455.34769      0             -206.86049      0              0              9.1378896      9.8658314      0.2            90.152879    
Loop time of 0.92402 on 1 procs for 50000 steps with 44 atoms

Performance: 46752.226 ns/day, 0.001 hours/ns, 54111.372 timesteps/s
99.6% CPU use with 1 MPI tasks x 1 OpenMP threads

MPI task timing breakdown:
Section |  min time  |  avg time  |  max time  |%varavg| %total
---------------------------------------------------------------
Pair    | 0          | 0          | 0          |   0.0 |  0.00
Bond    | 0.11478    | 0.11478    | 0.11478    |   0.0 | 12.42
Neigh   | 0          | 0          | 0          |   0.0 |  0.00
Comm    | 0.27656    | 0.27656    | 0.27656    |   0.0 | 29.93
Output  | 0.0057749  | 0.0057749  | 0.0057749  |   0.0 |  0.62
Modify  | 0.50474    | 0.50474    | 0.50474    |   0.0 | 54.62
Other   |            | 0.02216    |            |       |  2.40

Nlocal:             44 ave          44 max          44 min
Histogram: 1 0 0 0 0 0 0 0 0 0
Nghost:            358 ave         358 max         358 min
Histogram: 1 0 0 0 0 0 0 0 0 0
Neighs:              0 ave           0 max           0 min
Histogram: 1 0 0 0 0 0 0 0 0 0

Total # of neighbors = 0
Ave neighs/atom = 0
Ave special neighs/atom = 20.181818
Neighbor list builds = 0
Dangerous builds = 0


Total wall time: 0:00:00
