LAMMPS data file via write_data, version 23 Jun 2022, timestep = 10000

80 atoms
4 atom types

-4.8320922573579415 4.8320922573579415 xlo xhi
-4.8320922573579415 4.8320922573579415 ylo yhi
-0.1 0.1 zlo zhi

Atoms # sphere

51 3 1 1 -4.337198032058795 -4.3782306732476375 0 0 1 0
76 4 0.7 2.915451895043732 -3.7489530442425556 4.78060079787667 0 1 0 0
12 1 1.6 0.2441406249999999 -2.613586964930253 4.699487770115286 0 0 0 0
77 4 0.7 2.915451895043732 -1.438093989436306 -4.706945406668235 0 0 0 0
62 4 0.7 2.915451895043732 -2.2552143246146525 -3.9793874994437033 0 0 1 0
68 4 0.7 2.915451895043732 -0.10985018682797598 -4.2082257306140916 0 0 0 0
39 2 1.3 0.4551661356395083 0.8493292428776664 -4.355374854334835 0 0 0 0
27 2 1.3 0.4551661356395083 2.362738492575242 -4.286159111799779 0 0 1 0
65 4 0.7 2.915451895043732 1.5220031024083172 -4.003073965135824 0 0 1 0
24 2 1.3 0.4551661356395083 4.43870158534265 -4.601713577658805 0 -1 0 0
55 3 1 1 -4.127722940803203 -2.8608032534694114 0 0 0 0
11 1 1.6 0.2441406249999999 -3.282408633157173 -3.6231932413759713 0 0 0 0
54 3 1 1 -2.3162630483281306 -2.947451105700091 0 0 0 0
2 1 1.6 0.2441406249999999 -1.1810235815989092 -3.6670398259429424 0 1 1 0
19 1 1.6 0.2441406249999999 0.26493794093588896 -3.156173300581636 0 0 0 0
5 1 1.6 0.2441406249999999 1.714862601759748 -3.062048622056737 0 0 0 0
18 1 1.6 0.2441406249999999 3.201069776163755 -3.164604333585894 0 -1 0 0
38 2 1.3 0.4551661356395083 4.651326794677771 -3.4284535145304242 0 -1 1 0
6 1 1.6 0.2441406249999999 -3.1320787907153456 -2.257068995598153 0 0 0 0
56 3 1 1 -1.932289397085905 -2.1514415147406485 0 0 0 0
52 3 1 1 -2.296619806943684 -1.32583193614906 0 0 0 0
17 1 1.6 0.2441406249999999 -0.739987662685623 -2.173739359359096 0 0 0 0
71 4 0.7 2.915451895043732 1.015602229134343 -2.099953985288185 0 0 0 0
66 4 0.7 2.915451895043732 1.7356293200847057 -2.006395112371684 0 0 0 0
63 4 0.7 2.915451895043732 2.5554719920755256 -2.143050173552914 0 0 0 0
9 1 1.6 0.2441406249999999 3.5063836957649626 -1.537982678963289 0 0 0 0
44 3 1 1 4.483391100232109 -2.4462232106912314 0 -1 0 0
13 1 1.6 0.2441406249999999 -4.438514387964335 -1.5132693305569935 0 1 0 0
34 2 1.3 0.4551661356395083 -3.217179301283381 -0.9119752041339595 0 0 0 0
64 4 0.7 2.915451895043732 -1.5779960558714787 -1.4091927470966596 0 0 0 0
72 4 0.7 2.915451895043732 -0.9814001723469428 -1.0367995504476748 0 0 0 0
47 3 1 1 0.27711607729388454 -1.8627640746766692 0 0 0 0
22 2 1.3 0.4551661356395083 -0.10566154004545592 -0.6814896794011842 0 0 1 0
28 2 1.3 0.4551661356395083 1.036321694521928 -1.2480471960723198 0 0 0 0
43 3 1 1 2.3231191236618587 -1.3526318046008994 0 0 0 0
25 2 1.3 0.4551661356395083 2.868954943471584 -0.39677381412406465 0 0 0 0
70 4 0.7 2.915451895043732 3.79387859857973 -0.5076618347144564 0 -1 0 0
37 2 1.3 0.4551661356395083 -4.2041891974008525 -0.12673717460342804 0 0 0 0
31 2 1.3 0.4551661356395083 -3.1702408327193026 0.32180552936059037 0 0 0 0
15 1 1.6 0.2441406249999999 -1.7985369846040054 -0.3160870142078407 0 0 0 0
40 2 1.3 0.4551661356395083 0.6882546986948652 0.3290919389786833 0 0 0 0
23 2 1.3 0.4551661356395083 1.7540841098137836 -0.12707096285268715 0 -1 0 0
42 3 1 1 4.47038542905011 -0.5584316306135628 0 -1 0 0
10 1 1.6 0.2441406249999999 -4.365099472049562 1.1147295787486193 0 1 0 0
46 3 1 1 -3.3156840148075 1.550953843625229 0 0 0 0
33 2 1.3 0.4551661356395083 -2.1494597437638534 1.0015793683631493 0 0 0 0
7 1 1.6 0.2441406249999999 -0.7174621361284359 0.723280036462933 0 0 0 0
69 4 0.7 2.915451895043732 -0.8410384900311407 1.8455660224540154 0 0 0 0
61 4 0.7 2.915451895043732 1.5720093046508241 0.7167258201237745 0 0 0 0
14 1 1.6 0.2441406249999999 2.6818358380139795 0.8877142239622495 0 -1 -1 0
8 1 1.6 0.2441406249999999 3.972485020385675 0.493268071101042 0 0 0 0
53 3 1 1 -4.0701036161362545 2.3533060945303044 0 0 0 0
74 4 0.7 2.915451895043732 -3.386600398646782 2.412079285983012 0 0 0 0
67 4 0.7 2.915451895043732 -2.5736788054259025 1.8327894116320023 0 0 -1 0
30 2 1.3 0.4551661356395083 -1.6050801299052577 2.0229622383403356 0 0 0 0
45 3 1 1 0.4318571485974134 1.2534963268952053 0 1 0 0
75 4 0.7 2.915451895043732 0.9746848973151492 2.7870695107893804 0 0 0 0
4 1 1.6 0.2441406249999999 1.379306763348966 1.7701601310762385 0 0 0 0
26 2 1.3 0.4551661356395083 2.5594551977306406 2.217124423247813 0 0 0 0
58 3 1 1 3.9276217186914844 1.6786216932640672 0 -1 0 0
78 4 0.7 2.915451895043732 4.599151347064137 2.1024494604762527 0 0 0 0
36 2 1.3 0.4551661356395083 4.82925245959629 3.085237623974738 0 0 0 0
41 3 1 1 -3.800318325566208 3.1888101481058557 0 0 0 0
48 3 1 1 -2.692167573368046 2.6514184883790772 0 0 -1 0
73 4 0.7 2.915451895043732 -1.98035658985409 2.8228592037841027 0 0 0 0
79 4 0.7 2.915451895043732 -1.1094950833285373 2.7567067812189183 0 0 0 0
1 1 1.6 0.2441406249999999 -0.08740533810543205 2.6398883949557392 0 0 0 0
57 3 1 1 0.782088578870991 3.5079254583469153 0 0 0 0
29 2 1.3 0.4551661356395083 1.758591044625506 3.22137214573823 0 0 0 0
3 1 1.6 0.2441406249999999 2.888194744260396 4.02474449697653 0 0 -1 0
21 2 1.3 0.4551661356395083 3.6109490744210175 2.8504304894944283 0 -1 -1 0
32 2 1.3 0.4551661356395083 -4.512787167821599 4.233226497187858 0 0 0 0
60 3 1 1 -3.4878483014883797 4.000352725103563 0 1 -1 0
50 3 1 1 -2.6699004928429444 3.521810735158801 0 1 -1 0
20 1 1.6 0.2441406249999999 -1.4837880062763213 3.8364200689755625 0 0 -1 0
16 1 1.6 0.2441406249999999 -0.1406351304818072 4.323704770068063 0 0 0 0
35 2 1.3 0.4551661356395083 1.5955769180292334 4.392868429777516 0 0 0 0
59 3 1 1 3.422157247883738 -4.452018924667663 0 0 1 0
80 4 0.7 2.915451895043732 3.752615413963862 4.6047981463848755 0 0 -1 0
49 3 1 1 4.060938655144814 3.8416210601861573 0 0 0 0

Velocities

51 -0.1373419038696911 0.08700015006994848 0 0 0 0
76 -0.11044882879542245 0.10965120376974166 0 0 0 0
12 0.15750393684510625 0.1309668205089194 0 0 0 0
77 0.14976065180346776 0.16929725759792735 0 0 0 0
62 0.1085253355729602 0.18512180343697646 0 0 0 0
68 0.09008317833234175 0.09594889408807249 0 0 0 0
39 0.15074280006434332 0.060454836583944196 0 0 0 0
27 -0.09844822818688637 0.21934559769621717 0 0 0 0
65 -0.05037901271954064 -0.06575021459656 0 0 0 0
24 0.14134327019658774 0.1293669433278712 0 0 0 0
55 0.03853957972227385 -0.05686825222430225 0 0 0 0
11 -0.20527163534735024 0.18336646930469905 0 0 0 0
54 0.0021487621781269292 -0.008905027305607228 0 0 0 0
2 -0.047248803659272795 -0.11693811223328412 0 0 0 0
19 -0.11284331193706038 -0.0037750881647833664 0 0 0 0
5 -0.08281317814161536 -0.12481722181090738 0 0 0 0
18 0.14991536201370556 0.05597021968233554 0 0 0 0
38 -0.19894630510483138 -0.04804014759946242 0 0 0 0
6 0.003944407432306154 0.08729314912780463 0 0 0 0
56 0.1616912998675698 -0.004296099823041813 0 0 0 0
52 0.08622054833567347 -0.140450534281735 0 0 0 0
17 -0.008667559946680675 -0.010360686943977992 0 0 0 0
71 -0.017236145147601183 -0.1554148496356988 0 0 0 0
66 -0.1872945798054347 -0.05188430485308804 0 0 0 0
63 -0.0741289576376596 0.06674061238045431 0 0 0 0
9 0.011616657155230806 -0.2297429312003175 0 0 0 0
44 -0.019841770227944977 -0.08751070393193859 0 0 0 0
13 0.03488142468874784 -0.04007949899153576 0 0 0 0
34 0.0040683549639519935 -0.13974599223345865 0 0 0 0
64 -0.05111183927432704 0.0340533464204368 0 0 0 0
72 0.12948514045987874 0.1536876262496319 0 0 0 0
47 0.031363850576950396 -0.17524641659018547 0 0 0 0
22 0.03693897342741206 -0.05315412537614498 0 0 0 0
28 0.171423530154633 -0.00775640459668712 0 0 0 0
43 0.019253226328885705 0.02148664401404602 0 0 0 0
25 0.2895474651212746 -0.26192071303316816 0 0 0 0
70 -0.15899954279929654 0.14804518996547725 0 0 0 0
37 0.006408206261577762 0.0020266905356961956 0 0 0 0
31 -0.20733043870273096 -0.03799490466744631 0 0 0 0
15 0.02462927811585371 0.06808705842645581 0 0 0 0
40 0.021796904412815666 -0.07255315778133879 0 0 0 0
23 -0.0655239925235611 0.13701855851110473 0 0 0 0
42 -0.22803575601225612 -0.07525803050733526 0 0 0 0
10 0.004770281605411775 -0.12071132126930162 0 0 0 0
46 0.18273890255375339 0.08381686903421535 0 0 0 0
33 -0.09744201834664006 -0.1906675983418392 0 0 0 0
7 -0.09546696131531676 0.091709282036557 0 0 0 0
69 -0.0065006991379004215 -0.12296629431201771 0 0 0 0
61 -0.013201523206521777 -0.03407208362726752 0 0 0 0
14 0.1367839558242198 0.034569887965317174 0 0 0 0
8 0.007316528311811817 0.07289750264385778 0 0 0 0
53 -0.029198089799620457 0.043702987098616954 0 0 0 0
74 -0.011690059690018333 -0.08078173735610629 0 0 0 0
67 -0.024702667561287445 -0.13573731318117782 0 0 0 0
30 0.1659457869026681 -0.20026558083941848 0 0 0 0
45 -0.09989087565004039 0.23852520470386107 0 0 0 0
75 0.08633618498617246 0.27789319854127 0 0 0 0
4 0.26672731781977105 0.06635964592180772 0 0 0 0
26 -0.08357505585454068 -0.027078838881307177 0 0 0 0
58 -0.17784851483306105 -0.08692763835113725 0 0 0 0
78 0.03810574417126777 0.17888466126264624 0 0 0 0
36 -0.10869392851630973 0.22349725310351765 0 0 0 0
41 -0.0743243053378696 -0.20259309763314834 0 0 0 0
48 0.13682281989007633 -0.03485675774229952 0 0 0 0
73 -0.07565444894067322 -0.07363192090476937 0 0 0 0
79 -0.0004770870117695363 -0.003287664418500943 0 0 0 0
1 0.1802387819619836 -0.16968413731616583 0 0 0 0
57 0.0727203934393337 0.1072350426157872 0 0 0 0
29 -0.08255133068730576 -0.15543477082128565 0 0 0 0
3 0.15432738840045263 0.1453174310025801 0 0 0 0
21 -0.09143092701322403 0.022122235688708667 0 0 0 0
32 -0.09530892984500294 0.1621573339770419 0 0 0 0
60 0.03289382419177643 -0.17681659997370985 0 0 0 0
50 0.051063179559861366 -0.07152647816691157 0 0 0 0
20 -0.03497145225734482 -0.0657690440362329 0 0 0 0
16 0.026915114307385364 -0.08204901775861577 0 0 0 0
35 -0.0657793528787345 0.022927552331015198 0 0 0 0
59 0.016603287885024937 -0.023585407800847155 0 0 0 0
80 -0.20123295599818894 0.07552890449050614 0 0 0 0
49 -0.05028866212210626 0.034832656998991456 0 0 0 0
