ITEM: TIMESTEP
0
ITEM: NUMBER OF ATOMS
80
ITEM: BOX BOUNDS pp pp pp
-1.0000000000000000e+01 1.0000000000000000e+01
-1.0000000000000000e+01 1.0000000000000000e+01
-1.0000000000000001e-01 1.0000000000000001e-01
ITEM: ATOMS id type xs ys zs
14 1 0.0399244 0.00949163 0.5
6 1 0.0968663 0.0319495 0.5
77 4 0.352295 0.0292463 0.5
3 1 0.907422 0.0357317 0.5
5 1 0.970907 0.0337591 0.5
54 3 0.0228524 0.0805428 0.5
67 4 0.055457 0.0663734 0.5
20 1 0.460469 0.0995133 0.5
68 4 0.550967 0.101269 0.5
21 2 0.101036 0.105832 0.5
11 1 0.221462 0.107049 0.5
75 4 0.318921 0.107687 0.5
47 3 0.545673 0.123254 0.5
50 3 0.559655 0.117966 0.5
60 3 0.935571 0.142939 0.5
13 1 0.84103 0.184748 0.5
63 4 0.811161 0.187759 0.5
17 1 0.0608813 0.231515 0.5
70 4 0.128234 0.223555 0.5
28 2 0.397468 0.244776 0.5
48 3 0.4055 0.234345 0.5
1 1 0.525865 0.219645 0.5
19 1 0.684967 0.243279 0.5
24 2 0.351777 0.311594 0.5
42 3 0.0884344 0.316829 0.5
18 1 0.166738 0.358324 0.5
66 4 0.206959 0.364342 0.5
72 4 0.458519 0.322679 0.5
76 4 0.540392 0.367061 0.5
80 4 0.692173 0.347789 0.5
46 3 0.115926 0.372303 0.5
52 3 0.170904 0.380983 0.5
56 3 0.233378 0.385114 0.5
44 3 0.0269795 0.445247 0.5
74 4 0.0500657 0.454329 0.5
55 3 0.240522 0.450368 0.5
71 4 0.4355 0.455996 0.5
30 2 0.660704 0.46049 0.5
73 4 0.66011 0.468111 0.5
7 1 0.15223 0.521208 0.5
15 1 0.309483 0.488572 0.5
39 2 0.745493 0.503227 0.5
9 1 0.865741 0.516829 0.5
23 2 0.0581631 0.546485 0.5
59 3 0.790597 0.571559 0.5
58 3 0.109513 0.581949 0.5
26 2 0.285454 0.629487 0.5
57 3 0.824156 0.590561 0.5
31 2 0.190021 0.679464 0.5
40 2 0.23274 0.655279 0.5
34 2 0.360664 0.682618 0.5
8 1 0.407905 0.658443 0.5
16 1 0.728844 0.683783 0.5
65 4 0.79566 0.664675 0.5
32 2 0.211739 0.697796 0.5
25 2 0.628471 0.717113 0.5
29 2 0.882533 0.726007 0.5
43 3 0.897168 0.708918 0.5
45 3 0.91966 0.719799 0.5
53 3 0.347937 0.77065 0.5
64 4 0.387442 0.744791 0.5
41 3 0.577425 0.786985 0.5
27 2 0.653047 0.755472 0.5
36 2 0.70267 0.780112 0.5
61 4 0.918829 0.757 0.5
79 4 0.98184 0.780685 0.5
51 3 0.166229 0.809831 0.5
35 2 0.366205 0.802802 0.5
4 1 0.425824 0.826985 0.5
49 3 0.481992 0.840679 0.5
2 1 0.835419 0.88398 0.5
78 4 0.795969 0.84336 0.5
38 2 0.182956 0.933226 0.5
22 2 0.252033 0.913693 0.5
37 2 0.24995 0.902477 0.5
12 1 0.465518 0.954668 0.5
62 4 0.573152 0.972792 0.5
69 4 0.580351 0.960133 0.5
33 2 0.660915 0.999496 0.5
10 1 0.937346 0.970844 0.5
ITEM: TIMESTEP
10
ITEM: NUMBER OF ATOMS
80
ITEM: BOX BOUNDS pp pp pp
-9.2535092954001108e+00 9.2535092954001108e+00
-9.2535092954001108e+00 9.2535092954001108e+00
-1.0000000000000001e-01 1.0000000000000001e-01
ITEM: ATOMS id type xs ys zs
14 1 0.0398843 0.00945485 0.5
6 1 0.0969459 0.0319645 0.5
77 4 0.352295 0.0292463 0.5
3 1 0.907343 0.0357656 0.5
5 1 0.97096 0.0337982 0.5
54 3 0.0228273 0.0805537 0.5
67 4 0.0554699 0.0663735 0.5
20 1 0.460469 0.0995133 0.5
68 4 0.550944 0.101119 0.5
21 2 0.101036 0.105833 0.5
11 1 0.221462 0.107049 0.5
75 4 0.318921 0.107687 0.5
47 3 0.545534 0.123371 0.5
50 3 0.559817 0.117998 0.5
60 3 0.935571 0.142939 0.5
13 1 0.841132 0.184738 0.5
63 4 0.811059 0.187769 0.5
17 1 0.0608813 0.231515 0.5
70 4 0.128234 0.223555 0.5
28 2 0.397368 0.244906 0.5
48 3 0.4056 0.234216 0.5
1 1 0.525865 0.219645 0.5
19 1 0.684967 0.243279 0.5
24 2 0.351777 0.311594 0.5
42 3 0.0884344 0.316829 0.5
18 1 0.166692 0.358149 0.5
66 4 0.207007 0.364325 0.5
72 4 0.458519 0.322679 0.5
76 4 0.540392 0.367061 0.5
80 4 0.692173 0.347789 0.5
46 3 0.11588 0.372315 0.5
52 3 0.170921 0.381141 0.5
56 3 0.233405 0.385135 0.5
44 3 0.0269178 0.445222 0.5
74 4 0.0501274 0.454354 0.5
55 3 0.240522 0.450368 0.5
71 4 0.4355 0.455996 0.5
30 2 0.660717 0.460335 0.5
73 4 0.660098 0.468267 0.5
7 1 0.15223 0.521208 0.5
15 1 0.309483 0.488572 0.5
39 2 0.745493 0.503227 0.5
9 1 0.865741 0.516829 0.5
23 2 0.0581631 0.546485 0.5
59 3 0.790559 0.571538 0.5
58 3 0.109513 0.581949 0.5
26 2 0.285478 0.629476 0.5
57 3 0.824194 0.590582 0.5
31 2 0.189864 0.679406 0.5
40 2 0.232799 0.6552 0.5
34 2 0.360598 0.682652 0.5
8 1 0.407971 0.658409 0.5
16 1 0.728844 0.683783 0.5
65 4 0.79566 0.664675 0.5
32 2 0.211813 0.697944 0.5
25 2 0.628431 0.717051 0.5
29 2 0.882366 0.726111 0.5
43 3 0.897169 0.708779 0.5
45 3 0.919818 0.719806 0.5
53 3 0.347898 0.770583 0.5
64 4 0.387442 0.744791 0.5
41 3 0.577425 0.786985 0.5
27 2 0.653052 0.755518 0.5
36 2 0.702705 0.780129 0.5
61 4 0.918837 0.757029 0.5
79 4 0.98184 0.780685 0.5
51 3 0.166229 0.809831 0.5
35 2 0.366212 0.802857 0.5
4 1 0.425827 0.826991 0.5
49 3 0.482021 0.840686 0.5
2 1 0.835423 0.883984 0.5
78 4 0.795964 0.843356 0.5
38 2 0.182956 0.933226 0.5
22 2 0.252069 0.913887 0.5
37 2 0.249913 0.902282 0.5
12 1 0.465518 0.954668 0.5
62 4 0.573115 0.972858 0.5
69 4 0.580389 0.960067 0.5
33 2 0.660915 0.999496 0.5
10 1 0.937344 0.970781 0.5
ITEM: TIMESTEP
20
ITEM: NUMBER OF ATOMS
80
ITEM: BOX BOUNDS pp pp pp
-8.3294783880662653e+00 8.3294783880662653e+00
-8.3294783880662653e+00 8.3294783880662653e+00
-1.0000000000000001e-01 1.0000000000000001e-01
ITEM: ATOMS id type xs ys zs
14 1 0.0397458 0.00927753 0.5
6 1 0.0972715 0.0319795 0.5
77 4 0.352295 0.0292463 0.5
3 1 0.907022 0.0359168 0.5
5 1 0.97115 0.0339696 0.5
54 3 0.0227314 0.0806094 0.5
67 4 0.0555166 0.0664062 0.5
20 1 0.460469 0.0995133 0.5
68 4 0.55086 0.100577 0.5
21 2 0.101038 0.105869 0.5
11 1 0.221462 0.107049 0.5
75 4 0.318921 0.107687 0.5
47 3 0.54504 0.123795 0.5
50 3 0.560394 0.118116 0.5
60 3 0.935571 0.142939 0.5
13 1 0.841503 0.184701 0.5
63 4 0.810688 0.187807 0.5
17 1 0.0608812 0.231515 0.5
70 4 0.128234 0.223555 0.5
28 2 0.397015 0.245364 0.5
48 3 0.405952 0.233758 0.5
1 1 0.525865 0.219645 0.5
19 1 0.684967 0.243279 0.5
24 2 0.351777 0.311594 0.5
42 3 0.0884344 0.316829 0.5
18 1 0.166534 0.357513 0.5
66 4 0.207196 0.36425 0.5
72 4 0.458519 0.322679 0.5
76 4 0.540392 0.367061 0.5
80 4 0.692173 0.347789 0.5
46 3 0.11569 0.372367 0.5
52 3 0.170967 0.381713 0.5
56 3 0.233517 0.385222 0.5
44 3 0.0266907 0.445133 0.5
74 4 0.0503545 0.454443 0.5
55 3 0.240522 0.450368 0.5
71 4 0.4355 0.455996 0.5
30 2 0.660759 0.459787 0.5
73 4 0.660055 0.468814 0.5
7 1 0.15223 0.521207 0.5
15 1 0.309483 0.488572 0.5
39 2 0.745493 0.503227 0.5
9 1 0.865741 0.516829 0.5
23 2 0.0581565 0.546481 0.5
59 3 0.790409 0.571452 0.5
58 3 0.109519 0.581955 0.5
26 2 0.285588 0.629422 0.5
57 3 0.824345 0.590668 0.5
31 2 0.189284 0.679207 0.5
40 2 0.233009 0.654906 0.5
34 2 0.360344 0.682782 0.5
8 1 0.408225 0.658279 0.5
16 1 0.728844 0.683783 0.5
65 4 0.79566 0.664675 0.5
32 2 0.212073 0.69849 0.5
25 2 0.62828 0.716814 0.5
29 2 0.881743 0.726471 0.5
43 3 0.897167 0.708278 0.5
45 3 0.920399 0.719814 0.5
53 3 0.347753 0.770333 0.5
64 4 0.387445 0.74479 0.5
41 3 0.577425 0.786985 0.5
27 2 0.653059 0.755682 0.5
36 2 0.702849 0.780201 0.5
61 4 0.918881 0.757162 0.5
79 4 0.98184 0.780685 0.5
51 3 0.166229 0.809831 0.5
35 2 0.366216 0.803052 0.5
4 1 0.425837 0.827015 0.5
49 3 0.482149 0.840717 0.5
2 1 0.835458 0.88402 0.5
78 4 0.79593 0.84332 0.5
38 2 0.182949 0.933229 0.5
22 2 0.252201 0.914569 0.5
37 2 0.249788 0.901598 0.5
12 1 0.465518 0.954668 0.5
62 4 0.57298 0.973095 0.5
69 4 0.580523 0.959831 0.5
33 2 0.660915 0.999496 0.5
10 1 0.937335 0.970497 0.5
ITEM: TIMESTEP
30
ITEM: NUMBER OF ATOMS
80
ITEM: BOX BOUNDS pp pp pp
-7.6396874413515405e+00 7.6396874413515405e+00
-7.6396874413515405e+00 7.6396874413515405e+00
-1.0000000000000001e-01 1.0000000000000001e-01
ITEM: ATOMS id type xs ys zs
14 1 0.039492 0.00880761 0.5
6 1 0.0979832 0.0319239 0.5
77 4 0.352295 0.0292463 0.5
3 1 0.906322 0.0362685 0.5
5 1 0.971493 0.0343444 0.5
54 3 0.0225494 0.080798 0.5
67 4 0.055607 0.0665368 0.5
20 1 0.460469 0.0995133 0.5
68 4 0.550698 0.099523 0.5
21 2 0.101049 0.106012 0.5
11 1 0.221462 0.107049 0.5
75 4 0.318921 0.107687 0.5
47 3 0.544089 0.124616 0.5
50 3 0.561508 0.118349 0.5
60 3 0.935571 0.142939 0.5
13 1 0.842235 0.184627 0.5
63 4 0.809956 0.187881 0.5
17 1 0.0608685 0.231516 0.5
70 4 0.128246 0.223554 0.5
28 2 0.396343 0.246236 0.5
48 3 0.406627 0.232882 0.5
1 1 0.525865 0.219645 0.5
19 1 0.684967 0.243279 0.5
24 2 0.351775 0.311598 0.5
42 3 0.0884335 0.316827 0.5
18 1 0.166208 0.35625 0.5
66 4 0.2076 0.364078 0.5
72 4 0.458519 0.322679 0.5
76 4 0.540392 0.367061 0.5
80 4 0.692173 0.347789 0.5
46 3 0.115254 0.372479 0.5
52 3 0.171051 0.382836 0.5
56 3 0.233793 0.385423 0.5
44 3 0.0262384 0.444955 0.5
74 4 0.0508068 0.454621 0.5
55 3 0.240517 0.450365 0.5
71 4 0.4355 0.455996 0.5
30 2 0.660841 0.458746 0.5
73 4 0.659974 0.469855 0.5
7 1 0.152247 0.521182 0.5
15 1 0.309489 0.488575 0.5
39 2 0.745493 0.503227 0.5
9 1 0.865741 0.516829 0.5
23 2 0.0581085 0.546447 0.5
59 3 0.79009 0.571272 0.5
58 3 0.109549 0.582013 0.5
26 2 0.285852 0.629293 0.5
57 3 0.824664 0.590848 0.5
31 2 0.188126 0.678836 0.5
40 2 0.233409 0.654314 0.5
34 2 0.359816 0.683052 0.5
8 1 0.408753 0.658008 0.5
16 1 0.728838 0.683785 0.5
65 4 0.795666 0.664673 0.5
32 2 0.212566 0.699583 0.5
25 2 0.627969 0.716327 0.5
29 2 0.880485 0.727145 0.5
43 3 0.897154 0.707302 0.5
45 3 0.921553 0.719798 0.5
53 3 0.347439 0.769842 0.5
64 4 0.387472 0.744771 0.5
41 3 0.577425 0.786985 0.5
27 2 0.653044 0.756009 0.5
36 2 0.703175 0.780361 0.5
61 4 0.918998 0.75748 0.5
79 4 0.98184 0.780685 0.5
51 3 0.166229 0.809831 0.5
35 2 0.366178 0.803431 0.5
4 1 0.425862 0.827073 0.5
49 3 0.482449 0.84079 0.5
2 1 0.835563 0.884129 0.5
78 4 0.795824 0.843211 0.5
38 2 0.182868 0.933256 0.5
22 2 0.252495 0.915859 0.5
37 2 0.249575 0.90028 0.5
12 1 0.465518 0.954668 0.5
62 4 0.572719 0.973554 0.5
69 4 0.580785 0.959371 0.5
33 2 0.660915 0.999496 0.5
10 1 0.937314 0.969833 0.5
ITEM: TIMESTEP
40
ITEM: NUMBER OF ATOMS
80
ITEM: BOX BOUNDS pp pp pp
-7.1488844668435441e+00 7.1488844668435441e+00
-7.1488844668435441e+00 7.1488844668435441e+00
-1.0000000000000001e-01 1.0000000000000001e-01
ITEM: ATOMS id type xs ys zs
14 1 0.039119 0.00787738 0.5
6 1 0.0992101 0.0317255 0.5
77 4 0.352295 0.0292463 0.5
3 1 0.905117 0.036896 0.5
5 1 0.971986 0.0349828 0.5
54 3 0.022273 0.0812324 0.5
67 4 0.05573 0.0668101 0.5
20 1 0.460466 0.0995125 0.5
68 4 0.550439 0.097865 0.5
21 2 0.101097 0.106356 0.5
11 1 0.221462 0.107049 0.5
75 4 0.318921 0.107687 0.5
47 3 0.542599 0.125904 0.5
50 3 0.563258 0.11872 0.5
60 3 0.935571 0.142939 0.5
13 1 0.843402 0.184509 0.5
63 4 0.808789 0.187998 0.5
17 1 0.0608006 0.231524 0.5
70 4 0.128314 0.223546 0.5
28 2 0.39532 0.24756 0.5
48 3 0.407676 0.231519 0.5
1 1 0.525865 0.219645 0.5
19 1 0.684967 0.243279 0.5
24 2 0.351748 0.311637 0.5
42 3 0.0884184 0.3168 0.5
18 1 0.16566 0.354207 0.5
66 4 0.208282 0.363773 0.5
72 4 0.458519 0.322679 0.5
76 4 0.540392 0.367061 0.5
80 4 0.692173 0.347789 0.5
46 3 0.114473 0.372693 0.5
52 3 0.171174 0.384628 0.5
56 3 0.234333 0.385787 0.5
44 3 0.0255104 0.444669 0.5
74 4 0.0515349 0.454907 0.5
55 3 0.240472 0.450347 0.5
71 4 0.4355 0.455996 0.5
30 2 0.660967 0.457132 0.5
73 4 0.659848 0.47147 0.5
7 1 0.152314 0.521089 0.5
15 1 0.309534 0.4886 0.5
39 2 0.745493 0.503227 0.5
9 1 0.865746 0.516821 0.5
23 2 0.0579745 0.546357 0.5
59 3 0.789554 0.570969 0.5
58 3 0.109617 0.582196 0.5
26 2 0.286339 0.629058 0.5
57 3 0.825195 0.591159 0.5
31 2 0.18626 0.678267 0.5
40 2 0.234023 0.653355 0.5
34 2 0.358938 0.683501 0.5
8 1 0.409631 0.657559 0.5
16 1 0.728792 0.683798 0.5
65 4 0.795712 0.66466 0.5
32 2 0.213331 0.701345 0.5
25 2 0.627456 0.715521 0.5
29 2 0.878446 0.72818 0.5
43 3 0.897121 0.705751 0.5
45 3 0.9234 0.719733 0.5
53 3 0.346889 0.769064 0.5
64 4 0.387563 0.744698 0.5
41 3 0.577425 0.786985 0.5
27 2 0.652983 0.756532 0.5
36 2 0.703749 0.780643 0.5
61 4 0.919222 0.758062 0.5
79 4 0.98184 0.780685 0.5
51 3 0.166229 0.809831 0.5
35 2 0.366049 0.804046 0.5
4 1 0.425909 0.827178 0.5
49 3 0.482992 0.840922 0.5
2 1 0.83578 0.884351 0.5
78 4 0.795608 0.842988 0.5
38 2 0.182611 0.933346 0.5
22 2 0.253025 0.917842 0.5
37 2 0.249301 0.898207 0.5
12 1 0.465518 0.954668 0.5
62 4 0.572306 0.97428 0.5
69 4 0.581197 0.958645 0.5
33 2 0.660915 0.999496 0.5
10 1 0.937279 0.968644 0.5
ITEM: TIMESTEP
50
ITEM: NUMBER OF ATOMS
80
ITEM: BOX BOUNDS pp pp pp
-6.8128582851835837e+00 6.8128582851835837e+00
-6.8128582851835837e+00 6.8128582851835837e+00
-1.0000000000000001e-01 1.0000000000000001e-01
ITEM: ATOMS id type xs ys zs
14 1 0.0386552 0.00636844 0.5
6 1 0.101035 0.0313251 0.5
77 4 0.352295 0.0292463 0.5
3 1 0.90333 0.0378454 0.5
5 1 0.972601 0.0359219 0.5
54 3 0.0219042 0.0820046 0.5
67 4 0.0558675 0.0672483 0.5
20 1 0.460432 0.0995014 0.5
68 4 0.550077 0.095582 0.5
21 2 0.101209 0.106979 0.5
11 1 0.221462 0.107049 0.5
75 4 0.318921 0.107687 0.5
47 3 0.540575 0.12768 0.5
50 3 0.565679 0.119237 0.5
60 3 0.935571 0.142939 0.5
13 1 0.845038 0.184344 0.5
63 4 0.807153 0.188163 0.5
17 1 0.0606326 0.231533 0.5
70 4 0.128479 0.223526 0.5
28 2 0.393963 0.249309 0.5
48 3 0.409117 0.229647 0.5
1 1 0.525865 0.219645 0.5
19 1 0.684967 0.243279 0.5
24 2 0.351664 0.31176 0.5
42 3 0.0883475 0.316712 0.5
18 1 0.16489 0.351313 0.5
66 4 0.20927 0.363312 0.5
72 4 0.458519 0.322679 0.5
76 4 0.540392 0.367061 0.5
80 4 0.692173 0.347789 0.5
46 3 0.113291 0.373058 0.5
52 3 0.171318 0.387137 0.5
56 3 0.235221 0.386323 0.5
44 3 0.0244834 0.444264 0.5
74 4 0.0525619 0.455311 0.5
55 3 0.240351 0.450321 0.5
71 4 0.4355 0.455996 0.5
30 2 0.661139 0.454923 0.5
73 4 0.659676 0.473679 0.5
7 1 0.152481 0.520882 0.5
15 1 0.309659 0.488669 0.5
39 2 0.745491 0.503223 0.5
9 1 0.865772 0.516773 0.5
23 2 0.0576956 0.54619 0.5
59 3 0.788774 0.570529 0.5
58 3 0.109729 0.582571 0.5
26 2 0.287097 0.628689 0.5
57 3 0.825952 0.59165 0.5
31 2 0.183629 0.677494 0.5
40 2 0.23484 0.652003 0.5
34 2 0.357667 0.684138 0.5
8 1 0.4109 0.65691 0.5
16 1 0.728669 0.683822 0.5
65 4 0.795839 0.664624 0.5
32 2 0.214382 0.703835 0.5
25 2 0.626719 0.714357 0.5
29 2 0.875567 0.729587 0.5
43 3 0.897058 0.703575 0.5
45 3 0.925988 0.7196 0.5
53 3 0.346057 0.76798 0.5
64 4 0.387763 0.744542 0.5
41 3 0.577423 0.786986 0.5
27 2 0.652853 0.757272 0.5
36 2 0.704616 0.781078 0.5
61 4 0.919577 0.758963 0.5
79 4 0.98184 0.780685 0.5
51 3 0.166229 0.809831 0.5
35 2 0.365777 0.804941 0.5
4 1 0.425986 0.827337 0.5
49 3 0.483825 0.841124 0.5
2 1 0.836136 0.884718 0.5
78 4 0.795251 0.842622 0.5
38 2 0.182094 0.933527 0.5
22 2 0.253847 0.920539 0.5
37 2 0.248997 0.895329 0.5
12 1 0.465518 0.954668 0.5
62 4 0.571733 0.975287 0.5
69 4 0.58177 0.957638 0.5
33 2 0.660915 0.999496 0.5
10 1 0.937208 0.966831 0.5
ITEM: TIMESTEP
60
ITEM: NUMBER OF ATOMS
80
ITEM: BOX BOUNDS pp pp pp
-6.5777777784982900e+00 6.5777777784982900e+00
-6.5777777784982900e+00 6.5777777784982900e+00
-1.0000000000000001e-01 1.0000000000000001e-01
ITEM: ATOMS id type xs ys zs
14 1 0.038154 0.00421777 0.5
6 1 0.103506 0.0306814 0.5
77 4 0.352295 0.0292463 0.5
3 1 0.900928 0.0391355 0.5
5 1 0.973305 0.0371805 0.5
54 3 0.0214392 0.0831775 0.5
67 4 0.0560051 0.0678535 0.5
20 1 0.460326 0.0994646 0.5
68 4 0.549607 0.092701 0.5
21 2 0.101408 0.107939 0.5
11 1 0.221462 0.107049 0.5
75 4 0.318921 0.107687 0.5
47 3 0.538073 0.129923 0.5
50 3 0.56876 0.119895 0.5
60 3 0.935571 0.142939 0.5
13 1 0.847144 0.184132 0.5
63 4 0.805046 0.188376 0.5
17 1 0.0603242 0.231517 0.5
70 4 0.128771 0.223492 0.5
28 2 0.392308 0.251428 0.5
48 3 0.410943 0.227276 0.5
1 1 0.525863 0.219663 0.5
19 1 0.684967 0.243279 0.5
24 2 0.351493 0.312012 0.5
42 3 0.0881757 0.316545 0.5
18 1 0.16394 0.347554 0.5
66 4 0.210566 0.362685 0.5
72 4 0.458519 0.322679 0.5
76 4 0.540392 0.367061 0.5
80 4 0.692173 0.347789 0.5
46 3 0.111689 0.373617 0.5
52 3 0.171472 0.390369 0.5
56 3 0.236503 0.387024 0.5
44 3 0.0231536 0.443741 0.5
74 4 0.0538917 0.455835 0.5
55 3 0.240124 0.450302 0.5
71 4 0.4355 0.455996 0.5
30 2 0.661356 0.452134 0.5
73 4 0.659458 0.476467 0.5
7 1 0.152801 0.520524 0.5
15 1 0.309895 0.4888 0.5
39 2 0.745471 0.503193 0.5
9 1 0.865844 0.516649 0.5
23 2 0.0572145 0.545938 0.5
59 3 0.787744 0.569976 0.5
58 3 0.10989 0.583181 0.5
26 2 0.288138 0.628153 0.5
57 3 0.826929 0.592357 0.5
31 2 0.180228 0.67652 0.5
40 2 0.235827 0.650259 0.5
34 2 0.356004 0.684964 0.5
8 1 0.412574 0.656053 0.5
16 1 0.728456 0.683828 0.5
65 4 0.796075 0.664556 0.5
32 2 0.215717 0.707059 0.5
25 2 0.625746 0.712819 0.5
29 2 0.871857 0.731359 0.5
43 3 0.896962 0.700777 0.5
45 3 0.929307 0.719392 0.5
53 3 0.34492 0.766591 0.5
64 4 0.388111 0.744298 0.5
41 3 0.577399 0.786995 0.5
27 2 0.652647 0.758234 0.5
36 2 0.705795 0.781708 0.5
61 4 0.920064 0.760196 0.5
79 4 0.98184 0.780685 0.5
51 3 0.166229 0.809831 0.5
35 2 0.365321 0.806137 0.5
4 1 0.426103 0.827555 0.5
49 3 0.484979 0.841403 0.5
2 1 0.83665 0.885248 0.5
78 4 0.794737 0.842092 0.5
38 2 0.181261 0.933817 0.5
22 2 0.254991 0.92393 0.5
37 2 0.248686 0.891648 0.5
12 1 0.465518 0.954668 0.5
62 4 0.571001 0.976575 0.5
69 4 0.582502 0.956351 0.5
33 2 0.660915 0.999496 0.5
10 1 0.937065 0.964339 0.5
ITEM: TIMESTEP
70
ITEM: NUMBER OF ATOMS
80
ITEM: BOX BOUNDS pp pp pp
-6.4250564758307478e+00 6.4250564758307478e+00
-6.4250564758307478e+00 6.4250564758307478e+00
-1.0000000000000001e-01 1.0000000000000001e-01
ITEM: ATOMS id type xs ys zs
14 1 0.0376651 0.0014108 0.5
6 1 0.106625 0.0297804 0.5
77 4 0.352295 0.0292463 0.5
3 1 0.897916 0.040757 0.5
5 1 0.974051 0.0387584 0.5
54 3 0.0208795 0.084776 0.5
67 4 0.0561341 0.0686091 0.5
20 1 0.460113 0.0993862 0.5
68 4 0.549036 0.0892923 0.5
21 2 0.101719 0.109268 0.5
11 1 0.221462 0.107049 0.5
75 4 0.318921 0.107687 0.5
47 3 0.53518 0.132551 0.5
50 3 0.572448 0.120678 0.5
60 3 0.935581 0.142934 0.5
13 1 0.849684 0.18388 0.5
63 4 0.802496 0.188633 0.5
17 1 0.0598478 0.231453 0.5
70 4 0.129209 0.22344 0.5
28 2 0.390409 0.253842 0.5
48 3 0.413125 0.224444 0.5
1 1 0.525852 0.219739 0.5
19 1 0.684967 0.243279 0.5
24 2 0.351211 0.312429 0.5
42 3 0.0878657 0.316293 0.5
18 1 0.162874 0.342963 0.5
66 4 0.212144 0.361895 0.5
72 4 0.458519 0.322679 0.5
76 4 0.540392 0.367061 0.5
80 4 0.692173 0.347789 0.5
46 3 0.109679 0.374403 0.5
52 3 0.171624 0.394279 0.5
56 3 0.238182 0.38787 0.5
44 3 0.0215363 0.443105 0.5
74 4 0.055509 0.456471 0.5
55 3 0.239771 0.450306 0.5
71 4 0.4355 0.455996 0.5
30 2 0.661613 0.448812 0.5
73 4 0.659199 0.479788 0.5
7 1 0.153308 0.51999 0.5
15 1 0.310263 0.489004 0.5
39 2 0.745423 0.503113 0.5
9 1 0.865989 0.516416 0.5
23 2 0.0564968 0.545598 0.5
59 3 0.78647 0.569348 0.5
58 3 0.110101 0.584053 0.5
26 2 0.289459 0.627423 0.5
57 3 0.82811 0.5933 0.5
31 2 0.176107 0.675361 0.5
40 2 0.236929 0.648158 0.5
34 2 0.353979 0.68595 0.5
8 1 0.414643 0.654995 0.5
16 1 0.728173 0.683775 0.5
65 4 0.796441 0.664452 0.5
32 2 0.217321 0.710972 0.5
25 2 0.624526 0.710915 0.5
29 2 0.867391 0.733469 0.5
43 3 0.896835 0.697407 0.5
45 3 0.933297 0.71911 0.5
53 3 0.343472 0.764935 0.5
64 4 0.388632 0.743974 0.5
41 3 0.577329 0.787022 0.5
27 2 0.652356 0.759419 0.5
36 2 0.707294 0.782557 0.5
61 4 0.920667 0.761738 0.5
79 4 0.98184 0.780685 0.5
51 3 0.166229 0.809831 0.5
35 2 0.364648 0.807633 0.5
4 1 0.426268 0.827831 0.5
49 3 0.486466 0.84176 0.5
2 1 0.83733 0.885947 0.5
78 4 0.794058 0.841392 0.5
38 2 0.180094 0.934219 0.5
22 2 0.256463 0.927961 0.5
37 2 0.248381 0.887216 0.5
12 1 0.465518 0.954668 0.5
62 4 0.570121 0.978123 0.5
69 4 0.583383 0.954802 0.5
33 2 0.660915 0.999496 0.5
10 1 0.93682 0.961165 0.5
ITEM: TIMESTEP
80
ITEM: NUMBER OF ATOMS
80
ITEM: BOX BOUNDS pp pp pp
-6.3441612798102867e+00 6.3441612798102867e+00
-6.3441612798102867e+00 6.3441612798102867e+00
-1.0000000000000001e-01 1.0000000000000001e-01
ITEM: ATOMS id type xs ys zs
14 1 0.037229 0.997988 0.5
6 1 0.110337 0.0286383 0.5
77 4 0.352295 0.0292463 0.5
3 1 0.894346 0.0426715 0.5
5 1 0.974784 0.0406273 0.5
54 3 0.0202463 0.0867863 0.5
67 4 0.0562623 0.0694824 0.5
20 1 0.459769 0.0992513 0.5
68 4 0.548377 0.0854694 0.5
21 2 0.102147 0.110963 0.5
11 1 0.221462 0.107049 0.5
75 4 0.318921 0.107687 0.5
47 3 0.53201 0.135457 0.5
50 3 0.576641 0.121558 0.5
60 3 0.935629 0.142911 0.5
13 1 0.852572 0.183606 0.5
63 4 0.79956 0.188929 0.5
17 1 0.0591925 0.231324 0.5
70 4 0.1298 0.223371 0.5
28 2 0.388335 0.256458 0.5
48 3 0.41561 0.221219 0.5
1 1 0.525832 0.219911 0.5
19 1 0.684967 0.243279 0.5
24 2 0.350799 0.313039 0.5
42 3 0.0873904 0.315957 0.5
18 1 0.161768 0.337637 0.5
66 4 0.213952 0.360962 0.5
72 4 0.458519 0.322679 0.5
76 4 0.540392 0.367061 0.5
80 4 0.692173 0.347789 0.5
46 3 0.107313 0.375432 0.5
52 3 0.171771 0.398766 0.5
56 3 0.24022 0.388824 0.5
44 3 0.0196671 0.44237 0.5
74 4 0.0573782 0.457206 0.5
55 3 0.239281 0.450347 0.5
71 4 0.4355 0.455996 0.5
30 2 0.661897 0.445037 0.5
73 4 0.658905 0.483556 0.5
7 1 0.15401 0.519278 0.5
15 1 0.310772 0.489284 0.5
39 2 0.745337 0.502967 0.5
9 1 0.866218 0.516057 0.5
23 2 0.055535 0.545174 0.5
59 3 0.784979 0.568682 0.5
58 3 0.11036 0.585191 0.5
26 2 0.291047 0.626486 0.5
57 3 0.829467 0.594477 0.5
31 2 0.171368 0.674045 0.5
40 2 0.238075 0.645759 0.5
34 2 0.351645 0.68705 0.5
8 1 0.417065 0.653756 0.5
16 1 0.727837 0.683638 0.5
65 4 0.796944 0.664309 0.5
32 2 0.219156 0.715478 0.5
25 2 0.623067 0.708677 0.5
29 2 0.862314 0.735864 0.5
43 3 0.896681 0.693555 0.5
45 3 0.937838 0.718766 0.5
53 3 0.341728 0.763073 0.5
64 4 0.389336 0.743589 0.5
41 3 0.577194 0.787073 0.5
27 2 0.651979 0.760813 0.5
36 2 0.709097 0.78363 0.5
61 4 0.921356 0.763539 0.5
79 4 0.98184 0.780685 0.5
51 3 0.166229 0.809831 0.5
35 2 0.363737 0.809405 0.5
4 1 0.42649 0.82816 0.5
49 3 0.488275 0.842193 0.5
2 1 0.838162 0.886806 0.5
78 4 0.793221 0.840531 0.5
38 2 0.178609 0.934721 0.5
22 2 0.258239 0.932533 0.5
37 2 0.248089 0.882141 0.5
12 1 0.465518 0.954668 0.5
62 4 0.569112 0.979897 0.5
69 4 0.584391 0.953029 0.5
33 2 0.660915 0.999496 0.5
10 1 0.936463 0.95737 0.5
ITEM: TIMESTEP
90
ITEM: NUMBER OF ATOMS
80
ITEM: BOX BOUNDS pp pp pp
-6.3232823908340334e+00 6.3232823908340334e+00
-6.3232823908340334e+00 6.3232823908340334e+00
-1.0000000000000001e-01 1.0000000000000001e-01
ITEM: ATOMS id type xs ys zs
14 1 0.0368725 0.994044 0.5
6 1 0.114552 0.0272935 0.5
77 4 0.352295 0.0292463 0.5
3 1 0.890311 0.0448156 0.5
5 1 0.975445 0.0427348 0.5
54 3 0.0195675 0.0891651 0.5
67 4 0.0564048 0.0704255 0.5
20 1 0.459282 0.0990485 0.5
68 4 0.547654 0.0813757 0.5
21 2 0.102681 0.11299 0.5
11 1 0.221462 0.107049 0.5
75 4 0.318921 0.107687 0.5
47 3 0.528689 0.138514 0.5
50 3 0.581202 0.122501 0.5
60 3 0.935739 0.142858 0.5
13 1 0.855701 0.183333 0.5
63 4 0.796322 0.189255 0.5
17 1 0.0583642 0.231123 0.5
70 4 0.130533 0.223286 0.5
28 2 0.386166 0.259167 0.5
48 3 0.41833 0.217691 0.5
1 1 0.525802 0.220207 0.5
19 1 0.684967 0.243279 0.5
24 2 0.350249 0.313858 0.5
42 3 0.0867362 0.315549 0.5
18 1 0.160708 0.331731 0.5
66 4 0.215916 0.359917 0.5
72 4 0.458519 0.322679 0.5
76 4 0.540392 0.367061 0.5
80 4 0.692173 0.347789 0.5
46 3 0.104674 0.376701 0.5
52 3 0.171913 0.40368 0.5
56 3 0.242545 0.389842 0.5
44 3 0.0175984 0.441556 0.5
74 4 0.0594469 0.45802 0.5
55 3 0.238654 0.450438 0.5
71 4 0.4355 0.455996 0.5
30 2 0.662202 0.440923 0.5
73 4 0.658585 0.48766 0.5
7 1 0.154895 0.518397 0.5
15 1 0.311415 0.489638 0.5
39 2 0.745205 0.50274 0.5
9 1 0.866529 0.515573 0.5
23 2 0.054349 0.544671 0.5
59 3 0.783319 0.568014 0.5
58 3 0.110661 0.586574 0.5
26 2 0.292877 0.625344 0.5
57 3 0.830963 0.595866 0.5
31 2 0.166158 0.672611 0.5
40 2 0.239185 0.64315 0.5
34 2 0.349077 0.68822 0.5
8 1 0.419777 0.652369 0.5
16 1 0.727459 0.683409 0.5
65 4 0.797581 0.664128 0.5
32 2 0.22117 0.720432 0.5
25 2 0.621397 0.706155 0.5
29 2 0.856827 0.73847 0.5
43 3 0.896501 0.689339 0.5
45 3 0.942765 0.718383 0.5
53 3 0.339729 0.761071 0.5
64 4 0.390212 0.743166 0.5
41 3 0.576983 0.787151 0.5
27 2 0.651521 0.762387 0.5
36 2 0.711176 0.78491 0.5
61 4 0.922096 0.765533 0.5
79 4 0.98184 0.780685 0.5
51 3 0.166229 0.809831 0.5
35 2 0.362586 0.811407 0.5
4 1 0.426775 0.828531 0.5
49 3 0.490376 0.842692 0.5
2 1 0.839105 0.887787 0.5
78 4 0.792245 0.839526 0.5
38 2 0.176862 0.935297 0.5
22 2 0.260271 0.937519 0.5
37 2 0.247806 0.876577 0.5
12 1 0.465518 0.954668 0.5
62 4 0.568005 0.981844 0.5
69 4 0.585499 0.951082 0.5
33 2 0.660915 0.999496 0.5
10 1 0.936012 0.953085 0.5
ITEM: TIMESTEP
100
ITEM: NUMBER OF ATOMS
80
ITEM: BOX BOUNDS pp pp pp
-6.3431851039377447e+00 6.3431851039377447e+00
-6.3431851039377447e+00 6.3431851039377447e+00
-1.0000000000000001e-01 1.0000000000000001e-01
ITEM: ATOMS id type xs ys zs
14 1 0.0366087 0.989709 0.5
6 1 0.119144 0.0258167 0.5
77 4 0.352295 0.0292463 0.5
3 1 0.885921 0.0471124 0.5
5 1 0.975993 0.0450132 0.5
54 3 0.0188773 0.0918476 0.5
67 4 0.056577 0.0713799 0.5
20 1 0.458653 0.0987691 0.5
68 4 0.546891 0.0771626 0.5
21 2 0.1033 0.115289 0.5
11 1 0.221462 0.107049 0.5
75 4 0.318921 0.107687 0.5
47 3 0.525338 0.141597 0.5
50 3 0.585979 0.12347 0.5
60 3 0.935929 0.142764 0.5
13 1 0.858962 0.18308 0.5
63 4 0.792871 0.189602 0.5
17 1 0.0573818 0.230846 0.5
70 4 0.131391 0.223187 0.5
28 2 0.383976 0.26187 0.5
48 3 0.421209 0.213956 0.5
1 1 0.525767 0.220647 0.5
19 1 0.684967 0.243279 0.5
24 2 0.349559 0.314889 0.5
42 3 0.0859019 0.315091 0.5
18 1 0.159772 0.325433 0.5
66 4 0.217958 0.358799 0.5
72 4 0.458519 0.322679 0.5
76 4 0.540392 0.367061 0.5
80 4 0.692173 0.347789 0.5
46 3 0.101858 0.378185 0.5
52 3 0.172057 0.408844 0.5
56 3 0.245063 0.390874 0.5
44 3 0.015389 0.440687 0.5
74 4 0.0616562 0.458889 0.5
55 3 0.237898 0.45059 0.5
71 4 0.4355 0.455996 0.5
30 2 0.662524 0.436591 0.5
73 4 0.658248 0.491983 0.5
7 1 0.155931 0.517376 0.5
15 1 0.312179 0.490058 0.5
39 2 0.74502 0.502423 0.5
9 1 0.866907 0.514979 0.5
23 2 0.0529792 0.544103 0.5
59 3 0.781545 0.56737 0.5
58 3 0.110996 0.588163 0.5
26 2 0.294923 0.624009 0.5
57 3 0.832557 0.59743 0.5
31 2 0.160645 0.671106 0.5
40 2 0.240184 0.640424 0.5
34 2 0.34635 0.689418 0.5
8 1 0.422704 0.650874 0.5
16 1 0.727039 0.6831 0.5
65 4 0.798337 0.663914 0.5
32 2 0.223301 0.725675 0.5
25 2 0.619562 0.703408 0.5
29 2 0.851147 0.741206 0.5
43 3 0.8963 0.684887 0.5
45 3 0.947897 0.717984 0.5
53 3 0.337526 0.758998 0.5
64 4 0.391231 0.742734 0.5
41 3 0.576693 0.787255 0.5
27 2 0.650997 0.7641 0.5
36 2 0.713491 0.786363 0.5
61 4 0.922845 0.767647 0.5
79 4 0.98184 0.780685 0.5
51 3 0.166229 0.809831 0.5
35 2 0.361204 0.813578 0.5
4 1 0.427127 0.828931 0.5
49 3 0.492728 0.843247 0.5
2 1 0.840105 0.888847 0.5
78 4 0.791157 0.838406 0.5
38 2 0.174941 0.935896 0.5
22 2 0.262489 0.942779 0.5
37 2 0.247524 0.870698 0.5
12 1 0.465518 0.954668 0.5
62 4 0.566831 0.983908 0.5
69 4 0.586673 0.949017 0.5
33 2 0.660915 0.999496 0.5
10 1 0.935499 0.948467 0.5
ITEM: TIMESTEP
110
ITEM: NUMBER OF ATOMS
80
ITEM: BOX BOUNDS pp pp pp
-6.3773985257484744e+00 6.3773985257484744e+00
-6.3773985257484744e+00 6.3773985257484744e+00
-1.0000000000000001e-01 1.0000000000000001e-01
ITEM: ATOMS id type xs ys zs
14 1 0.0364413 0.985109 0.5
6 1 0.123989 0.024291 0.5
77 4 0.352295 0.0292463 0.5
3 1 0.881279 0.0494891 0.5
5 1 0.976398 0.0473925 0.5
54 3 0.018208 0.0947792 0.5
67 4 0.0567947 0.0722871 0.5
20 1 0.457896 0.098407 0.5
68 4 0.546109 0.0729498 0.5
21 2 0.103977 0.117798 0.5
11 1 0.221462 0.107049 0.5
75 4 0.318921 0.107687 0.5
47 3 0.522048 0.144613 0.5
50 3 0.590842 0.124434 0.5
60 3 0.936211 0.142622 0.5
13 1 0.862262 0.182862 0.5
63 4 0.789289 0.189963 0.5
17 1 0.0562688 0.230495 0.5
70 4 0.132351 0.223077 0.5
28 2 0.381827 0.264485 0.5
48 3 0.424187 0.210095 0.5
1 1 0.525734 0.221243 0.5
19 1 0.684967 0.243279 0.5
24 2 0.34873 0.316136 0.5
42 3 0.084894 0.314607 0.5
18 1 0.158996 0.318907 0.5
66 4 0.220012 0.357638 0.5
72 4 0.458519 0.322679 0.5
76 4 0.540392 0.367061 0.5
80 4 0.692173 0.347789 0.5
46 3 0.0989558 0.379849 0.5
52 3 0.172198 0.414093 0.5
56 3 0.247706 0.391895 0.5
44 3 0.0130908 0.439782 0.5
74 4 0.0639545 0.459794 0.5
55 3 0.23703 0.450811 0.5
71 4 0.4355 0.455996 0.5
30 2 0.662856 0.432142 0.5
73 4 0.657902 0.496422 0.5
7 1 0.157076 0.516243 0.5
15 1 0.313047 0.490532 0.5
39 2 0.744784 0.502013 0.5
9 1 0.867329 0.5143 0.5
23 2 0.0514733 0.54348 0.5
59 3 0.779714 0.566769 0.5
58 3 0.111356 0.589919 0.5
26 2 0.297165 0.622494 0.5
57 3 0.834218 0.59913 0.5
31 2 0.154974 0.669571 0.5
40 2 0.241007 0.637666 0.5
34 2 0.343532 0.69061 0.5
8 1 0.425779 0.649304 0.5
16 1 0.726569 0.682733 0.5
65 4 0.799197 0.663673 0.5
32 2 0.22549 0.731058 0.5
25 2 0.617604 0.700486 0.5
29 2 0.845425 0.744008 0.5
43 3 0.896078 0.680315 0.5
45 3 0.953117 0.717585 0.5
53 3 0.335171 0.75691 0.5
64 4 0.392357 0.742321 0.5
41 3 0.576321 0.787384 0.5
27 2 0.650421 0.765909 0.5
36 2 0.716007 0.787954 0.5
61 4 0.923569 0.769816 0.5
79 4 0.98184 0.780685 0.5
51 3 0.166229 0.809831 0.5
35 2 0.359604 0.815864 0.5
4 1 0.42755 0.829347 0.5
49 3 0.495293 0.843848 0.5
2 1 0.841114 0.889948 0.5
78 4 0.789982 0.837196 0.5
38 2 0.172944 0.936454 0.5
22 2 0.264825 0.948188 0.5
37 2 0.247229 0.864659 0.5
12 1 0.465518 0.954668 0.5
62 4 0.565617 0.986043 0.5
69 4 0.587887 0.946882 0.5
33 2 0.660915 0.999496 0.5
10 1 0.934954 0.943668 0.5
ITEM: TIMESTEP
120
ITEM: NUMBER OF ATOMS
80
ITEM: BOX BOUNDS pp pp pp
-6.3981654019374625e+00 6.3981654019374625e+00
-6.3981654019374625e+00 6.3981654019374625e+00
-1.0000000000000001e-01 1.0000000000000001e-01
ITEM: ATOMS id type xs ys zs
14 1 0.0363745 0.980312 0.5
6 1 0.128996 0.0227901 0.5
77 4 0.352295 0.0292463 0.5
3 1 0.876453 0.0518889 0.5
5 1 0.976642 0.0498121 0.5
54 3 0.0175815 0.0979545 0.5
67 4 0.057076 0.0731001 0.5
20 1 0.45702 0.0979569 0.5
68 4 0.545332 0.0687741 0.5
21 2 0.104695 0.120468 0.5
11 1 0.221462 0.107049 0.5
75 4 0.318921 0.107687 0.5
47 3 0.518863 0.147532 0.5
50 3 0.595704 0.125378 0.5
60 3 0.936597 0.142423 0.5
13 1 0.865538 0.182692 0.5
63 4 0.785626 0.190331 0.5
17 1 0.0550443 0.230072 0.5
70 4 0.133396 0.22296 0.5
28 2 0.37976 0.266954 0.5
48 3 0.427224 0.206156 0.5
1 1 0.525711 0.222005 0.5
19 1 0.684967 0.243279 0.5
24 2 0.347759 0.317605 0.5
42 3 0.0837188 0.314124 0.5
18 1 0.158386 0.312269 0.5
66 4 0.222053 0.356433 0.5
72 4 0.458519 0.322679 0.5
76 4 0.540392 0.367061 0.5
80 4 0.692173 0.347789 0.5
46 3 0.0960191 0.381655 0.5
52 3 0.172319 0.419318 0.5
56 3 0.250448 0.392901 0.5
44 3 0.0107383 0.438857 0.5
74 4 0.0663069 0.460719 0.5
55 3 0.236072 0.451116 0.5
71 4 0.4355 0.455996 0.5
30 2 0.663191 0.42764 0.5
73 4 0.657552 0.500914 0.5