LAMMPS data file via write_data, version 23 Jun 2022, timestep = 10000

80 atoms
4 atom types

-4.791301856901145 4.791301856901145 xlo xhi
-4.791301856901145 4.791301856901145 ylo yhi
-0.1 0.1 zlo zhi

Atoms # sphere

52 3 1 1 -3.580075251403338 -3.6630819676486452 0 1 1 0
7 1 1.6 0.2441406249999999 -2.589019203533347 -4.24222230979624 0 0 0 0
53 3 1 1 -1.436532842116646 -4.4079614931384965 0 0 0 0
68 4 0.7 2.915451895043732 -0.7478122996227645 -4.5296771138200285 0 0 1 0
35 2 1.3 0.4551661356395083 -0.6144630308139307 -3.643354931298327 0 0 0 0
37 2 1.3 0.4551661356395083 0.018024232188445843 4.683050163514335 0 0 0 0
48 3 1 1 0.5529541937812921 -3.788721776256325 0 0 0 0
63 4 0.7 2.915451895043732 0.9717125283443266 -4.556105222080446 0 0 0 0
74 4 0.7 2.915451895043732 1.2878165527309173 -3.9468848859877586 0 0 0 0
39 2 1.3 0.4551661356395083 2.2563227293891046 -4.315362305013356 0 0 1 0
2 1 1.6 0.2441406249999999 3.6709424243542967 -4.41666785398395 0 0 0 0
36 2 1.3 0.4551661356395083 -4.720182672714336 -3.6038754592634197 0 0 0 0
28 2 1.3 0.4551661356395083 -3.921039965565846 -2.8459395044331117 0 0 0 0
4 1 1.6 0.2441406249999999 -2.4876226505927446 -2.742277852849633 0 0 0 0
44 3 1 1 -1.613637873343309 -3.417141147268244 0 0 1 0
16 1 1.6 0.2441406249999999 0.5150753675655997 -2.5275298286737073 0 0 0 0
14 1 1.6 0.2441406249999999 1.9300871150218306 -3.0467293866436536 0 0 0 0
12 1 1.6 0.2441406249999999 3.7282178659579914 -2.745976067519769 0 0 0 0
69 4 0.7 2.915451895043732 2.9651155449512574 -3.443983887968672 0 -1 0 0
32 2 1.3 0.4551661356395083 -4.633203993371484 -2.0263498961849793 0 0 0 0
41 3 1 1 -3.5851706720495877 -2.0715782886277014 0 0 1 0
49 3 1 1 -2.5265646722843176 -1.6748563311298463 0 0 0 0
71 4 0.7 2.915451895043732 -1.7863845398971638 -1.7152164879209955 0 0 0 0
10 1 1.6 0.2441406249999999 -0.9455515203908016 -2.3836513200276115 0 0 0 0
72 4 0.7 2.915451895043732 -0.17742406419046652 -1.6036576041590926 0 0 0 0
56 3 1 1 1.6355656919323742 -1.8630479961024364 0 0 0 0
78 4 0.7 2.915451895043732 2.642274884931364 -1.3079018476351703 0 0 0 0
67 4 0.7 2.915451895043732 2.175515098104527 -2.0349320324991873 0 -1 0 0
62 4 0.7 2.915451895043732 2.8588441657071666 -2.0082778003617445 0 -1 0 0
25 2 1.3 0.4551661356395083 -4.458414552638743 -0.7206680914270756 0 0 0 0
45 3 1 1 -3.3601980283561232 -1.2684548736001093 0 0 0 0
80 4 0.7 2.915451895043732 -1.9029334950282024 -1.0855309205682575 0 0 1 0
79 4 0.7 2.915451895043732 -2.5221771910183426 -0.9648746351990627 0 1 0 0
30 2 1.3 0.4551661356395083 -1.1780433774889385 -0.957523612051201 0 0 0 0
57 3 1 1 -0.1428129953532613 -0.7743986905229896 0 0 0 0
31 2 1.3 0.4551661356395083 0.7018155793352863 -1.2761971473633698 0 0 0 0
17 1 1.6 0.2441406249999999 2.0693982446091868 -0.5211199921245813 0 0 0 0
73 4 0.7 2.915451895043732 3.276670411958576 -1.3968161232221394 0 0 0 0
26 2 1.3 0.4551661356395083 4.015349781873163 -1.4054478803687984 0 -1 0 0
24 2 1.3 0.4551661356395083 -4.353118784113033 0.32909671711643185 0 0 0 0
19 1 1.6 0.2441406249999999 -3.1364756664408135 -0.16701005938246194 0 0 0 0
50 3 1 1 -2.026166520705447 -0.2653061175044229 0 0 0 0
9 1 1.6 0.2441406249999999 -0.9019720922007473 0.2869262244337776 0 0 0 0
8 1 1.6 0.2441406249999999 0.6540521128818177 0.21369489529892505 0 0 0 0
46 3 1 1 3.285652987049473 -0.5336741617169576 0 -1 0 0
23 2 1.3 0.4551661356395083 3.95366778580592 0.2852316440535345 0 -1 0 0
65 4 0.7 2.915451895043732 4.174422126920999 -0.5620174696891533 0 0 0 0
11 1 1.6 0.2441406249999999 -3.3605601025365583 1.2790478138817472 0 0 0 0
27 2 1.3 0.4551661356395083 -2.154289292567124 0.7230694744237445 0 0 0 0
34 2 1.3 0.4551661356395083 -0.01182557199306089 1.364838545420299 0 0 0 0
40 2 1.3 0.4551661356395083 1.1683211154402544 1.4546605013081155 0 0 0 0
60 3 1 1 2.071233911245483 0.7443582621968226 0 0 0 0
54 3 1 1 2.1790220465613235 1.7214207634509258 0 0 0 0
59 3 1 1 2.8711702960526404 0.23414108068278416 0 0 0 0
6 1 1.6 0.2441406249999999 4.769123056895919 1.4567076963726562 0 0 0 0
77 4 0.7 2.915451895043732 -2.3183451050972113 1.5066511420651407 0 0 0 0
66 4 0.7 2.915451895043732 -2.4038982509077957 2.180546485485422 0 0 0 0
64 4 0.7 2.915451895043732 -2.95383081069036 2.324152672234181 0 1 0 0
1 1 1.6 0.2441406249999999 -1.3228761470253048 1.9052382129529386 0 0 0 0
47 3 1 1 0.0431716915537006 2.3812506182093234 0 0 -1 0
51 3 1 1 1.055168127482414 2.524080957197736 0 0 0 0
3 1 1.6 0.2441406249999999 2.033307753462382 3.0005985421386043 0 0 0 0
15 1 1.6 0.2441406249999999 3.2259728331100623 1.4210162505959039 0 0 -1 0
55 3 1 1 4.686844186350668 3.4902144252372613 0 0 0 0
13 1 1.6 0.2441406249999999 -4.040145588011575 2.6000536128522542 0 1 0 0
18 1 1.6 0.2441406249999999 -2.013667332775037 3.192859267511637 0 1 0 0
20 1 1.6 0.2441406249999999 -0.6375806615233595 3.358199118560157 0 0 0 0
76 4 0.7 2.915451895043732 0.5194957653481378 2.980997068773462 0 0 -1 0
61 4 0.7 2.915451895043732 3.068938865124582 2.923815108311576 0 0 0 0
22 2 1.3 0.4551661356395083 3.9270379542220697 2.573977139618024 0 -1 0 0
75 4 0.7 2.915451895043732 -3.954592990871333 3.726732761360794 0 0 0 0
5 1 1.6 0.2441406249999999 -4.158995055605837 4.789698010248677 0 1 -1 0
29 2 1.3 0.4551661356395083 -3.02703122112663 4.039083290832987 0 0 -1 0
42 3 1 1 -1.8753023823032517 4.373676146320787 0 1 -1 0
43 3 1 1 -1.070543612518244 4.386170926574549 0 0 -1 0
38 2 1.3 0.4551661356395083 0.8054100835803375 3.8526605799087976 0 0 0 0
58 3 1 1 1.5600677298532446 4.442686416838614 0 0 0 0
21 2 1.3 0.4551661356395083 2.6238859550950817 4.223081039670265 0 0 0 0
33 2 1.3 0.4551661356395083 3.6271476409234653 3.796510469095824 0 0 -1 0
70 4 0.7 2.915451895043732 4.381708973794228 4.400787127610275 0 0 0 0

Velocities

52 0.03318139481530034 0.2671014302874644 0 0 0 0
7 -0.1135860798892821 0.17281852876322745 0 0 0 0
53 -0.05509680956295234 -0.06640138861013983 0 0 0 0
68 0.09303827128390305 -0.123973774195994 0 0 0 0
35 -0.010973947337047511 -0.052481646691847655 0 0 0 0
37 0.062180687987800576 -0.15475280233748073 0 0 0 0
48 -0.159641229723388 0.2914941056682426 0 0 0 0
63 0.02941520903954005 -0.0597089503432399 0 0 0 0
74 -0.03726576151823961 -0.07480184214111979 0 0 0 0
39 0.007250274344357837 0.037599003058500335 0 0 0 0
2 -0.08002167462656105 0.1667589706400848 0 0 0 0
36 -0.05246249534980269 0.06575909582325032 0 0 0 0
28 -0.14062908082318124 0.0217569790563295 0 0 0 0
4 -0.06780218736311118 -0.10139047059423788 0 0 0 0
44 0.13530479046560281 -0.2113497900547452 0 0 0 0
16 -0.1449880216786545 0.16614244569754397 0 0 0 0
14 0.16363051118223657 -0.08069250312470794 0 0 0 0
12 -0.15052914147644186 0.07362764412786423 0 0 0 0
69 0.058629746693492156 -0.04171487187549854 0 0 0 0
32 -0.08140788102813426 -0.2391080267559107 0 0 0 0
41 0.056488783388904264 -0.10916664405261345 0 0 0 0
49 -0.10536978436352948 0.08935238633886973 0 0 0 0
71 0.19268232685764083 0.06531809760107289 0 0 0 0
10 -0.06526720512126966 -0.09719086379566849 0 0 0 0
72 0.043274470882389185 -0.07886786665286953 0 0 0 0
56 -0.05945046578428891 -0.031155814938830056 0 0 0 0
78 0.11604504255480777 0.014652592490183679 0 0 0 0
67 0.13410853784770357 0.09558533677868022 0 0 0 0
62 -0.05098610211653925 -0.0517041989133605 0 0 0 0
25 0.09028192300387447 -0.045747951127503815 0 0 0 0
45 -0.0433792637371221 -0.13578011483191543 0 0 0 0
80 0.18789542753391242 0.08656170391507657 0 0 0 0
79 0.02773970988335385 -0.060910948306388685 0 0 0 0
30 -0.006132517510054127 0.0469911586241258 0 0 0 0
57 0.022646150726936546 -0.23376726558433664 0 0 0 0
31 0.1713411701186459 -0.03904745507086638 0 0 0 0
17 -0.20666061615670617 0.03641717385213733 0 0 0 0
73 -0.028420561422694838 0.005357994950948261 0 0 0 0
26 0.23303066834228306 0.06579808015966634 0 0 0 0
24 -0.0778318541944672 -0.17381833519091983 0 0 0 0
19 -0.16070404079687714 0.02535427707946555 0 0 0 0
50 -0.028406975158487162 0.038722837881388764 0 0 0 0
9 0.23731319677664997 0.08947066388076892 0 0 0 0
8 0.0316195926693828 -0.044261795188870606 0 0 0 0
46 -0.1659242434049933 -0.010069271904417157 0 0 0 0
23 0.22008515130703454 0.13976479407826614 0 0 0 0
65 -0.19817511163547424 -0.02136133519736812 0 0 0 0
11 0.13247779573151985 -0.061425386523303344 0 0 0 0
27 0.027431583666189627 -0.12014711333880329 0 0 0 0
34 0.00716648492544997 -0.14390125155539316 0 0 0 0
40 -0.1524819188957415 0.0036820722301907868 0 0 0 0
60 0.14502014958527545 0.038073498102182475 0 0 0 0
54 0.04377583096395481 0.10317971063991636 0 0 0 0
59 0.05149494854774749 0.013274881378901008 0 0 0 0
6 -0.030028919853406333 0.16736257992253553 0 0 0 0
77 -0.05428218492838662 0.06644778494510513 0 0 0 0
66 -0.01389215435295703 -0.00922034918257041 0 0 0 0
64 -0.06209601950601385 0.20183374450117814 0 0 0 0
1 -0.12167981725987265 -0.00877459427713383 0 0 0 0
47 0.08736262281697761 -0.22583553013231017 0 0 0 0
51 0.06486808632356716 0.15748518167686024 0 0 0 0
3 -0.09718174170915213 0.18036847699060668 0 0 0 0
15 -0.009426482648412142 -0.27676277111094155 0 0 0 0
55 -0.04106768442992861 0.006265232159810778 0 0 0 0
13 0.15280061898292402 -0.14457942959924663 0 0 0 0
18 0.05743873150803944 -0.038675574878060684 0 0 0 0
20 0.10275683039412935 0.06730245915176937 0 0 0 0
76 -0.0383379810348691 0.028870217556553352 0 0 0 0
61 -0.033211254671532374 -0.044201860472446036 0 0 0 0
22 0.09782562449582326 -0.1345587444607247 0 0 0 0
75 -0.10822564289100206 0.07233826758116232 0 0 0 0
5 -0.08684336733134775 0.08955060166604602 0 0 0 0
29 -0.010820230094259612 0.17073001874215804 0 0 0 0
42 0.058254718858740416 -0.12337905879383473 0 0 0 0
43 0.08701982676004404 0.007795608423817289 0 0 0 0
38 -0.07110490215561253 -0.0005161879187623857 0 0 0 0
58 -0.06834801069915505 0.002003576796098138 0 0 0 0
21 -0.21564560881178763 -0.061000610902660304 0 0 0 0
33 0.01175015344981227 0.15004518843777415 0 0 0 0
70 0.0311599283367836 0.1431899889712222 0 0 0 0
