LAMMPS data file.

     63 atoms
    148 bonds
      0 angles
      0 dihedrals
      0 impropers
      1 atom types
    148 bond types
      0 angle types
      0 dihedral types
      0 improper types
  -4.791302   4.791302 xlo xhi
  -4.791302   4.791302 ylo yhi
  -0.100000   0.100000 zlo zhi

Masses # ['atom_id', 'mass']

1 10000.0

Atoms # ['atomID', 'moleculeID', 'atomType', 'charge', 'x', 'y', 'z']

     52      1      1   0.000000  -3.580075  -3.663082   0.000000
      7      1      1   0.000000  -2.589019  -4.242222   0.000000
     53      1      1   0.000000  -1.436533  -4.407961   0.000000
     68      1      1   0.000000  -0.747812  -4.529677   0.000000
     35      1      1   0.000000  -0.614463  -3.643355   0.000000
     37      1      1   0.000000   0.018024   4.683050   0.000000
     39      1      1   0.000000   2.256323  -4.315362   0.000000
      2      1      1   0.000000   3.670942  -4.416668   0.000000
     36      1      1   0.000000  -4.720183  -3.603875   0.000000
     28      1      1   0.000000  -3.921040  -2.845940   0.000000
      4      1      1   0.000000  -2.487623  -2.742278   0.000000
     44      1      1   0.000000  -1.613638  -3.417141   0.000000
     32      1      1   0.000000  -4.633204  -2.026350   0.000000
     41      1      1   0.000000  -3.585171  -2.071578   0.000000
     49      1      1   0.000000  -2.526565  -1.674856   0.000000
     71      1      1   0.000000  -1.786385  -1.715216   0.000000
     10      1      1   0.000000  -0.945552  -2.383651   0.000000
     25      1      1   0.000000  -4.458415  -0.720668   0.000000
     45      1      1   0.000000  -3.360198  -1.268455   0.000000
     80      1      1   0.000000  -1.902933  -1.085531   0.000000
     79      1      1   0.000000  -2.522177  -0.964875   0.000000
     30      1      1   0.000000  -1.178043  -0.957524   0.000000
     17      1      1   0.000000   2.069398  -0.521120   0.000000
     26      1      1   0.000000   4.015350  -1.405448   0.000000
     24      1      1   0.000000  -4.353119   0.329097   0.000000
     19      1      1   0.000000  -3.136476  -0.167010   0.000000
     50      1      1   0.000000  -2.026167  -0.265306   0.000000
      9      1      1   0.000000  -0.901972   0.286926   0.000000
      8      1      1   0.000000   0.654052   0.213695   0.000000
     46      1      1   0.000000   3.285653  -0.533674   0.000000
     23      1      1   0.000000   3.953668   0.285232   0.000000
     65      1      1   0.000000   4.174422  -0.562017   0.000000
     11      1      1   0.000000  -3.360560   1.279048   0.000000
     27      1      1   0.000000  -2.154289   0.723069   0.000000
     34      1      1   0.000000  -0.011826   1.364839   0.000000
     40      1      1   0.000000   1.168321   1.454661   0.000000
     60      1      1   0.000000   2.071234   0.744358   0.000000
     54      1      1   0.000000   2.179022   1.721421   0.000000
     59      1      1   0.000000   2.871170   0.234141   0.000000
      6      1      1   0.000000   4.769123   1.456708   0.000000
     77      1      1   0.000000  -2.318345   1.506651   0.000000
     66      1      1   0.000000  -2.403898   2.180546   0.000000
     64      1      1   0.000000  -2.953831   2.324153   0.000000
      1      1      1   0.000000  -1.322876   1.905238   0.000000
     47      1      1   0.000000   0.043172   2.381251   0.000000
     51      1      1   0.000000   1.055168   2.524081   0.000000
      3      1      1   0.000000   2.033308   3.000599   0.000000
     15      1      1   0.000000   3.225973   1.421016   0.000000
     13      1      1   0.000000  -4.040146   2.600054   0.000000
     18      1      1   0.000000  -2.013667   3.192859   0.000000
     20      1      1   0.000000  -0.637581   3.358199   0.000000
     76      1      1   0.000000   0.519496   2.980997   0.000000
     22      1      1   0.000000   3.927038   2.573977   0.000000
     75      1      1   0.000000  -3.954593   3.726733   0.000000
      5      1      1   0.000000  -4.158995   4.789698   0.000000
     29      1      1   0.000000  -3.027031   4.039083   0.000000
     42      1      1   0.000000  -1.875302   4.373676   0.000000
     43      1      1   0.000000  -1.070544   4.386171   0.000000
     38      1      1   0.000000   0.805410   3.852661   0.000000
     58      1      1   0.000000   1.560068   4.442686   0.000000
     21      1      1   0.000000   2.623886   4.223081   0.000000
     33      1      1   0.000000   3.627148   3.796510   0.000000
     70      1      1   0.000000   4.381709   4.400787   0.000000

Bond Coeffs # ['bondID', 'bondCoeff', 'd']

      1   0.841399   1.090182
      2   0.393212   1.594728
      3   0.915183   1.045312
      4   1.162646   0.927419
      5   1.382525   0.850479
      6   1.382525   0.850479
      7   2.512432   0.630889
      8   1.983760   0.709995
      9   0.986241   1.006951
     10   0.542521   1.357662
     11   1.819851   0.741280
     12   1.437567   0.834038
     13   0.952814   1.024462
     14   0.866697   1.074153
     15   1.089754   0.957935
     16   2.167062   0.679304
     17   0.604431   1.286254
     18   0.529779   1.373892
     19   0.484160   1.437161
     20   0.490840   1.427348
     21   0.569174   1.325493
     22   0.613635   1.276571
     23   0.613635   1.276571
     24   0.858618   1.079195
     25   0.524855   1.380321
     26   0.524855   1.380321
     27   0.858618   1.079195
     28   1.560270   0.800571
     29   0.763637   1.144344
     30   0.453126   1.485561
     31   0.579259   1.313904
     32   0.478750   1.445258
     33   0.603308   1.287450
     34   0.834392   1.094750
     35   0.794932   1.121592
     36   1.043914   0.978741
     37   0.794932   1.121592
     38   1.704796   0.765885
     39   0.847504   1.086248
     40   0.554180   1.343305
     41   0.520575   1.385984
     42   0.660310   1.230626
     43   0.803740   1.115429
     44   2.044360   0.699393
     45   1.304523   0.875536
     46   2.438504   0.640381
     47   1.453583   0.829431
     48   0.864705   1.075390
     49   0.510882   1.399071
     50   1.357444   0.858300
     51   0.869694   1.072301
     52   0.804862   1.114652
     53   1.845524   0.736106
     54   0.467007   1.463317
     55   0.808534   1.112118
     56   0.808534   1.112118
     57   0.824337   1.101406
     58   1.275545   0.885426
     59   0.497293   1.418057
     60   0.876497   1.068132
     61   0.898397   1.055032
     62   0.612697   1.277548
     63   0.565443   1.329859
     64   1.323390   0.869273
     65   1.244789   0.896297
     66   1.323390   0.869273
     67   0.824227   1.101480
     68   0.844719   1.088038
     69   0.675935   1.216320
     70   0.568660   1.326092
     71   0.713871   1.183560
     72   0.707477   1.188896
     73   0.530439   1.373037
     74   0.530439   1.373037
     75   1.543703   0.804856
     76   0.783254   1.129923
     77   0.566829   1.328232
     78   0.785474   1.128325
     79   1.403620   0.844064
     80   0.803598   1.115528
     81   0.796051   1.120804
     82   0.908744   1.049009
     83   1.070076   0.966702
     84   0.398947   1.583223
     85   0.615434   1.274704
     86   0.480711   1.442308
     87   0.511704   1.397947
     88   0.878723   1.066778
     89   0.412104   1.557746
     90   1.059123   0.971688
     91   0.468349   1.461219
     92   0.573723   1.320228
     93   0.674109   1.217965
     94   0.674109   1.217965
     95   0.651654   1.238773
     96   0.816078   1.106966
     97   0.816078   1.106966
     98   1.822428   0.740755
     99   1.822428   0.740755
    100   1.188292   0.917357
    101   0.849576   1.084923
    102   1.078484   0.962926
    103   1.078484   0.962926
    104   0.578461   1.314810
    105   0.773726   1.136858
    106   0.549206   1.349374
    107   0.637441   1.252507
    108   0.820150   1.104215
    109   0.795119   1.121460
    110   0.965141   1.017899
    111   0.692564   1.201628
    112   0.692564   1.201628
    113   0.758958   1.147866
    114   3.095510   0.568374
    115   0.497163   1.418242
    116   1.034908   0.982990
    117   0.848245   1.085774
    118   2.017279   0.704072
    119   0.737629   1.164343
    120   1.006743   0.996645
    121   1.198947   0.913272
    122   1.198947   0.913272
    123   0.705292   1.190736
    124   0.631105   1.258778
    125   0.853479   1.082440
    126   0.486841   1.433199
    127   0.767253   1.141644
    128   0.851491   1.083702
    129   0.478952   1.444954
    130   0.532696   1.370125
    131   0.916891   1.044338
    132   0.549587   1.348906
    133   0.532696   1.370125
    134   1.110840   0.948799
    135   0.916891   1.044338
    136   1.313480   0.872546
    137   0.793385   1.122685
    138   0.503702   1.409008
    139   0.503702   1.409008
    140   0.624439   1.265480
    141   0.757702   1.148817
    142   0.895375   1.056811
    143   0.442455   1.503368
    144   0.542075   1.358221
    145   0.419712   1.543563
    146   0.589458   1.302487
    147   0.842922   1.089196
    148   0.791620   1.123936

Bonds # ['ID', 'type', 'atom1', 'atom2']

         1         1        21        33
         2         2        17         8
         3         3        40        54
         4         4        49        45
         5         5        68        37
         6         6        37        68
         7         7        80        79
         8         8        49        79
         9         9        79        19
        10        10         3        21
        11        11        49        71
        12        12        41        45
        13        13        35        44
        14        14        71        10
        15        15        38        58
        16        16        77        66
        17        17         4        41
        18        18        24        11
        19        19        28         4
        20        20        23         6
        21        21        19        27
        22        22        24        23
        23        23        23        24
        24        24        39        58
        25        25         6        13
        26        26        13         6
        27        27        58        39
        28        28        27        77
        29        29        37        38
        30        30        11        13
        31        31        24        19
        32        32        27         1
        33        33        54         3
        34        34        30        50
        35        35        32        26
        36        36        75        29
        37        37        26        32
        38        38        47        76
        39        39        58        21
        40        40         8        40
        41        41        18        20
        42        42        44        10
        43        43        20        43
        44        44        53        68
        45        45        23        65
        46        46        71        80
        47        47        80        50
        48        48        40        51
        49        49         6        22
        50        50        26        65
        51        51        77         1
        52        52        19        50
        53        53        80        30
        54        54        19        11
        55        55         5        70
        56        56        70         5
        57        57        36        28
        58        58        52        28
        59        59        34         1
        60        60         4        49
        61        61        25        24
        62        62         7        44
        63        63         8        34
        64        64        53        43
        65        65        68        35
        66        66        43        53
        67        67        17        59
        68        68        51         3
        69        69        17        46
        70        70         9        27
        71        71        34        40
        72        72        18        42
        73        73         7        29
        74        74        29         7
        75        75        42        43
        76        76        13        75
        77        77        11        27
        78        78        37        43
        79        79        28        41
        80        80        66         1
        81        81        64        13
        82        82        32        41
        83        83        33        70
        84        84         4        10
        85        85        30         9
        86        86         2        36
        87        87         9        34
        88        88        11        77
        89        89         9         8
        90        90        71        30
        91        91         1        18
        92        92        18        29
        93        93        24         6
        94        94         6        24
        95        95        59        15
        96        96        39        21
        97        97        21        39
        98        98        68        43
        99        99        43        68
       100       100        76        38
       101       101        66        18
       102       102        25        65
       103       103        65        25
       104       104        36         5
       105       105        26        46
       106       106        15        22
       107       107        50         9
       108       108         4        44
       109       109        11        64
       110       110        34        47
       111       111         7        42
       112       112        42         7
       113       113        52         7
       114       114        66        64
       115       115        39         2
       116       116        60        54
       117       117        28        32
       118       118        51        76
       119       119         7        53
       120       120        50        27
       121       121        53        42
       122       122        42        53
       123       123        47        20
       124       124        22        33
       125       125        75         5
       126       126        25        19
       127       127        52        36
       128       128        23        59
       129       129        10        30
       130       130         2        33
       131       131         2        70
       132       132        23        15
       133       133        33         2
       134       134        60        59
       135       135        70         2
       136       136        46        59
       137       137        53        35
       138       138         2        21
       139       139        21         2
       140       140        17        60
       141       141        40        60
       142       142        46        23
       143       143         7         4
       144       144         5        29
       145       145         6        15
       146       146        35        10
       147       147        54        15
       148       148        45        19
