ITEM: TIMESTEP
0
ITEM: NUMBER OF ATOMS
80
ITEM: BOX BOUNDS pp pp pp
-1.0000000000000000e+01 1.0000000000000000e+01
-1.0000000000000000e+01 1.0000000000000000e+01
-1.0000000000000001e-01 1.0000000000000001e-01
ITEM: ATOMS id type xs ys zs
46 3 0.0590849 0.0400823 0.5
7 1 0.328913 0.0379439 0.5
53 3 0.449815 0.0488783 0.5
76 4 0.93015 0.0322689 0.5
36 2 0.0374895 0.0857824 0.5
26 2 0.280008 0.0963967 0.5
45 3 0.31047 0.0669273 0.5
43 3 0.229554 0.119939 0.5
71 4 0.562275 0.157102 0.5
60 3 0.644858 0.127438 0.5
15 1 0.720839 0.144856 0.5
5 1 0.865362 0.145374 0.5
42 3 0.885353 0.126671 0.5
67 4 0.00619814 0.172058 0.5
28 2 0.145666 0.206044 0.5
29 2 0.109073 0.19824 0.5
16 1 0.215874 0.191439 0.5
56 3 0.840257 0.196708 0.5
35 2 0.469402 0.235048 0.5
32 2 0.282758 0.306615 0.5
14 1 0.457207 0.277198 0.5
72 4 0.426327 0.275167 0.5
33 2 0.718765 0.284947 0.5
48 3 0.685033 0.344316 0.5
59 3 0.719541 0.325033 0.5
2 1 0.903275 0.335879 0.5
12 1 0.979552 0.331878 0.5
62 4 0.000975612 0.397104 0.5
69 4 0.0399463 0.377394 0.5
31 2 0.0808217 0.370217 0.5
49 3 0.284011 0.376023 0.5
19 1 0.496008 0.400956 0.5
47 3 0.517545 0.383659 0.5
78 4 0.75215 0.378467 0.5
74 4 0.809507 0.389967 0.5
73 4 0.891556 0.377314 0.5
11 1 0.208391 0.423877 0.5
9 1 0.453113 0.465513 0.5
4 1 0.599123 0.45497 0.5
65 4 0.692832 0.433215 0.5
6 1 0.888942 0.439795 0.5
40 2 0.88918 0.449839 0.5
25 2 0.0265065 0.495565 0.5
27 2 0.00865836 0.521115 0.5
63 4 0.266584 0.477894 0.5
54 3 0.683793 0.502929 0.5
24 2 0.151399 0.566314 0.5
8 1 0.58223 0.53339 0.5
57 3 0.628819 0.566612 0.5
10 1 0.869373 0.552397 0.5
17 1 0.937736 0.52985 0.5
20 1 0.383387 0.586585 0.5
50 3 0.584673 0.598349 0.5
21 2 0.632153 0.588279 0.5
61 4 0.85111 0.612009 0.5
79 4 0.874076 0.598179 0.5
80 4 0.0701881 0.650794 0.5
34 2 0.45836 0.661181 0.5
64 4 0.580868 0.645877 0.5
38 2 0.653576 0.643739 0.5
52 3 0.720037 0.653675 0.5
75 4 0.336806 0.702424 0.5
30 2 0.505426 0.691098 0.5
51 3 0.57867 0.707715 0.5
18 1 0.595807 0.729859 0.5
70 4 0.804469 0.713973 0.5
22 2 0.269934 0.781155 0.5
3 1 0.459974 0.782955 0.5
23 2 0.0265837 0.79284 0.5
1 1 0.082455 0.820793 0.5
66 4 0.435283 0.806293 0.5
55 3 0.979165 0.834214 0.5
58 3 0.503711 0.865938 0.5
77 4 0.0811519 0.920225 0.5
13 1 0.780087 0.919785 0.5
39 2 0.760989 0.943899 0.5
41 3 0.272979 0.959748 0.5
37 2 0.348781 0.963951 0.5
68 4 0.546913 0.964053 0.5
44 3 0.72767 0.950039 0.5
ITEM: TIMESTEP
10
ITEM: NUMBER OF ATOMS
80
ITEM: BOX BOUNDS pp pp pp
-9.2510775380960375e+00 9.2510775380960375e+00
-9.2510775380960375e+00 9.2510775380960375e+00
-1.0000000000000001e-01 1.0000000000000001e-01
ITEM: ATOMS id type xs ys zs
46 3 0.059097 0.0400568 0.5
7 1 0.328974 0.0378472 0.5
53 3 0.449815 0.0488783 0.5
76 4 0.93015 0.0322689 0.5
36 2 0.0374774 0.0858079 0.5
26 2 0.279975 0.0964329 0.5
45 3 0.31045 0.0669838 0.5
43 3 0.229546 0.119943 0.5
71 4 0.562275 0.157102 0.5
60 3 0.644858 0.127438 0.5
15 1 0.720839 0.144856 0.5
5 1 0.865274 0.145441 0.5
42 3 0.885455 0.126576 0.5
67 4 0.00619814 0.172058 0.5
28 2 0.14576 0.206067 0.5
29 2 0.108972 0.198218 0.5
16 1 0.21588 0.191438 0.5
56 3 0.840243 0.196737 0.5
35 2 0.469432 0.234945 0.5
32 2 0.282758 0.306615 0.5
14 1 0.457276 0.277307 0.5
72 4 0.426228 0.275161 0.5
33 2 0.718764 0.284881 0.5
48 3 0.684997 0.344335 0.5
59 3 0.719578 0.325079 0.5
2 1 0.903272 0.335827 0.5
12 1 0.979569 0.331877 0.5
62 4 0.000975612 0.397104 0.5
69 4 0.0399134 0.377399 0.5
31 2 0.0808546 0.370212 0.5
49 3 0.284011 0.376023 0.5
19 1 0.495907 0.401032 0.5
47 3 0.517654 0.383572 0.5
78 4 0.75215 0.378467 0.5
74 4 0.809507 0.389967 0.5
73 4 0.891541 0.377367 0.5
11 1 0.208391 0.423877 0.5
9 1 0.453105 0.465524 0.5
4 1 0.599123 0.454967 0.5
65 4 0.692832 0.433215 0.5
6 1 0.888936 0.439565 0.5
40 2 0.889186 0.450069 0.5
25 2 0.0265787 0.495462 0.5
27 2 0.00859368 0.521218 0.5
63 4 0.266584 0.477894 0.5
54 3 0.683793 0.502929 0.5
24 2 0.151399 0.566314 0.5
8 1 0.582202 0.533371 0.5
57 3 0.628825 0.566499 0.5
10 1 0.869337 0.552363 0.5
17 1 0.93776 0.529841 0.5
20 1 0.383387 0.586585 0.5
50 3 0.584638 0.59836 0.5
21 2 0.6322 0.588381 0.5
61 4 0.851083 0.612025 0.5
79 4 0.874108 0.598207 0.5
80 4 0.0701881 0.650794 0.5
34 2 0.458329 0.661161 0.5
64 4 0.580868 0.645877 0.5
38 2 0.653584 0.643761 0.5
52 3 0.720037 0.653675 0.5
75 4 0.336806 0.702424 0.5
30 2 0.505457 0.691117 0.5
51 3 0.578586 0.707606 0.5
18 1 0.595891 0.729968 0.5
70 4 0.804469 0.713973 0.5
22 2 0.269934 0.781155 0.5
3 1 0.460038 0.782894 0.5
23 2 0.0265479 0.792823 0.5
1 1 0.0824908 0.820811 0.5
66 4 0.435219 0.806354 0.5
55 3 0.979165 0.834214 0.5
58 3 0.503711 0.865938 0.5
77 4 0.0811519 0.920225 0.5
13 1 0.7802 0.919653 0.5
39 2 0.76098 0.944005 0.5
41 3 0.272979 0.959748 0.5
37 2 0.348781 0.963951 0.5
68 4 0.546913 0.964053 0.5
44 3 0.727566 0.950065 0.5
ITEM: TIMESTEP
20
ITEM: NUMBER OF ATOMS
80
ITEM: BOX BOUNDS pp pp pp
-8.3294826518391876e+00 8.3294826518391876e+00
-8.3294826518391876e+00 8.3294826518391876e+00
-1.0000000000000001e-01 1.0000000000000001e-01
ITEM: ATOMS id type xs ys zs
46 3 0.0591499 0.0399448 0.5
7 1 0.329206 0.037499 0.5
53 3 0.449815 0.0488783 0.5
76 4 0.93015 0.0322689 0.5
36 2 0.0374245 0.0859199 0.5
26 2 0.279858 0.0965776 0.5
45 3 0.310387 0.0671802 0.5
43 3 0.22949 0.119966 0.5
71 4 0.562275 0.157102 0.5
60 3 0.644858 0.127438 0.5
15 1 0.720839 0.144856 0.5
5 1 0.864969 0.145657 0.5
42 3 0.885822 0.126233 0.5
67 4 0.00619814 0.172058 0.5
28 2 0.146073 0.206159 0.5
29 2 0.108601 0.198139 0.5
16 1 0.215939 0.191429 0.5
56 3 0.840181 0.196864 0.5
35 2 0.469541 0.234562 0.5
32 2 0.282758 0.306615 0.5
14 1 0.457528 0.277714 0.5
72 4 0.425866 0.275136 0.5
33 2 0.718759 0.28463 0.5
48 3 0.684856 0.344414 0.5
59 3 0.719724 0.325251 0.5
2 1 0.903232 0.335625 0.5
12 1 0.979668 0.331872 0.5
62 4 0.000975612 0.397104 0.5
69 4 0.039778 0.377423 0.5
31 2 0.08099 0.370188 0.5
49 3 0.284011 0.376023 0.5
19 1 0.495565 0.401272 0.5
47 3 0.518043 0.38326 0.5
78 4 0.75215 0.378467 0.5
74 4 0.809507 0.389967 0.5
73 4 0.891483 0.377565 0.5
11 1 0.208391 0.423877 0.5
9 1 0.453058 0.465596 0.5
4 1 0.599135 0.454915 0.5
65 4 0.692832 0.433215 0.5
6 1 0.888916 0.438766 0.5
40 2 0.889205 0.450878 0.5
25 2 0.0268397 0.495088 0.5
27 2 0.00839571 0.521584 0.5
63 4 0.266584 0.477894 0.5
54 3 0.683793 0.502929 0.5
24 2 0.151399 0.566314 0.5
8 1 0.582054 0.533273 0.5
57 3 0.628872 0.56611 0.5
10 1 0.869176 0.552225 0.5
17 1 0.937842 0.529801 0.5
20 1 0.383387 0.586585 0.5
50 3 0.58449 0.598436 0.5
21 2 0.632398 0.588736 0.5
61 4 0.850975 0.612097 0.5
79 4 0.874232 0.598321 0.5
80 4 0.0701881 0.650794 0.5
34 2 0.458197 0.661077 0.5
64 4 0.580868 0.645879 0.5
38 2 0.653625 0.643867 0.5
52 3 0.720037 0.653675 0.5
75 4 0.336806 0.702424 0.5
30 2 0.505589 0.691201 0.5
51 3 0.578283 0.707216 0.5
18 1 0.596194 0.730359 0.5
70 4 0.804469 0.713973 0.5
22 2 0.269934 0.781155 0.5
3 1 0.460275 0.782671 0.5
23 2 0.0263993 0.792742 0.5
1 1 0.0826442 0.820887 0.5
66 4 0.434983 0.806578 0.5
55 3 0.979161 0.834219 0.5
58 3 0.503711 0.865938 0.5
77 4 0.0811519 0.920225 0.5
13 1 0.780629 0.919168 0.5
39 2 0.760957 0.944384 0.5
41 3 0.272979 0.959748 0.5
37 2 0.348786 0.963931 0.5
68 4 0.546913 0.964053 0.5
44 3 0.72716 0.950172 0.5
ITEM: TIMESTEP
30
ITEM: NUMBER OF ATOMS
80
ITEM: BOX BOUNDS pp pp pp
-7.6429632028227701e+00 7.6429632028227701e+00
-7.6429632028227701e+00 7.6429632028227701e+00
-1.0000000000000001e-01 1.0000000000000001e-01
ITEM: ATOMS id type xs ys zs
46 3 0.0592716 0.0396872 0.5
7 1 0.329684 0.0368291 0.5
53 3 0.449815 0.0488783 0.5
76 4 0.93015 0.0322689 0.5
36 2 0.0373028 0.0861775 0.5
26 2 0.279616 0.096905 0.5
45 3 0.310283 0.0675501 0.5
43 3 0.229339 0.119998 0.5
71 4 0.562275 0.157102 0.5
60 3 0.644849 0.127436 0.5
15 1 0.720848 0.144858 0.5
5 1 0.864399 0.146028 0.5
42 3 0.886536 0.125566 0.5
67 4 0.00619814 0.172058 0.5
28 2 0.146627 0.206355 0.5
29 2 0.107862 0.197981 0.5
16 1 0.216115 0.191432 0.5
56 3 0.840038 0.197159 0.5
35 2 0.469763 0.233792 0.5
32 2 0.282757 0.306609 0.5
14 1 0.458025 0.278533 0.5
72 4 0.425147 0.275088 0.5
33 2 0.718751 0.284108 0.5
48 3 0.684549 0.344589 0.5
59 3 0.720038 0.325599 0.5
2 1 0.90309 0.335206 0.5
12 1 0.979929 0.33185 0.5
62 4 0.000977353 0.397114 0.5
69 4 0.039482 0.377475 0.5
31 2 0.081287 0.370136 0.5
49 3 0.284011 0.376029 0.5
19 1 0.494944 0.401675 0.5
47 3 0.518799 0.382652 0.5
78 4 0.75215 0.378467 0.5
74 4 0.809507 0.389967 0.5
73 4 0.891364 0.377928 0.5
11 1 0.208391 0.423877 0.5
9 1 0.452922 0.4658 0.5
4 1 0.599173 0.454738 0.5
65 4 0.692832 0.433215 0.5
6 1 0.888877 0.437299 0.5
40 2 0.889241 0.452413 0.5
25 2 0.0273499 0.494356 0.5
27 2 0.00807987 0.522292 0.5
63 4 0.266584 0.477894 0.5
54 3 0.683793 0.502929 0.5
24 2 0.151399 0.566314 0.5
8 1 0.581658 0.533019 0.5
57 3 0.629033 0.565367 0.5
10 1 0.868808 0.5519 0.5
17 1 0.937991 0.529712 0.5
20 1 0.383387 0.586585 0.5
50 3 0.584139 0.598649 0.5
21 2 0.632847 0.58941 0.5
61 4 0.850734 0.612285 0.5
79 4 0.874498 0.598571 0.5
80 4 0.0701881 0.650794 0.5
34 2 0.4579 0.660888 0.5
64 4 0.580866 0.645907 0.5
38 2 0.653708 0.644124 0.5
52 3 0.720053 0.653677 0.5
75 4 0.336806 0.702424 0.5
30 2 0.505886 0.69139 0.5
51 3 0.577695 0.706456 0.5
18 1 0.596782 0.731119 0.5
70 4 0.804469 0.713973 0.5
22 2 0.269934 0.781155 0.5
3 1 0.460746 0.782226 0.5
23 2 0.0260932 0.792533 0.5
1 1 0.0829902 0.821061 0.5
66 4 0.434512 0.807023 0.5
55 3 0.979121 0.834254 0.5
58 3 0.503711 0.865938 0.5
77 4 0.0811519 0.920225 0.5
13 1 0.781504 0.918196 0.5
39 2 0.760931 0.945122 0.5
41 3 0.272979 0.959748 0.5
37 2 0.348813 0.96383 0.5
68 4 0.546913 0.964053 0.5
44 3 0.72631 0.950405 0.5
ITEM: TIMESTEP
40
ITEM: NUMBER OF ATOMS
80
ITEM: BOX BOUNDS pp pp pp
-7.1540809147494429e+00 7.1540809147494429e+00
-7.1540809147494429e+00 7.1540809147494429e+00
-1.0000000000000001e-01 1.0000000000000001e-01
ITEM: ATOMS id type xs ys zs
46 3 0.0594882 0.0392289 0.5
7 1 0.330474 0.0357888 0.5
53 3 0.449815 0.0488783 0.5
76 4 0.93015 0.0322689 0.5
36 2 0.0370862 0.0866359 0.5
26 2 0.279215 0.0974857 0.5
45 3 0.310145 0.068118 0.5
43 3 0.229046 0.120007 0.5
71 4 0.562275 0.157102 0.5
60 3 0.64479 0.127423 0.5
15 1 0.720907 0.144872 0.5
5 1 0.863527 0.146546 0.5
42 3 0.887665 0.124515 0.5
67 4 0.00619814 0.172058 0.5
28 2 0.147429 0.206692 0.5
29 2 0.106675 0.197726 0.5
16 1 0.216476 0.191488 0.5
56 3 0.839781 0.197692 0.5
35 2 0.470137 0.232526 0.5
32 2 0.282757 0.30656 0.5
14 1 0.458822 0.279866 0.5
72 4 0.423976 0.275021 0.5
33 2 0.718755 0.283216 0.5
48 3 0.684008 0.344915 0.5
59 3 0.720576 0.326164 0.5
2 1 0.902783 0.334489 0.5
12 1 0.980416 0.331765 0.5
62 4 0.000977538 0.397179 0.5
69 4 0.0389937 0.377561 0.5
31 2 0.0817995 0.370046 0.5
49 3 0.284012 0.376077 0.5
19 1 0.494017 0.402223 0.5
47 3 0.519996 0.381694 0.5
78 4 0.75215 0.378467 0.5
74 4 0.809507 0.389967 0.5
73 4 0.89117 0.378456 0.5
11 1 0.208391 0.423877 0.5
9 1 0.452652 0.46621 0.5
4 1 0.599257 0.454357 0.5
65 4 0.692832 0.433215 0.5
6 1 0.888806 0.435128 0.5
40 2 0.889283 0.454769 0.5
25 2 0.0281618 0.493192 0.5
27 2 0.00767561 0.52341 0.5
63 4 0.266584 0.477894 0.5
54 3 0.683793 0.502929 0.5
24 2 0.151399 0.566314 0.5
8 1 0.580892 0.53254 0.5
57 3 0.629385 0.564203 0.5
10 1 0.868156 0.551303 0.5
17 1 0.938226 0.529585 0.5
20 1 0.383387 0.586585 0.5
50 3 0.583499 0.599056 0.5
21 2 0.633638 0.59045 0.5
61 4 0.850311 0.612657 0.5
79 4 0.874949 0.599 0.5
80 4 0.0701881 0.650794 0.5
34 2 0.457379 0.660557 0.5
64 4 0.580859 0.645999 0.5
38 2 0.653816 0.644597 0.5
52 3 0.720131 0.653688 0.5
75 4 0.336806 0.702424 0.5
30 2 0.506391 0.691718 0.5
51 3 0.576783 0.705259 0.5
18 1 0.597711 0.732319 0.5
70 4 0.804469 0.713973 0.5
22 2 0.269934 0.781155 0.5
3 1 0.461504 0.781509 0.5
23 2 0.0255991 0.792128 0.5
1 1 0.0835983 0.821365 0.5
66 4 0.433753 0.80774 0.5
55 3 0.979007 0.834355 0.5
58 3 0.503711 0.865938 0.5
77 4 0.0811519 0.920225 0.5
13 1 0.782931 0.916629 0.5
39 2 0.760922 0.946296 0.5
41 3 0.272975 0.959747 0.5
37 2 0.348885 0.963575 0.5
68 4 0.546913 0.964053 0.5
44 3 0.724893 0.950799 0.5
ITEM: TIMESTEP
50
ITEM: NUMBER OF ATOMS
80
ITEM: BOX BOUNDS pp pp pp
-6.8176749407205675e+00 6.8176749407205675e+00
-6.8176749407205675e+00 6.8176749407205675e+00
-1.0000000000000001e-01 1.0000000000000001e-01
ITEM: ATOMS id type xs ys zs
46 3 0.0598167 0.0385337 0.5
7 1 0.331611 0.0343724 0.5
53 3 0.449815 0.0488783 0.5
76 4 0.93015 0.0322689 0.5
36 2 0.0367577 0.0873311 0.5
26 2 0.278638 0.0983652 0.5
45 3 0.309984 0.0688885 0.5
43 3 0.228575 0.119963 0.5
71 4 0.562275 0.157102 0.5
60 3 0.644635 0.127387 0.5
15 1 0.721063 0.144907 0.5
5 1 0.862343 0.147185 0.5
42 3 0.88924 0.123054 0.5
67 4 0.00619814 0.172058 0.5
28 2 0.148458 0.207193 0.5
29 2 0.104998 0.197365 0.5
16 1 0.217072 0.191633 0.5
56 3 0.839388 0.198514 0.5
35 2 0.47068 0.230704 0.5
32 2 0.282754 0.306428 0.5
14 1 0.45995 0.281773 0.5
72 4 0.422305 0.274936 0.5
33 2 0.718781 0.281889 0.5
48 3 0.683184 0.345434 0.5
59 3 0.721373 0.326972 0.5
2 1 0.902268 0.333379 0.5
12 1 0.981148 0.331555 0.5
62 4 0.000963979 0.397352 0.5
69 4 0.0383316 0.377696 0.5
31 2 0.082561 0.369912 0.5
49 3 0.284025 0.376203 0.5
19 1 0.492792 0.40288 0.5
47 3 0.521664 0.380362 0.5
78 4 0.75215 0.378468 0.5
74 4 0.809507 0.389967 0.5
73 4 0.890896 0.379119 0.5
11 1 0.208374 0.423877 0.5
9 1 0.45221 0.466885 0.5
4 1 0.599403 0.45371 0.5
65 4 0.692832 0.433215 0.5
6 1 0.888679 0.432316 0.5
40 2 0.889302 0.457905 0.5
25 2 0.0293189 0.491551 0.5
27 2 0.00722964 0.524967 0.5
63 4 0.266591 0.4779 0.5
54 3 0.683793 0.502929 0.5
24 2 0.151399 0.566314 0.5
8 1 0.579666 0.531799 0.5
57 3 0.629985 0.562592 0.5
10 1 0.867156 0.550393 0.5
17 1 0.938562 0.529496 0.5
20 1 0.383387 0.586584 0.5
50 3 0.582515 0.599685 0.5
21 2 0.634822 0.591862 0.5
61 4 0.849674 0.613259 0.5
79 4 0.875618 0.599637 0.5
80 4 0.0701881 0.650794 0.5
34 2 0.456596 0.66006 0.5
64 4 0.580847 0.646186 0.5
38 2 0.653925 0.645337 0.5
52 3 0.720314 0.653714 0.5
75 4 0.336806 0.702424 0.5
30 2 0.507089 0.692185 0.5
51 3 0.575572 0.703612 0.5
18 1 0.599011 0.733991 0.5
70 4 0.804469 0.713973 0.5
22 2 0.269934 0.781155 0.5
3 1 0.46257 0.780507 0.5
23 2 0.0249046 0.791471 0.5
1 1 0.0845134 0.821824 0.5
66 4 0.432682 0.808752 0.5
55 3 0.978786 0.834552 0.5
58 3 0.503711 0.865938 0.5
77 4 0.0811519 0.920225 0.5
13 1 0.78495 0.914414 0.5
39 2 0.76095 0.947944 0.5
41 3 0.27294 0.959746 0.5
37 2 0.349043 0.963104 0.5
68 4 0.546913 0.964053 0.5
44 3 0.722846 0.951364 0.5
ITEM: TIMESTEP
60
ITEM: NUMBER OF ATOMS
80
ITEM: BOX BOUNDS pp pp pp
-6.5778337633817427e+00 6.5778337633817427e+00
-6.5778337633817427e+00 6.5778337633817427e+00
-1.0000000000000001e-01 1.0000000000000001e-01
ITEM: ATOMS id type xs ys zs
46 3 0.0602664 0.0375821 0.5
7 1 0.333108 0.0326075 0.5
53 3 0.449815 0.0488783 0.5
76 4 0.93015 0.0322689 0.5
36 2 0.036308 0.0882827 0.5
26 2 0.277887 0.0995667 0.5
45 3 0.309818 0.0698549 0.5
43 3 0.227892 0.119839 0.5
71 4 0.562275 0.157102 0.5
60 3 0.644349 0.127322 0.5
15 1 0.721349 0.144973 0.5
5 1 0.860856 0.147908 0.5
42 3 0.891268 0.121183 0.5
67 4 0.00619814 0.172058 0.5
28 2 0.14968 0.207874 0.5
29 2 0.102821 0.196892 0.5
16 1 0.217945 0.191893 0.5
56 3 0.838848 0.199662 0.5
35 2 0.471391 0.228308 0.5
32 2 0.28275 0.306181 0.5
14 1 0.461421 0.284284 0.5
72 4 0.420123 0.274821 0.5
33 2 0.718833 0.280095 0.5
48 3 0.68205 0.346165 0.5
59 3 0.722446 0.328019 0.5
2 1 0.901515 0.331798 0.5
12 1 0.982126 0.331165 0.5
62 4 0.000923845 0.397676 0.5
69 4 0.0375292 0.377896 0.5
31 2 0.0835891 0.369732 0.5
49 3 0.284075 0.376421 0.5
19 1 0.491285 0.403601 0.5
47 3 0.523808 0.378656 0.5
78 4 0.752159 0.378483 0.5
74 4 0.809507 0.389967 0.5
73 4 0.890543 0.379877 0.5
11 1 0.208295 0.423876 0.5
9 1 0.451571 0.46787 0.5
4 1 0.599629 0.452753 0.5
65 4 0.692832 0.433215 0.5
6 1 0.888475 0.428975 0.5
40 2 0.889277 0.461701 0.5
25 2 0.0308463 0.489417 0.5
27 2 0.00679399 0.526972 0.5
63 4 0.266623 0.477931 0.5
54 3 0.683793 0.502929 0.5
24 2 0.151399 0.566314 0.5
8 1 0.577919 0.530789 0.5
57 3 0.630869 0.560533 0.5
10 1 0.86575 0.549195 0.5
17 1 0.939008 0.529516 0.5
20 1 0.383373 0.58657 0.5
50 3 0.581162 0.600542 0.5
21 2 0.636422 0.593619 0.5
61 4 0.848805 0.614118 0.5
79 4 0.876527 0.600499 0.5
80 4 0.0701881 0.650794 0.5
34 2 0.455546 0.659397 0.5
64 4 0.58083 0.646469 0.5
38 2 0.654026 0.646373 0.5
52 3 0.720635 0.653757 0.5
75 4 0.336806 0.702424 0.5
30 2 0.507947 0.69275 0.5
51 3 0.574108 0.70155 0.5
18 1 0.6007 0.73616 0.5
70 4 0.804469 0.713973 0.5
22 2 0.269934 0.781155 0.5
3 1 0.463927 0.779247 0.5
23 2 0.0240092 0.790527 0.5
1 1 0.0857591 0.822451 0.5
66 4 0.431293 0.810065 0.5
55 3 0.978436 0.83487 0.5
58 3 0.503713 0.865943 0.5
77 4 0.0811519 0.920225 0.5
13 1 0.787558 0.911544 0.5
39 2 0.761038 0.950086 0.5
41 3 0.27284 0.959736 0.5
37 2 0.349328 0.962366 0.5
68 4 0.546913 0.964053 0.5
44 3 0.72015 0.952093 0.5
ITEM: TIMESTEP
70
ITEM: NUMBER OF ATOMS
80
ITEM: BOX BOUNDS pp pp pp
-6.4152598631751792e+00 6.4152598631751792e+00
-6.4152598631751792e+00 6.4152598631751792e+00
-1.0000000000000001e-01 1.0000000000000001e-01
ITEM: ATOMS id type xs ys zs
46 3 0.0608388 0.0363708 0.5
7 1 0.334968 0.0305602 0.5
53 3 0.449815 0.0488783 0.5
76 4 0.93015 0.0322689 0.5
36 2 0.0357356 0.089494 0.5
26 2 0.276979 0.101088 0.5
45 3 0.309662 0.0710001 0.5
43 3 0.226972 0.119614 0.5
71 4 0.562275 0.157102 0.5
60 3 0.643909 0.127221 0.5
15 1 0.721788 0.145074 0.5
5 1 0.859083 0.148671 0.5
42 3 0.893733 0.118923 0.5
67 4 0.00619814 0.172058 0.5
28 2 0.151053 0.208744 0.5
29 2 0.100159 0.196307 0.5
16 1 0.21912 0.192292 0.5
56 3 0.838156 0.20116 0.5
35 2 0.472248 0.225358 0.5
32 2 0.282743 0.305798 0.5
14 1 0.463227 0.287391 0.5
72 4 0.417459 0.27466 0.5
33 2 0.718908 0.27784 0.5
48 3 0.6806 0.347107 0.5
59 3 0.723791 0.329281 0.5
2 1 0.900507 0.329693 0.5
12 1 0.983329 0.330553 0.5
62 4 0.000844286 0.398184 0.5
69 4 0.0366251 0.378174 0.5
31 2 0.084896 0.369508 0.5
49 3 0.284187 0.376738 0.5
19 1 0.489514 0.404336 0.5
47 3 0.526411 0.376593 0.5
78 4 0.75219 0.378536 0.5
74 4 0.809505 0.389966 0.5
73 4 0.89012 0.380675 0.5
11 1 0.208116 0.423872 0.5
9 1 0.450721 0.469192 0.5
4 1 0.599956 0.451464 0.5
65 4 0.692832 0.433215 0.5
6 1 0.888185 0.425255 0.5
40 2 0.889191 0.466002 0.5
25 2 0.0327403 0.486797 0.5
27 2 0.00642317 0.529415 0.5
63 4 0.266698 0.478 0.5
54 3 0.683799 0.502932 0.5
24 2 0.151399 0.566314 0.5
8 1 0.575626 0.529529 0.5
57 3 0.632045 0.558047 0.5
10 1 0.863893 0.547758 0.5
17 1 0.939568 0.529698 0.5
20 1 0.38332 0.586517 0.5
50 3 0.579437 0.601601 0.5
21 2 0.638428 0.59567 0.5
61 4 0.847704 0.615238 0.5
79 4 0.877685 0.601587 0.5
80 4 0.0701881 0.650794 0.5
34 2 0.454248 0.658591 0.5
64 4 0.580798 0.646837 0.5
38 2 0.654134 0.647719 0.5
52 3 0.721119 0.653819 0.5
75 4 0.336806 0.702424 0.5
30 2 0.508925 0.693364 0.5
51 3 0.57245 0.69913 0.5
18 1 0.602761 0.738833 0.5
70 4 0.804469 0.713973 0.5
22 2 0.269934 0.781155 0.5
3 1 0.465536 0.777763 0.5
23 2 0.0229226 0.789273 0.5
1 1 0.0873381 0.823249 0.5
66 4 0.429599 0.811666 0.5
55 3 0.977943 0.835325 0.5
58 3 0.503726 0.86597 0.5
77 4 0.0811519 0.920225 0.5
13 1 0.790705 0.908052 0.5
39 2 0.761204 0.952715 0.5
41 3 0.272639 0.959701 0.5
37 2 0.349768 0.961321 0.5
68 4 0.546913 0.964053 0.5
44 3 0.716837 0.952956 0.5
ITEM: TIMESTEP
80
ITEM: NUMBER OF ATOMS
80
ITEM: BOX BOUNDS pp pp pp
-6.3203861905923455e+00 6.3203861905923455e+00
-6.3203861905923455e+00 6.3203861905923455e+00
-1.0000000000000001e-01 1.0000000000000001e-01
ITEM: ATOMS id type xs ys zs
46 3 0.0615266 0.0349151 0.5
7 1 0.337169 0.0283188 0.5
53 3 0.449815 0.0488783 0.5
76 4 0.93015 0.0322689 0.5
36 2 0.0350478 0.0909496 0.5
26 2 0.275962 0.102885 0.5
45 3 0.309533 0.072296 0.5
43 3 0.225797 0.119272 0.5
71 4 0.562275 0.157102 0.5
60 3 0.643306 0.127082 0.5
15 1 0.722392 0.145212 0.5
5 1 0.857057 0.149428 0.5
42 3 0.896594 0.116316 0.5
67 4 0.00619814 0.172058 0.5
28 2 0.152522 0.209802 0.5
29 2 0.0970554 0.195618 0.5
16 1 0.220596 0.192862 0.5
56 3 0.837321 0.203009 0.5
35 2 0.473212 0.221921 0.5
32 2 0.282733 0.30527 0.5
14 1 0.465333 0.291019 0.5
72 4 0.414381 0.274433 0.5
33 2 0.718995 0.275164 0.5
48 3 0.678854 0.348233 0.5
59 3 0.725384 0.330718 0.5
2 1 0.899244 0.327046 0.5
12 1 0.984717 0.329691 0.5
62 4 0.000713449 0.398892 0.5
69 4 0.035662 0.378537 0.5
31 2 0.0864817 0.36925 0.5
49 3 0.284376 0.377155 0.5
19 1 0.487516 0.405059 0.5
47 3 0.529429 0.374215 0.5
78 4 0.752255 0.378648 0.5
74 4 0.809481 0.389955 0.5
73 4 0.88964 0.381448 0.5
11 1 0.207809 0.423865 0.5
9 1 0.449661 0.470863 0.5
4 1 0.600398 0.449837 0.5
65 4 0.692832 0.433215 0.5
6 1 0.887828 0.421345 0.5
40 2 0.889034 0.470629 0.5
25 2 0.0349655 0.483736 0.5
27 2 0.00617126 0.532261 0.5
63 4 0.266826 0.478119 0.5
54 3 0.683833 0.502933 0.5
24 2 0.151399 0.566314 0.5
8 1 0.572797 0.528071 0.5
57 3 0.633487 0.555194 0.5
10 1 0.861559 0.546154 0.5
17 1 0.940245 0.530067 0.5
20 1 0.383207 0.586403 0.5
50 3 0.577376 0.602818 0.5
21 2 0.640801 0.597931 0.5
61 4 0.846388 0.616604 0.5
79 4 0.879086 0.602887 0.5
80 4 0.0701881 0.650794 0.5
34 2 0.45274 0.657675 0.5
64 4 0.580749 0.64728 0.5
38 2 0.654256 0.649375 0.5
52 3 0.721779 0.653897 0.5
75 4 0.336806 0.702424 0.5
30 2 0.509983 0.693987 0.5
51 3 0.570672 0.696434 0.5
18 1 0.60515 0.741977 0.5
70 4 0.804469 0.713973 0.5
22 2 0.269934 0.781155 0.5
3 1 0.467343 0.776104 0.5
23 2 0.0216665 0.787712 0.5
1 1 0.0892299 0.824211 0.5
66 4 0.427631 0.813526 0.5
55 3 0.977308 0.835925 0.5
58 3 0.503753 0.866031 0.5
77 4 0.0811519 0.920225 0.5
13 1 0.794298 0.904016 0.5
39 2 0.761465 0.955796 0.5
41 3 0.272312 0.959627 0.5
37 2 0.350373 0.959948 0.5
68 4 0.546913 0.964053 0.5
44 3 0.712983 0.953911 0.5
ITEM: TIMESTEP
90
ITEM: NUMBER OF ATOMS
80
ITEM: BOX BOUNDS pp pp pp
-6.2824755311987737e+00 6.2824755311987737e+00
-6.2824755311987737e+00 6.2824755311987737e+00
-1.0000000000000001e-01 1.0000000000000001e-01
ITEM: ATOMS id type xs ys zs
46 3 0.0623147 0.0332474 0.5
7 1 0.339665 0.025982 0.5
53 3 0.449815 0.0488783 0.5
76 4 0.93015 0.0322689 0.5
36 2 0.0342597 0.0926173 0.5
26 2 0.274894 0.104895 0.5
45 3 0.309447 0.0737052 0.5
43 3 0.224361 0.118804 0.5
71 4 0.562275 0.157102 0.5
60 3 0.642544 0.126908 0.5
15 1 0.723154 0.145387 0.5
5 1 0.854827 0.150133 0.5
42 3 0.899788 0.113426 0.5
67 4 0.00619814 0.172058 0.5
28 2 0.154029 0.211034 0.5
29 2 0.0935806 0.194836 0.5
16 1 0.222355 0.193622 0.5
56 3 0.836358 0.205194 0.5
35 2 0.474237 0.218096 0.5
32 2 0.282719 0.304599 0.5
14 1 0.467679 0.295042 0.5
72 4 0.410988 0.274126 0.5
33 2 0.719082 0.272146 0.5
48 3 0.676856 0.3495 0.5
59 3 0.727187 0.332281 0.5
2 1 0.897739 0.323875 0.5
12 1 0.986251 0.328574 0.5
62 4 0.000521713 0.399801 0.5
69 4 0.0346823 0.378988 0.5
31 2 0.0883229 0.368966 0.5
49 3 0.284649 0.377665 0.5
19 1 0.485349 0.405759 0.5
47 3 0.532795 0.371578 0.5
78 4 0.752363 0.378836 0.5
74 4 0.809414 0.389928 0.5
73 4 0.889124 0.382128 0.5
11 1 0.207363 0.423855 0.5
9 1 0.448403 0.472873 0.5
4 1 0.60096 0.447892 0.5
65 4 0.692832 0.433215 0.5
6 1 0.887435 0.417448 0.5
40 2 0.888802 0.475395 0.5
25 2 0.0374588 0.480306 0.5
27 2 0.006087 0.535455 0.5
63 4 0.267012 0.47829 0.5
54 3 0.683923 0.502917 0.5
24 2 0.151399 0.566314 0.5
8 1 0.569484 0.526486 0.5
57 3 0.63513 0.552067 0.5
10 1 0.858744 0.544467 0.5
17 1 0.941036 0.530623 0.5
20 1 0.38302 0.586212 0.5
50 3 0.575048 0.604133 0.5
21 2 0.643471 0.600296 0.5
61 4 0.84489 0.61818 0.5
79 4 0.880708 0.60437 0.5
80 4 0.0701881 0.650794 0.5
34 2 0.451068 0.656684 0.5
64 4 0.58069 0.647776 0.5
38 2 0.654382 0.651334 0.5
52 3 0.722613 0.653988 0.5
75 4 0.336806 0.702424 0.5
30 2 0.511081 0.694583 0.5
51 3 0.568849 0.693553 0.5
18 1 0.607799 0.745524 0.5
70 4 0.804469 0.713973 0.5
22 2 0.269934 0.781155 0.5
3 1 0.469287 0.774337 0.5
23 2 0.0202721 0.785864 0.5
1 1 0.0913922 0.825318 0.5
66 4 0.425438 0.815598 0.5
55 3 0.97654 0.836666 0.5
58 3 0.503795 0.86613 0.5
77 4 0.0811519 0.920225 0.5
13 1 0.798209 0.899556 0.5
39 2 0.761826 0.959266 0.5
41 3 0.271849 0.95951 0.5
37 2 0.35114 0.95824 0.5
68 4 0.546913 0.964053 0.5
44 3 0.708711 0.9549 0.5
ITEM: TIMESTEP
100
ITEM: NUMBER OF ATOMS
80
ITEM: BOX BOUNDS pp pp pp
-6.2881506760166488e+00 6.2881506760166488e+00
-6.2881506760166488e+00 6.2881506760166488e+00
-1.0000000000000001e-01 1.0000000000000001e-01
ITEM: ATOMS id type xs ys zs
46 3 0.0631824 0.0314111 0.5
7 1 0.342391 0.023647 0.5
53 3 0.449815 0.0488783 0.5
76 4 0.93015 0.0322689 0.5
36 2 0.033392 0.0944536 0.5
26 2 0.273835 0.107048 0.5
45 3 0.309417 0.075187 0.5
43 3 0.222664 0.11821 0.5
71 4 0.562275 0.157102 0.5
60 3 0.641639 0.126701 0.5
15 1 0.724058 0.145594 0.5
5 1 0.852442 0.150743 0.5
42 3 0.903239 0.110324 0.5
67 4 0.00619814 0.172058 0.5
28 2 0.155516 0.212422 0.5
29 2 0.0898172 0.193977 0.5
16 1 0.224373 0.194579 0.5
56 3 0.835291 0.207686 0.5
35 2 0.47529 0.213992 0.5
32 2 0.282703 0.303798 0.5
14 1 0.470185 0.299302 0.5
72 4 0.407377 0.273744 0.5
33 2 0.719153 0.268883 0.5
48 3 0.674666 0.350853 0.5
59 3 0.72915 0.333913 0.5
2 1 0.896019 0.320226 0.5
12 1 0.987894 0.327219 0.5
62 4 0.000262462 0.400897 0.5
69 4 0.0337236 0.379523 0.5
31 2 0.0903774 0.368663 0.5
49 3 0.285006 0.378257 0.5
19 1 0.483078 0.406432 0.5
47 3 0.536436 0.368757 0.5
78 4 0.75252 0.379113 0.5
74 4 0.809291 0.38988 0.5
73 4 0.88859 0.382649 0.5
11 1 0.206782 0.423842 0.5
9 1 0.446971 0.475199 0.5
4 1 0.601643 0.445665 0.5
65 4 0.692832 0.433215 0.5
6 1 0.887037 0.413756 0.5
40 2 0.888503 0.480132 0.5
25 2 0.0401404 0.476599 0.5
27 2 0.00620988 0.538928 0.5
63 4 0.267253 0.478512 0.5
54 3 0.684084 0.502864 0.5
24 2 0.151399 0.566314 0.5
8 1 0.56577 0.524855 0.5
57 3 0.636898 0.548764 0.5
10 1 0.855463 0.542782 0.5
17 1 0.941937 0.531335 0.5
20 1 0.382748 0.585934 0.5
50 3 0.572537 0.605481 0.5
21 2 0.646346 0.602658 0.5
61 4 0.843252 0.619918 0.5
79 4 0.882514 0.605996 0.5
80 4 0.0701881 0.650794 0.5
34 2 0.449282 0.655654 0.5
64 4 0.580643 0.648303 0.5
38 2 0.654495 0.653579 0.5
52 3 0.72361 0.654085 0.5
75 4 0.336806 0.702424 0.5
30 2 0.512185 0.695133 0.5
51 3 0.567056 0.690576 0.5
18 1 0.610625 0.749384 0.5
70 4 0.804469 0.713973 0.5
22 2 0.269934 0.781155 0.5
3 1 0.471303 0.772534 0.5
23 2 0.0187761 0.783766 0.5
1 1 0.0937697 0.826543 0.5
66 4 0.423077 0.817827 0.5
55 3 0.975658 0.837539 0.5
58 3 0.503851 0.866264 0.5
77 4 0.0811519 0.920225 0.5
13 1 0.802307 0.894805 0.5
39 2 0.762288 0.963041 0.5
41 3 0.27126 0.959353 0.5
37 2 0.352047 0.956206 0.5
68 4 0.546913 0.964053 0.5
44 3 0.704151 0.955877 0.5
ITEM: TIMESTEP
110
ITEM: NUMBER OF ATOMS
80
ITEM: BOX BOUNDS pp pp pp
-6.3208107129298385e+00 6.3208107129298385e+00
-6.3208107129298385e+00 6.3208107129298385e+00
-1.0000000000000001e-01 1.0000000000000001e-01
ITEM: ATOMS id type xs ys zs
46 3 0.0641079 0.0294527 0.5
7 1 0.345278 0.0213988 0.5
53 3 0.449815 0.0488783 0.5
76 4 0.93015 0.0322689 0.5
36 2 0.0324665 0.096412 0.5
26 2 0.272839 0.109281 0.5
45 3 0.309454 0.076703 0.5
43 3 0.220713 0.117491 0.5
71 4 0.562275 0.157102 0.5
60 3 0.640616 0.126466 0.5
15 1 0.725081 0.145829 0.5
5 1 0.849955 0.151225 0.5
42 3 0.906873 0.107079 0.5
67 4 0.00619814 0.172058 0.5
28 2 0.156932 0.21394 0.5
29 2 0.0858471 0.193059 0.5
16 1 0.226625 0.195726 0.5
56 3 0.834145 0.210449 0.5
35 2 0.476348 0.209711 0.5
32 2 0.282683 0.302887 0.5
14 1 0.472762 0.30363 0.5
72 4 0.40364 0.273304 0.5
33 2 0.719197 0.265466 0.5
48 3 0.672343 0.352244 0.5
59 3 0.731221 0.335562 0.5
2 1 0.894117 0.316163 0.5
12 1 0.989619 0.325653 0.5
62 4 -6.79668e-05 0.402157 0.5
69 4 0.0328148 0.380136 0.5
31 2 0.0925948 0.368346 0.5
49 3 0.285439 0.378916 0.5
19 1 0.480767 0.407076 0.5
47 3 0.54029 0.365827 0.5
78 4 0.752727 0.379491 0.5
74 4 0.809103 0.389813 0.5
73 4 0.888057 0.382947 0.5
11 1 0.206079 0.423827 0.5
9 1 0.445391 0.477808 0.5
4 1 0.602445 0.443209 0.5
65 4 0.692832 0.433215 0.5
6 1 0.886658 0.41041 0.5
40 2 0.888151 0.48471 0.5
25 2 0.0429277 0.472713 0.5
27 2 0.00656925 0.542615 0.5
63 4 0.267543 0.478778 0.5
54 3 0.684329 0.502759 0.5
24 2 0.151399 0.566314 0.5
8 1 0.561755 0.523253 0.5
57 3 0.638727 0.545362 0.5
10 1 0.851745 0.541181 0.5
17 1 0.942946 0.532171 0.5
20 1 0.382388 0.585565 0.5
50 3 0.569905 0.606818 0.5
21 2 0.649326 0.604914 0.5
61 4 0.841521 0.621766 0.5
79 4 0.884459 0.607722 0.5
80 4 0.0701881 0.650794 0.5
34 2 0.447428 0.65462 0.5
64 4 0.580637 0.648833 0.5
38 2 0.654576 0.656099 0.5
52 3 0.724754 0.654183 0.5
75 4 0.336806 0.702424 0.5
30 2 0.513274 0.695629 0.5
51 3 0.56535 0.687582 0.5
18 1 0.613544 0.753454 0.5
70 4 0.804469 0.713973 0.5
22 2 0.269934 0.781155 0.5
3 1 0.473334 0.770765 0.5
23 2 0.0172141 0.781464 0.5
1 1 0.0963035 0.827858 0.5
66 4 0.420606 0.820161 0.5
55 3 0.974687 0.838525 0.5
58 3 0.503915 0.866423 0.5
77 4 0.0811519 0.920225 0.5
13 1 0.806504 0.889871 0.5
39 2 0.762844 0.967032 0.5
41 3 0.270564 0.959165 0.5
37 2 0.353066 0.953864 0.5
68 4 0.546913 0.964053 0.5
44 3 0.699398 0.95682 0.5
ITEM: TIMESTEP
120
ITEM: NUMBER OF ATOMS
80
ITEM: BOX BOUNDS pp pp pp
-6.3615252034450656e+00 6.3615252034450656e+00
-6.3615252034450656e+00 6.3615252034450656e+00
-1.0000000000000001e-01 1.0000000000000001e-01
ITEM: ATOMS id type xs ys zs
46 3 0.0650714 0.0274137 0.5
7 1 0.348267 0.0192989 0.5
53 3 0.449815 0.0488783 0.5
76 4 0.93015 0.0322689 0.5
36 2 0.031503 0.0984509 0.5
26 2 0.271946 0.111545 0.5
45 3 0.309568 0.0782218 0.5
43 3 0.218515 0.116657 0.5
71 4 0.562275 0.157102 0.5
60 3 0.639497 0.126209 0.5
15 1 0.726188 0.146085 0.5
5 1 0.847416 0.151558 0.5
42 3 0.910629 0.103744 0.5
67 4 0.00619808 0.172059 0.5
28 2 0.158238 0.21557 0.5
29 2 0.0817368 0.192097 0.5
16 1 0.229091 0.197051 0.5
56 3 0.832939 0.213452 0.5
35 2 0.477399 0.20534 0.5
32 2 0.282659 0.301885 0.5
14 1 0.475331 0.307884 0.5
72 4 0.399852 0.272828 0.5
33 2 0.719218 0.261957 0.5
48 3 0.66993 0.353652 0.5
59 3 0.733353 0.337178 0.5
2 1 0.892062 0.311749 0.5
12 1 0.991406 0.323911 0.5
62 4 0.999529 0.403555 0.5
69 4 0.0319758 0.380821 0.5
31 2 0.0949273 0.368017 0.5
49 3 0.28594 0.37963 0.5
19 1 0.478469 0.407696 0.5
47 3 0.544307 0.362845 0.5
78 4 0.752987 0.379976 0.5
74 4 0.808847 0.389727 0.5
73 4 0.887538 0.382973 0.5