ITEM: TIMESTEP
250
ITEM: NUMBER OF ATOMS
24
ITEM: BOX BOUNDS pp pp pp
-4.8412149726993814e+00 4.8412149726993814e+00
-4.8398593051161436e+00 4.8398593051161436e+00
-1.0000000000000001e-01 1.0000000000000001e-01
ITEM: ATOMS id type xs ys zs
16 1 0.128584 0.0581872 0.498728
46 1 0.262074 0.0209308 0.498983
10 1 0.398654 0.0195976 0.499954
41 1 0.166268 0.176027 0.498914
21 1 0.25463 0.127454 0.50087
5 1 0.376053 0.176072 0.501373
74 1 0.322477 0.0660376 0.499898
28 1 0.244276 0.371727 0.498353
37 1 0.254986 0.245271 0.49833
3 1 0.147798 0.473506 0.499809
1 1 0.327909 0.479006 0.501375
23 1 0.45174 0.536336 0.502537
15 1 0.112627 0.604982 0.500891
51 1 0.23537 0.561197 0.498844
9 1 0.343997 0.636002 0.498866
27 1 0.478404 0.650546 0.500198
18 1 0.209305 0.706162 0.501591
30 1 0.330004 0.77608 0.499141
56 1 0.4229 0.735954 0.499978
40 1 0.142136 0.813141 0.500016
72 1 0.244189 0.81113 0.501852
20 1 0.293815 0.897614 0.502721
7 1 0.448268 0.855844 0.499832
35 1 0.171053 0.91806 0.499172
ITEM: TIMESTEP
500
ITEM: NUMBER OF ATOMS
24
ITEM: BOX BOUNDS pp pp pp
-4.8400044413763172e+00 4.8400044413763172e+00
-4.8406528281916890e+00 4.8406528281916890e+00
-1.0000000000000001e-01 1.0000000000000001e-01
ITEM: ATOMS id type xs ys zs
16 1 0.127791 0.0586797 0.497001
46 1 0.261353 0.0212808 0.498551
10 1 0.399167 0.0201578 0.500074
41 1 0.167476 0.176748 0.49875
21 1 0.254868 0.127965 0.502282
5 1 0.376011 0.176118 0.50288
74 1 0.321994 0.0660843 0.501782
28 1 0.244902 0.372582 0.497588
37 1 0.255048 0.24587 0.498688
3 1 0.148025 0.473819 0.499566
1 1 0.327972 0.478795 0.501461
23 1 0.452707 0.537538 0.502272
15 1 0.113351 0.604886 0.502078
51 1 0.236011 0.560963 0.499683
9 1 0.344317 0.636686 0.497552
27 1 0.479997 0.651681 0.500809
18 1 0.209476 0.706347 0.502731
30 1 0.329903 0.77588 0.498518
56 1 0.422711 0.735786 0.499784
40 1 0.142858 0.814022 0.500652
72 1 0.244214 0.811176 0.502795
20 1 0.293749 0.89782 0.503622
7 1 0.447911 0.855009 0.500392
35 1 0.171608 0.918994 0.499976
ITEM: TIMESTEP
750
ITEM: NUMBER OF ATOMS
24
ITEM: BOX BOUNDS pp pp pp
-4.8387939100532540e+00 4.8387939100532540e+00
-4.8451361634614321e+00 4.8451361634614321e+00
-1.0000000000000001e-01 1.0000000000000001e-01
ITEM: ATOMS id type xs ys zs
16 1 0.127458 0.0588213 0.497115
46 1 0.260792 0.0212128 0.49762
10 1 0.399415 0.0208336 0.500431
41 1 0.167273 0.17692 0.497548
21 1 0.254524 0.127812 0.50225
5 1 0.376063 0.175643 0.505647
74 1 0.321641 0.0660121 0.502458
28 1 0.245132 0.372314 0.499051
37 1 0.255385 0.246048 0.496951
3 1 0.148031 0.474337 0.501022
1 1 0.328132 0.478882 0.501972
23 1 0.452125 0.537708 0.503772
15 1 0.112562 0.605645 0.503466
51 1 0.23548 0.5613 0.500073
9 1 0.343659 0.63623 0.495829
27 1 0.479521 0.650927 0.499959
18 1 0.209315 0.706905 0.500596
30 1 0.330167 0.776126 0.498446
56 1 0.422675 0.734863 0.499539
40 1 0.142345 0.814777 0.498812
72 1 0.244483 0.811793 0.505245
20 1 0.294157 0.898469 0.502739
7 1 0.448902 0.854322 0.498569
35 1 0.171172 0.919491 0.498906
ITEM: TIMESTEP
1000
ITEM: NUMBER OF ATOMS
24
ITEM: BOX BOUNDS pp pp pp
-4.8375833787301907e+00 4.8375833787301907e+00
-4.8449916942124931e+00 4.8449916942124931e+00
-1.0000000000000001e-01 1.0000000000000001e-01
ITEM: ATOMS id type xs ys zs
16 1 0.128323 0.0589463 0.496294
46 1 0.261881 0.0214748 0.498613
10 1 0.399456 0.0206608 0.499148
41 1 0.167215 0.176453 0.500285
21 1 0.254993 0.127689 0.501425
5 1 0.376156 0.176871 0.505964
74 1 0.322443 0.0665939 0.501512
28 1 0.244827 0.372365 0.500168
37 1 0.255674 0.245977 0.495645
3 1 0.147751 0.475026 0.500126
1 1 0.327364 0.479814 0.502556
23 1 0.452232 0.536767 0.504255
15 1 0.112697 0.606432 0.503541
51 1 0.23496 0.561835 0.499543
9 1 0.344062 0.636494 0.496268
27 1 0.479155 0.651351 0.501239
18 1 0.209671 0.707427 0.498998
30 1 0.330637 0.776411 0.499848
56 1 0.422991 0.735733 0.499291
40 1 0.143056 0.815012 0.499248
72 1 0.245146 0.811829 0.506551
20 1 0.294843 0.898176 0.501487
7 1 0.449503 0.8546 0.499698
35 1 0.171851 0.919411 0.499519
ITEM: TIMESTEP
1250
ITEM: NUMBER OF ATOMS
24
ITEM: BOX BOUNDS pp pp pp
-4.8363728474071266e+00 4.8363728474071266e+00
-4.8426960141806479e+00 4.8426960141806479e+00
-1.0000000000000001e-01 1.0000000000000001e-01
ITEM: ATOMS id type xs ys zs
16 1 0.127523 0.0582855 0.496636
46 1 0.262083 0.0213101 0.498984
10 1 0.399953 0.0213644 0.498375
41 1 0.166919 0.176017 0.500522
21 1 0.254526 0.1274 0.501197
5 1 0.37516 0.17725 0.506908
74 1 0.322844 0.0666082 0.500614
28 1 0.24401 0.372757 0.501415
37 1 0.254566 0.246043 0.495747
3 1 0.148142 0.4751 0.501028
1 1 0.327734 0.479406 0.501972
23 1 0.453663 0.537375 0.504845
15 1 0.113582 0.606496 0.505014
51 1 0.236176 0.562487 0.499729
9 1 0.345433 0.636632 0.494269
27 1 0.480644 0.651563 0.498982
18 1 0.210273 0.706557 0.499253
30 1 0.331919 0.776359 0.498748
56 1 0.424052 0.73555 0.499337
40 1 0.144206 0.814171 0.500282
72 1 0.24651 0.811355 0.507143
20 1 0.295261 0.898301 0.500323
7 1 0.450163 0.854237 0.500858
35 1 0.172685 0.919176 0.499816
ITEM: TIMESTEP
1500
ITEM: NUMBER OF ATOMS
24
ITEM: BOX BOUNDS pp pp pp
-4.8351623160840633e+00 4.8351623160840633e+00
-4.8399997861269277e+00 4.8399997861269277e+00
-1.0000000000000001e-01 1.0000000000000001e-01
ITEM: ATOMS id type xs ys zs
16 1 0.127731 0.0579606 0.496872
46 1 0.263003 0.0213817 0.499595
10 1 0.400089 0.0216835 0.498835
41 1 0.166114 0.175543 0.501296
21 1 0.254384 0.1277 0.500551
5 1 0.375287 0.177872 0.506446
74 1 0.322654 0.0678119 0.499747
28 1 0.245524 0.373036 0.502098
37 1 0.253704 0.246093 0.496773
3 1 0.148747 0.475154 0.500857
1 1 0.327968 0.479967 0.503362
23 1 0.45343 0.536551 0.505636
15 1 0.114595 0.606297 0.504127
51 1 0.236971 0.562241 0.499841
9 1 0.346152 0.636923 0.493085
27 1 0.481052 0.651046 0.49929
18 1 0.21177 0.706765 0.499944
30 1 0.332631 0.776575 0.499747
56 1 0.425512 0.736169 0.499626
40 1 0.144484 0.81346 0.501879
72 1 0.246582 0.811817 0.508091
20 1 0.295805 0.898245 0.498351
7 1 0.450999 0.85619 0.500214
35 1 0.172746 0.918457 0.50082
ITEM: TIMESTEP
1750
ITEM: NUMBER OF ATOMS
24
ITEM: BOX BOUNDS pp pp pp
-4.8339517847610001e+00 4.8339517847610001e+00
-4.8436134597947227e+00 4.8436134597947227e+00
-1.0000000000000001e-01 1.0000000000000001e-01
ITEM: ATOMS id type xs ys zs
16 1 0.127105 0.0578883 0.497162
46 1 0.262295 0.0214387 0.500164
10 1 0.399822 0.0214564 0.499208
41 1 0.166407 0.175394 0.500202
21 1 0.254242 0.127476 0.499555
5 1 0.375298 0.177024 0.505278
74 1 0.322326 0.0668835 0.496838
28 1 0.245532 0.372696 0.501975
37 1 0.253693 0.245712 0.496631
3 1 0.149644 0.475139 0.501404
1 1 0.329214 0.478553 0.502199
23 1 0.45359 0.537161 0.503441
15 1 0.114813 0.606652 0.502619
51 1 0.237389 0.562049 0.498045
9 1 0.345691 0.636271 0.492667
27 1 0.481051 0.651263 0.498762
18 1 0.211978 0.706545 0.499706
30 1 0.332253 0.776845 0.500133
56 1 0.425018 0.735885 0.499555
40 1 0.144628 0.814205 0.503411
72 1 0.24647 0.811915 0.508358
20 1 0.295548 0.898475 0.500901
7 1 0.449579 0.855396 0.500841
35 1 0.172361 0.919065 0.500543
ITEM: TIMESTEP
2000
ITEM: NUMBER OF ATOMS
24
ITEM: BOX BOUNDS pp pp pp
-4.8327412534379359e+00 4.8327412534379359e+00
-4.8379551129079683e+00 4.8379551129079683e+00
-1.0000000000000001e-01 1.0000000000000001e-01
ITEM: ATOMS id type xs ys zs
16 1 0.127362 0.0580499 0.498962
46 1 0.261082 0.0211995 0.499529
10 1 0.400059 0.0218124 0.497383
41 1 0.167499 0.176095 0.500978
21 1 0.255343 0.127483 0.499935
5 1 0.375869 0.177939 0.505234
74 1 0.321741 0.0657229 0.496247
28 1 0.245164 0.372708 0.502742
37 1 0.254795 0.246301 0.496116
3 1 0.148068 0.474407 0.500395
1 1 0.328886 0.478723 0.504048
23 1 0.454215 0.536893 0.50334
15 1 0.114272 0.606884 0.502696
51 1 0.236457 0.561426 0.499007
9 1 0.345998 0.635733 0.491768
27 1 0.482199 0.650806 0.49983
18 1 0.211815 0.70653 0.500961
30 1 0.332972 0.776304 0.500767
56 1 0.425452 0.735299 0.501281
40 1 0.145788 0.814208 0.50273
72 1 0.247448 0.811414 0.508076
20 1 0.296385 0.89836 0.50073
7 1 0.451278 0.85518 0.501282
35 1 0.173665 0.919578 0.501476
ITEM: TIMESTEP
2250
ITEM: NUMBER OF ATOMS
24
ITEM: BOX BOUNDS pp pp pp
-4.8315307221148727e+00 4.8315307221148727e+00
-4.8313155866638366e+00 4.8313155866638366e+00
-1.0000000000000001e-01 1.0000000000000001e-01
ITEM: ATOMS id type xs ys zs
16 1 0.128528 0.0583251 0.498091
46 1 0.261813 0.0215017 0.498009
10 1 0.400621 0.0209144 0.497827
41 1 0.168069 0.17592 0.501722
21 1 0.255722 0.128511 0.50074
5 1 0.37724 0.176785 0.506986
74 1 0.322807 0.0665398 0.496386
28 1 0.243904 0.372765 0.502235
37 1 0.255745 0.246597 0.495472
3 1 0.14811 0.474986 0.500468
1 1 0.329364 0.477896 0.503558
23 1 0.454259 0.535364 0.503892
15 1 0.114645 0.606786 0.503979
51 1 0.236806 0.560745 0.498451
9 1 0.345861 0.635709 0.491526
27 1 0.480825 0.650371 0.501155
18 1 0.211564 0.706757 0.500904
30 1 0.332094 0.776103 0.501668
56 1 0.424791 0.735377 0.499596
40 1 0.143918 0.813998 0.501061
72 1 0.246363 0.811594 0.50805
20 1 0.296214 0.89864 0.499918
7 1 0.450711 0.854802 0.499677
35 1 0.173359 0.918885 0.50013
ITEM: TIMESTEP
2500
ITEM: NUMBER OF ATOMS
24
ITEM: BOX BOUNDS pp pp pp
-4.8303201907918085e+00 4.8303201907918085e+00
-4.8462057088360817e+00 4.8462057088360817e+00
-1.0000000000000001e-01 1.0000000000000001e-01
ITEM: ATOMS id type xs ys zs
16 1 0.127336 0.0580944 0.498103
46 1 0.261761 0.0213274 0.498164
10 1 0.400011 0.0214997 0.496697
41 1 0.166658 0.175848 0.500808
21 1 0.254557 0.127897 0.501929
5 1 0.375648 0.177486 0.507982
74 1 0.321986 0.066625 0.496669
28 1 0.246851 0.37296 0.503996
37 1 0.254369 0.246432 0.497023
3 1 0.148896 0.475191 0.499363
1 1 0.328971 0.479303 0.50464
23 1 0.454339 0.536811 0.502472
15 1 0.114765 0.606017 0.502054
51 1 0.237514 0.562294 0.496586
9 1 0.346035 0.636416 0.491639
27 1 0.481286 0.651036 0.502418
18 1 0.211356 0.706537 0.50184
30 1 0.332033 0.776587 0.501831
56 1 0.424772 0.735479 0.500585
40 1 0.144292 0.814219 0.501986
72 1 0.246603 0.811887 0.506613
20 1 0.295306 0.898566 0.500303
7 1 0.450813 0.854891 0.498606
35 1 0.172608 0.919324 0.500024
ITEM: TIMESTEP
2750
ITEM: NUMBER OF ATOMS
24
ITEM: BOX BOUNDS pp pp pp
-4.8291096594687453e+00 4.8291096594687453e+00
-4.8353712196458787e+00 4.8353712196458787e+00
-1.0000000000000001e-01 1.0000000000000001e-01
ITEM: ATOMS id type xs ys zs
16 1 0.126081 0.0573836 0.498948
46 1 0.26112 0.0204354 0.498742
10 1 0.399888 0.0219395 0.495374
41 1 0.165774 0.175496 0.50086
21 1 0.253813 0.127202 0.501554
5 1 0.374893 0.177758 0.506897
74 1 0.321567 0.0661659 0.495962
28 1 0.246353 0.372523 0.503653
37 1 0.253952 0.245463 0.498493
3 1 0.148551 0.473805 0.500992
1 1 0.329643 0.478565 0.50534
23 1 0.453846 0.537118 0.501862
15 1 0.114489 0.60564 0.50242
51 1 0.236722 0.560219 0.49597
9 1 0.34554 0.636209 0.490562
27 1 0.48128 0.651451 0.502182
18 1 0.210875 0.706574 0.503234
30 1 0.331707 0.776385 0.501343
56 1 0.42407 0.73567 0.500218
40 1 0.144588 0.814305 0.501999
72 1 0.24664 0.81162 0.507976
20 1 0.29642 0.898173 0.502725
7 1 0.450982 0.855192 0.500154
35 1 0.173531 0.919072 0.501136
ITEM: TIMESTEP
3000
ITEM: NUMBER OF ATOMS
24
ITEM: BOX BOUNDS pp pp pp
-4.8278991281456820e+00 4.8278991281456820e+00
-4.8453337712337108e+00 4.8453337712337108e+00
-1.0000000000000001e-01 1.0000000000000001e-01
ITEM: ATOMS id type xs ys zs
16 1 0.126525 0.0571813 0.499975
46 1 0.260221 0.0205304 0.499078
10 1 0.399848 0.022634 0.49723
41 1 0.165811 0.174948 0.501611
21 1 0.25348 0.126786 0.500922
5 1 0.374254 0.177809 0.507515
74 1 0.320802 0.0653757 0.497089
28 1 0.245135 0.371697 0.502692
37 1 0.253001 0.2453 0.497858
3 1 0.148525 0.473794 0.499399
1 1 0.329063 0.477838 0.504446
23 1 0.453613 0.536009 0.501652
15 1 0.11536 0.605814 0.502069
51 1 0.237541 0.56032 0.495006
9 1 0.345545 0.636474 0.492018
27 1 0.480196 0.650387 0.501885
18 1 0.211144 0.706932 0.502267
30 1 0.332468 0.776699 0.503058
56 1 0.425467 0.735609 0.50214
40 1 0.143897 0.813813 0.501613
72 1 0.246696 0.811603 0.506906
20 1 0.296345 0.898447 0.503963
7 1 0.45162 0.854536 0.499983
35 1 0.173272 0.918656 0.501463
ITEM: TIMESTEP
3250
ITEM: NUMBER OF ATOMS
24
ITEM: BOX BOUNDS pp pp pp
-4.8266885968226179e+00 4.8266885968226179e+00
-4.8389677688136832e+00 4.8389677688136832e+00
-1.0000000000000001e-01 1.0000000000000001e-01
ITEM: ATOMS id type xs ys zs
16 1 0.127082 0.0570544 0.498835
46 1 0.258902 0.0204934 0.499133
10 1 0.399446 0.0220958 0.496235
41 1 0.165474 0.174689 0.499915
21 1 0.254078 0.12711 0.501642
5 1 0.374531 0.177671 0.507288
74 1 0.319789 0.0648347 0.496937
28 1 0.246183 0.372316 0.504128
37 1 0.252064 0.24549 0.499251
3 1 0.148475 0.473616 0.500092
1 1 0.330004 0.478529 0.504977
23 1 0.454219 0.536119 0.504154
15 1 0.114838 0.605253 0.502572
51 1 0.23703 0.560403 0.496397
9 1 0.345579 0.636137 0.489848
27 1 0.480582 0.650604 0.50067
18 1 0.210494 0.706284 0.503612
30 1 0.331805 0.776434 0.503932
56 1 0.424899 0.735722 0.501868
40 1 0.143217 0.813833 0.502925
72 1 0.245889 0.811232 0.507247
20 1 0.295682 0.898003 0.505111
7 1 0.449849 0.855113 0.503448
35 1 0.172707 0.91812 0.501828
ITEM: TIMESTEP
3500
ITEM: NUMBER OF ATOMS
24
ITEM: BOX BOUNDS pp pp pp
-4.8254780654995546e+00 4.8254780654995546e+00
-4.8434135355865049e+00 4.8434135355865049e+00
-1.0000000000000001e-01 1.0000000000000001e-01
ITEM: ATOMS id type xs ys zs
16 1 0.126023 0.0570974 0.500336
46 1 0.260107 0.020879 0.500472
10 1 0.398796 0.0216301 0.496719
41 1 0.164584 0.175027 0.499498
21 1 0.253017 0.127255 0.501049
5 1 0.373943 0.176844 0.50753
74 1 0.320791 0.066112 0.496637
28 1 0.246705 0.372733 0.503452
37 1 0.252739 0.245484 0.499108
3 1 0.14881 0.47407 0.498392
1 1 0.329435 0.479607 0.504894
23 1 0.454396 0.53677 0.504167
15 1 0.114606 0.605936 0.501165
51 1 0.237023 0.561012 0.496878
9 1 0.345478 0.63624 0.490366
27 1 0.481221 0.65073 0.501993
18 1 0.210488 0.706447 0.502335
30 1 0.331386 0.776369 0.505092
56 1 0.424677 0.735296 0.501887
40 1 0.142536 0.813405 0.502475
72 1 0.245427 0.81117 0.507477
20 1 0.294571 0.89832 0.504822
7 1 0.449544 0.855029 0.505711
35 1 0.171688 0.91816 0.501275
ITEM: TIMESTEP
3750
ITEM: NUMBER OF ATOMS
24
ITEM: BOX BOUNDS pp pp pp
-4.8242675341764913e+00 4.8242675341764913e+00
-4.8454041793576703e+00 4.8454041793576703e+00
-1.0000000000000001e-01 1.0000000000000001e-01
ITEM: ATOMS id type xs ys zs
16 1 0.126354 0.0568873 0.499064
46 1 0.260273 0.0208076 0.50139
10 1 0.398471 0.0219684 0.497054
41 1 0.165238 0.175619 0.499879
21 1 0.25309 0.127657 0.5006
5 1 0.374473 0.17737 0.506453
74 1 0.32027 0.0663761 0.495859
28 1 0.245944 0.372454 0.503935
37 1 0.252843 0.24585 0.49975
3 1 0.149623 0.475207 0.497931
1 1 0.329503 0.479221 0.505477
23 1 0.454444 0.537621 0.505297
15 1 0.11409 0.60589 0.500075
51 1 0.23728 0.561923 0.496709
9 1 0.345899 0.636858 0.491519
27 1 0.481501 0.651921 0.502122
18 1 0.210772 0.706757 0.499199
30 1 0.33185 0.776765 0.505755
56 1 0.424566 0.736273 0.502536
40 1 0.142853 0.813347 0.500053
72 1 0.245324 0.81148 0.509383
20 1 0.295528 0.898127 0.505022
7 1 0.450215 0.856055 0.506323
35 1 0.172079 0.918264 0.503425
ITEM: TIMESTEP
4000
ITEM: NUMBER OF ATOMS
24
ITEM: BOX BOUNDS pp pp pp
-4.8230570028534272e+00 4.8230570028534272e+00
-4.8379260236245347e+00 4.8379260236245347e+00
-1.0000000000000001e-01 1.0000000000000001e-01
ITEM: ATOMS id type xs ys zs
16 1 0.127297 0.0566269 0.497671
46 1 0.261281 0.021616 0.500777
10 1 0.399763 0.0224205 0.496711
41 1 0.165085 0.174915 0.502485
21 1 0.253739 0.127761 0.500757
5 1 0.374946 0.177933 0.505944
74 1 0.321443 0.066771 0.496048
28 1 0.245887 0.37243 0.502729
37 1 0.253016 0.246009 0.501173
3 1 0.1492 0.4745 0.499067
1 1 0.329967 0.478599 0.504706
23 1 0.454531 0.537675 0.505437
15 1 0.11371 0.605661 0.499873
51 1 0.236856 0.561135 0.496806
9 1 0.3458 0.636371 0.490096
27 1 0.48117 0.652087 0.502012
18 1 0.211237 0.7062 0.499604
30 1 0.331151 0.776606 0.50253
56 1 0.424161 0.736094 0.500824
40 1 0.142991 0.812643 0.501429
72 1 0.245678 0.811849 0.508494
20 1 0.295898 0.898768 0.506563
7 1 0.450611 0.855236 0.506062
35 1 0.171535 0.917192 0.503916
ITEM: TIMESTEP
4250
ITEM: NUMBER OF ATOMS
24
ITEM: BOX BOUNDS pp pp pp
-4.8218464715303639e+00 4.8218464715303639e+00
-4.8520628508459360e+00 4.8520628508459360e+00
-1.0000000000000001e-01 1.0000000000000001e-01
ITEM: ATOMS id type xs ys zs
16 1 0.128855 0.0561013 0.498735
46 1 0.263144 0.0213912 0.502093
10 1 0.399946 0.021885 0.497312
41 1 0.165498 0.174935 0.502595
21 1 0.254083 0.127773 0.501423
5 1 0.375125 0.177506 0.50589
74 1 0.322652 0.0675933 0.496829
28 1 0.247201 0.372448 0.501087
37 1 0.252648 0.245881 0.500618
3 1 0.148985 0.473951 0.49812
1 1 0.329256 0.479595 0.503021
23 1 0.454021 0.538125 0.505184
15 1 0.113994 0.605229 0.498659
51 1 0.236455 0.561047 0.496668
9 1 0.345458 0.637136 0.491065
27 1 0.480937 0.652418 0.498314
18 1 0.210892 0.706371 0.500369
30 1 0.331419 0.776495 0.503728
56 1 0.424704 0.736737 0.500899
40 1 0.142877 0.812692 0.499717
72 1 0.245573 0.811104 0.507899
20 1 0.294926 0.898208 0.504715
7 1 0.449689 0.856288 0.508331
35 1 0.171789 0.916772 0.502143
ITEM: TIMESTEP
4500
ITEM: NUMBER OF ATOMS
24
ITEM: BOX BOUNDS pp pp pp
-4.8206359402073007e+00 4.8206359402073007e+00
-4.8451323195013991e+00 4.8451323195013991e+00
-1.0000000000000001e-01 1.0000000000000001e-01
ITEM: ATOMS id type xs ys zs
16 1 0.126749 0.0570177 0.497955
46 1 0.262683 0.0221826 0.499883
10 1 0.399259 0.0209101 0.495846
41 1 0.165014 0.175381 0.501605
21 1 0.253408 0.127591 0.501374
5 1 0.374817 0.176329 0.506568
74 1 0.322647 0.0678719 0.498851
28 1 0.246879 0.372161 0.502062
37 1 0.253184 0.245599 0.50171
3 1 0.148956 0.474062 0.49697
1 1 0.330321 0.478591 0.500436
23 1 0.45469 0.53823 0.505405
15 1 0.114212 0.604986 0.497277
51 1 0.237242 0.560329 0.497396
9 1 0.344934 0.637115 0.491838
27 1 0.48101 0.652636 0.501044
18 1 0.209467 0.707203 0.498724
30 1 0.330547 0.777057 0.503121
56 1 0.423997 0.736701 0.499616
40 1 0.141489 0.813097 0.50025
72 1 0.244397 0.81207 0.509357
20 1 0.294092 0.898679 0.504026
7 1 0.448947 0.855794 0.509188
35 1 0.171016 0.917944 0.502882
ITEM: TIMESTEP
4750
ITEM: NUMBER OF ATOMS
24
ITEM: BOX BOUNDS pp pp pp
-4.8194254088842365e+00 4.8194254088842365e+00
-4.8393494530086851e+00 4.8393494530086851e+00
-1.0000000000000001e-01 1.0000000000000001e-01
ITEM: ATOMS id type xs ys zs
16 1 0.126083 0.0575036 0.498998
46 1 0.262836 0.0220795 0.499187
10 1 0.399147 0.0221342 0.495979
41 1 0.164752 0.1757 0.500648
21 1 0.253126 0.12831 0.501691
5 1 0.374258 0.178068 0.50704
74 1 0.322129 0.0688894 0.497784
28 1 0.246072 0.372523 0.502428
37 1 0.252452 0.246211 0.503101
3 1 0.147605 0.472815 0.495552
1 1 0.329757 0.478796 0.499534
23 1 0.454957 0.537145 0.504236
15 1 0.11395 0.605153 0.496944
51 1 0.236376 0.560327 0.496288
9 1 0.345305 0.636462 0.492984
27 1 0.480657 0.652231 0.501084
18 1 0.209806 0.707244 0.497895
30 1 0.330833 0.776573 0.504417
56 1 0.423945 0.736441 0.499024
40 1 0.142281 0.81381 0.501354
72 1 0.245111 0.811782 0.508281
20 1 0.294997 0.89857 0.503106
7 1 0.448823 0.8561 0.507634
35 1 0.17152 0.9182 0.500889
ITEM: TIMESTEP
5000
ITEM: NUMBER OF ATOMS
24
ITEM: BOX BOUNDS pp pp pp
-4.8182148775611733e+00 4.8182148775611733e+00
-4.8423277529156490e+00 4.8423277529156490e+00
-1.0000000000000001e-01 1.0000000000000001e-01
ITEM: ATOMS id type xs ys zs
16 1 0.126251 0.0573643 0.499559
46 1 0.264068 0.0223228 0.500463
10 1 0.398869 0.0220965 0.496228
41 1 0.164397 0.176476 0.502815
21 1 0.253415 0.128371 0.502904
5 1 0.37417 0.178766 0.508359
74 1 0.323139 0.0695972 0.495209
28 1 0.246816 0.372916 0.503367
37 1 0.252241 0.246609 0.504619
3 1 0.148241 0.474306 0.496302
1 1 0.329354 0.47914 0.496933
23 1 0.454004 0.53747 0.504136
15 1 0.113487 0.605613 0.497227
51 1 0.236521 0.561279 0.495812
9 1 0.345228 0.636722 0.493106
27 1 0.480721 0.651439 0.502135
18 1 0.210151 0.706438 0.497621
30 1 0.331464 0.776787 0.50558
56 1 0.424508 0.736415 0.500371
40 1 0.141861 0.813341 0.501253
72 1 0.24508 0.811291 0.506501
20 1 0.294204 0.898467 0.504727
7 1 0.450044 0.855433 0.507179
35 1 0.170606 0.918206 0.49911
ITEM: TIMESTEP
5250
ITEM: NUMBER OF ATOMS
24
ITEM: BOX BOUNDS pp pp pp
-4.8170043462381091e+00 4.8170043462381091e+00
-4.8372053781209567e+00 4.8372053781209567e+00
-1.0000000000000001e-01 1.0000000000000001e-01
ITEM: ATOMS id type xs ys zs
16 1 0.125777 0.0559595 0.499585
46 1 0.264202 0.0215868 0.501651
10 1 0.40005 0.0212299 0.493544
41 1 0.16405 0.174522 0.503311
21 1 0.252706 0.127215 0.50114
5 1 0.374505 0.176884 0.508591
74 1 0.323201 0.0691745 0.494613
28 1 0.244814 0.371794 0.50459
37 1 0.251761 0.245234 0.504269
3 1 0.147687 0.473297 0.495895
1 1 0.32851 0.478329 0.496145
23 1 0.453032 0.536698 0.50308
15 1 0.11288 0.605382 0.494868
51 1 0.235844 0.561285 0.495879
9 1 0.34494 0.636155 0.490167
27 1 0.480298 0.650946 0.501932
18 1 0.209579 0.706343 0.49755
30 1 0.330657 0.776305 0.50598
56 1 0.423989 0.735341 0.500189
40 1 0.141853 0.81215 0.500906
72 1 0.244631 0.811859 0.505855
20 1 0.295669 0.898235 0.504021
7 1 0.450484 0.854605 0.50873
35 1 0.172303 0.917517 0.499549
ITEM: TIMESTEP
5500
ITEM: NUMBER OF ATOMS
24
ITEM: BOX BOUNDS pp pp pp
-4.8157938149150459e+00 4.8157938149150459e+00
-4.8396404600597229e+00 4.8396404600597229e+00
-1.0000000000000001e-01 1.0000000000000001e-01
ITEM: ATOMS id type xs ys zs
16 1 0.125977 0.0562521 0.501247
46 1 0.263976 0.021463 0.501196
10 1 0.400617 0.0209826 0.493992
41 1 0.164952 0.174389 0.504442
21 1 0.253365 0.127098 0.500593
5 1 0.374397 0.176784 0.508415
74 1 0.323613 0.0680194 0.493984
28 1 0.243797 0.371937 0.504253
37 1 0.252404 0.245117 0.504811
3 1 0.147125 0.47416 0.495929
1 1 0.328315 0.477794 0.498558
23 1 0.45369 0.53514 0.503626
15 1 0.112311 0.606113 0.496472
51 1 0.235362 0.560496 0.493707
9 1 0.345027 0.635261 0.489915
27 1 0.480244 0.64955 0.502107
18 1 0.210418 0.706083 0.49761
30 1 0.331431 0.775903 0.505989
56 1 0.424328 0.734542 0.499795
40 1 0.141836 0.812501 0.502567
72 1 0.244944 0.811105 0.505173
20 1 0.295082 0.898205 0.506077
7 1 0.450267 0.853973 0.509069
35 1 0.17192 0.917126 0.498767
ITEM: TIMESTEP
5750
ITEM: NUMBER OF ATOMS
24
ITEM: BOX BOUNDS pp pp pp
-4.8145832835919826e+00 4.8145832835919826e+00
-4.8402343890673629e+00 4.8402343890673629e+00
-1.0000000000000001e-01 1.0000000000000001e-01
ITEM: ATOMS id type xs ys zs
16 1 0.125494 0.0564464 0.50208
46 1 0.263575 0.0215027 0.503405
10 1 0.399061 0.0208392 0.495013
41 1 0.164109 0.174386 0.502142
21 1 0.25279 0.127405 0.500767
5 1 0.373783 0.176594 0.507469
74 1 0.322759 0.068251 0.493936
28 1 0.243454 0.372107 0.50452
37 1 0.251373 0.24583 0.504511
3 1 0.146973 0.474022 0.494555
1 1 0.327266 0.478243 0.498263
23 1 0.45276 0.534944 0.504205
15 1 0.112551 0.605064 0.498578
51 1 0.235035 0.561077 0.49281
9 1 0.344887 0.635727 0.49016
27 1 0.480507 0.649646 0.502415
18 1 0.210262 0.706095 0.498317
30 1 0.331042 0.775631 0.505064
56 1 0.424351 0.734992 0.498877
40 1 0.142441 0.813327 0.50199
72 1 0.244977 0.811008 0.505458
20 1 0.295005 0.897498 0.505459
7 1 0.450588 0.854356 0.510045
35 1 0.171276 0.917669 0.499835
ITEM: TIMESTEP
6000
ITEM: NUMBER OF ATOMS
24
ITEM: BOX BOUNDS pp pp pp
-4.8133727522689185e+00 4.8133727522689185e+00
-4.8410889408794953e+00 4.8410889408794953e+00
-1.0000000000000001e-01 1.0000000000000001e-01
ITEM: ATOMS id type xs ys zs
16 1 0.126322 0.056455 0.502709
46 1 0.264833 0.0211128 0.504177
10 1 0.399953 0.0216821 0.49595
41 1 0.163682 0.175125 0.504406
21 1 0.25308 0.127572 0.501086
5 1 0.373731 0.17729 0.507898
74 1 0.323503 0.0691321 0.494035
28 1 0.241923 0.372356 0.506334
37 1 0.251701 0.245668 0.503713
3 1 0.144679 0.474457 0.49661
1 1 0.327523 0.477133 0.49793
23 1 0.452288 0.535467 0.504281
15 1 0.111806 0.605614 0.49848
51 1 0.235011 0.559362 0.489575
9 1 0.344123 0.635399 0.48974
27 1 0.480287 0.649142 0.502049
18 1 0.209139 0.706374 0.496771
30 1 0.330473 0.775644 0.503716
56 1 0.423765 0.734159 0.499056
40 1 0.141675 0.813135 0.500827
72 1 0.244697 0.811723 0.506692
20 1 0.295621 0.89789 0.504576
7 1 0.451049 0.852918 0.510176
35 1 0.171741 0.917708 0.500883
ITEM: TIMESTEP
6250
ITEM: NUMBER OF ATOMS
24
ITEM: BOX BOUNDS pp pp pp
-4.8121622209458552e+00 4.8121622209458552e+00
-4.8411843895647220e+00 4.8411843895647220e+00
-1.0000000000000001e-01 1.0000000000000001e-01
ITEM: ATOMS id type xs ys zs
16 1 0.124906 0.0569111 0.499141
46 1 0.265003 0.021193 0.504225
10 1 0.399284 0.0212855 0.495562
41 1 0.163429 0.17468 0.502377
21 1 0.251975 0.126958 0.500343
5 1 0.373179 0.176731 0.507955
74 1 0.323008 0.0696561 0.492809
28 1 0.241124 0.371627 0.507298
37 1 0.251618 0.245246 0.502829
3 1 0.144484 0.473312 0.496949
1 1 0.326896 0.477003 0.497322
23 1 0.452211 0.534271 0.503837
15 1 0.111932 0.605608 0.497964
51 1 0.233891 0.560049 0.488812
9 1 0.343794 0.634592 0.488096
27 1 0.479771 0.648334 0.50255
18 1 0.209159 0.705957 0.498247
30 1 0.330242 0.774603 0.502412
56 1 0.423478 0.733219 0.498916
40 1 0.142426 0.813803 0.499134
72 1 0.245 0.81084 0.506544
20 1 0.294438 0.897396 0.506131
7 1 0.449362 0.852947 0.509992
35 1 0.171096 0.918422 0.501678
ITEM: TIMESTEP
6500
ITEM: NUMBER OF ATOMS
24
ITEM: BOX BOUNDS pp pp pp
-4.8109516896227920e+00 4.8109516896227920e+00
-4.8408929466043045e+00 4.8408929466043045e+00
-1.0000000000000001e-01 1.0000000000000001e-01
ITEM: ATOMS id type xs ys zs
16 1 0.125216 0.0571921 0.499899
46 1 0.263879 0.0208901 0.504761
10 1 0.398708 0.0205245 0.495458
41 1 0.163957 0.175665 0.502474
21 1 0.252233 0.127098 0.502239
5 1 0.373886 0.175948 0.504917
74 1 0.321968 0.0686099 0.492419
28 1 0.241269 0.371796 0.508569
37 1 0.252283 0.24583 0.503339
3 1 0.143622 0.474319 0.497626
1 1 0.326304 0.477519 0.497272
23 1 0.451963 0.533907 0.504559
15 1 0.110554 0.606613 0.498157
51 1 0.233673 0.559889 0.487428
9 1 0.343141 0.634507 0.489468
27 1 0.478485 0.648008 0.501908
18 1 0.208373 0.705733 0.497801
30 1 0.330293 0.774529 0.503237
56 1 0.423192 0.733362 0.498492
40 1 0.142418 0.813784 0.498409
72 1 0.245047 0.810273 0.5057
20 1 0.294222 0.89711 0.505891
7 1 0.449828 0.85231 0.509633
35 1 0.170904 0.918309 0.50201
ITEM: TIMESTEP
6750
ITEM: NUMBER OF ATOMS
24
ITEM: BOX BOUNDS pp pp pp
-4.8097411582997278e+00 4.8097411582997278e+00
-4.8414854454635847e+00 4.8414854454635847e+00
-1.0000000000000001e-01 1.0000000000000001e-01
ITEM: ATOMS id type xs ys zs
16 1 0.124504 0.0574775 0.502006
46 1 0.264022 0.0211389 0.504022
10 1 0.398705 0.0207686 0.495488
41 1 0.164061 0.175837 0.503402
21 1 0.252395 0.12739 0.500749
5 1 0.373735 0.176754 0.503764
74 1 0.322626 0.0688685 0.489816
28 1 0.240892 0.37139 0.510378
37 1 0.252767 0.245858 0.504253
3 1 0.144106 0.473587 0.495475
1 1 0.325663 0.477009 0.497399
23 1 0.451267 0.534007 0.505621
15 1 0.110534 0.605205 0.498057
51 1 0.233116 0.559649 0.485452
9 1 0.342784 0.634415 0.490014
27 1 0.478452 0.648517 0.501958
18 1 0.208407 0.705895 0.497996
30 1 0.329855 0.774564 0.505826
56 1 0.422583 0.733211 0.497381
40 1 0.140849 0.814123 0.497886
72 1 0.244028 0.810437 0.505388
20 1 0.294225 0.897306 0.506153
7 1 0.449018 0.85213 0.508762
35 1 0.170688 0.919006 0.501833
ITEM: TIMESTEP
7000
ITEM: NUMBER OF ATOMS
24
ITEM: BOX BOUNDS pp pp pp
-4.8085306269766646e+00 4.8085306269766646e+00
-4.8368686980171329e+00 4.8368686980171329e+00
-1.0000000000000001e-01 1.0000000000000001e-01
ITEM: ATOMS id type xs ys zs
16 1 0.125005 0.0576267 0.502713
46 1 0.262927 0.0216755 0.504117
10 1 0.398702 0.020566 0.494384
41 1 0.164052 0.175555 0.503551
21 1 0.252356 0.127675 0.500738
5 1 0.373619 0.177133 0.503937
74 1 0.322475 0.0687528 0.489447
28 1 0.240708 0.371984 0.510321
37 1 0.251552 0.246023 0.505884
3 1 0.143977 0.474346 0.494498
1 1 0.324197 0.47838 0.497938
23 1 0.450425 0.534538 0.506065
15 1 0.109838 0.606434 0.497445
51 1 0.232438 0.561392 0.485375
9 1 0.342164 0.635409 0.489283
27 1 0.47861 0.649151 0.503279
18 1 0.207486 0.706059 0.498358
30 1 0.328769 0.775355 0.505828
56 1 0.422101 0.734311 0.49818
40 1 0.140074 0.813085 0.498741
72 1 0.242721 0.811189 0.504489
20 1 0.292924 0.897639 0.506146
7 1 0.44817 0.853201 0.509809
35 1 0.168921 0.917724 0.50324
ITEM: TIMESTEP
7250
ITEM: NUMBER OF ATOMS
24
ITEM: BOX BOUNDS pp pp pp
-4.8073200956536013e+00 4.8073200956536013e+00
-4.8383447110002056e+00 4.8383447110002056e+00
-1.0000000000000001e-01 1.0000000000000001e-01
ITEM: ATOMS id type xs ys zs
16 1 0.125313 0.0576184 0.504237
46 1 0.26291 0.0218791 0.507073
10 1 0.398072 0.0202071 0.493662
41 1 0.164348 0.175958 0.502438
21 1 0.252302 0.127624 0.502189
5 1 0.374161 0.176499 0.504797
74 1 0.322384 0.0689141 0.491135
28 1 0.239479 0.372542 0.509426
37 1 0.252505 0.246188 0.504897
3 1 0.143896 0.475543 0.493664
1 1 0.322834 0.479074 0.498722
23 1 0.449449 0.534896 0.505812
15 1 0.108301 0.607273 0.496963
51 1 0.231292 0.563332 0.484926
9 1 0.342405 0.635993 0.490389
27 1 0.478708 0.648932 0.5027
18 1 0.207702 0.705559 0.497237
30 1 0.329972 0.775419 0.506087
56 1 0.422915 0.734562 0.498511
40 1 0.140889 0.813128 0.499563
72 1 0.243787 0.810547 0.505146
20 1 0.29317 0.897845 0.506867
7 1 0.44849 0.854435 0.509473
35 1 0.170163 0.918145 0.502756
ITEM: TIMESTEP
7500
ITEM: NUMBER OF ATOMS
24
ITEM: BOX BOUNDS pp pp pp
-4.8061095643305372e+00 4.8061095643305372e+00
-4.8427260308284970e+00 4.8427260308284970e+00
-1.0000000000000001e-01 1.0000000000000001e-01
ITEM: ATOMS id type xs ys zs
16 1 0.12515 0.057561 0.504628
46 1 0.264623 0.0217311 0.507241
10 1 0.39821 0.0204028 0.492605
41 1 0.163434 0.175614 0.500768
21 1 0.252025 0.127612 0.501144
5 1 0.373912 0.175773 0.503839
74 1 0.322984 0.0696743 0.490483
28 1 0.238564 0.371545 0.507339
37 1 0.252147 0.246107 0.504386
3 1 0.143881 0.476422 0.494614
1 1 0.321944 0.478358 0.498116
23 1 0.448851 0.534624 0.505377
15 1 0.108541 0.607953 0.496422
51 1 0.231032 0.563575 0.484177
9 1 0.34202 0.635432 0.488973
27 1 0.478178 0.648348 0.50306
18 1 0.207961 0.706274 0.497187
30 1 0.329408 0.774925 0.506734
56 1 0.423039 0.734334 0.5007
40 1 0.140379 0.813442 0.499584
72 1 0.243474 0.810785 0.504386
20 1 0.293533 0.896925 0.505773
7 1 0.448615 0.853545 0.511353