LAMMPS (23 Jun 2022 - Update 4)
  using 1 OpenMP thread(s) per MPI task
# Compute elastic constant tensor for a crystal
#
# Written by Aidan Thompson (Sandia, athomps@sandia.gov)
#
#  This script uses the following three include files.
#
#   init.mod      (must be modified for different crystal structures)
# 	       	  Define units, deformation parameters and initial
#		  configuration of the atoms and simulation cell.
#
#
#   potential.mod    (must be modified for different pair styles)
# 		     Define pair style and other attributes
#		     not stored in restart file
#
#
#   displace.mod    (displace.mod should not need to be modified)
# 		    Perform positive and negative box displacements
# 		    in direction ${dir} and size ${up}.
# 		    It uses the resultant changes
#		    in stress to compute one
# 		    row of the elastic stiffness tensor
#
#		    Inputs variables:
#		    	   dir = the Voigt deformation component
#		    		    (1,2,3,4,5,6)
#		    Global constants:
#       	    	   up = the deformation magnitude (strain units)
#       		   cfac = conversion from LAMMPS pressure units to
#               	   output units for elastic constants
#
#
#  To run this on a different system, it should only be necessary to
#  modify the files init.mod and potential.mod. In order to calculate
#  the elastic constants correctly, care must be taken to specify
#  the correct units in init.mod (units, cfac and cunits). It is also
#  important to verify that the minimization of energy w.r.t atom
#  positions in the deformed cell is fully converged.
#  One indication of this is that the elastic constants are insensitive
#  to the choice of the variable ${up} in init.mod. Another is to check
#  the final max and two-norm forces reported in the log file. If you know
#  that minimization is not required, you can set maxiter = 0.0 in
#  init.mod.
#



variable dt equal 0.01
variable strain equal 0.05
variable srate equal 1e-4
variable M equal 1000 # averaging time for properties
variable strainsteps equal ${strain}/${dt}/${srate}
variable strainsteps equal 0.05/${dt}/${srate}
variable strainsteps equal 0.05/0.01/${srate}
variable strainsteps equal 0.05/0.01/0.0001


dimension 2
include init.mod
# NOTE: This script can be modified for different atomic structures,
# units, etc. See in.elastic for more info.
#

# Define the finite deformation size. Try several values of this
# variable to verify that results do not depend on it.
variable up equal 1.0e-1

# Define the amount of random jiggle for atoms
# This prevents atoms from staying on saddle points
variable atomjiggle equal 1.0e-6

# Uncomment one of these blocks, depending on what units
# you are using in LAMMPS and for output

# metal units, elastic constants in eV/A^3
#units		metal
#variable cfac equal 6.2414e-7
#variable cunits string eV/A^3

# Choose potential
# metal units, elastic constants in GPa
units		metal
atom_style	full
#pair_style      lj/cut 1.0
#pair_style      yukawa 1.0 2.0
#pair_modify     mix arithmetic
bond_style      harmonic
angle_style     harmonic
dihedral_style  zero
special_bonds   amber
variable cfac equal 1.0e-4
variable cunits string GPa
boundary	p p p

# Need to set mass to something, just to satisfy LAMMPS
#mass 1 1.0e-20
read_data network.lmp
Reading data file ...
  orthogonal box = (-4.842125 -4.842125 -0.1) to (4.842125 4.842125 0.1)
  1 by 1 by 1 MPI processor grid
WARNING: Atom style in data file differs from currently defined atom style (src/read_data.cpp:538)
  reading atoms ...
  24 atoms
WARNING: Bond style in data file differs from currently defined bond style (src/read_data.cpp:630)
  scanning bonds ...
  4 = max bonds/atom
  reading bonds ...
  49 bonds
Finding 1-2 1-3 1-4 neighbors ...
  special bond factors lj:    0        0        0.5     
  special bond factors coul:  0        0        0.8333333333333334
     8 = max # of 1-2 neighbors
    25 = max # of 1-3 neighbors
   120 = max # of 1-4 neighbors
    21 = max # of special neighbors
  special bonds CPU = 0.000 seconds
  read_data CPU = 0.003 seconds

# real units, elastic constants in GPa
#units		real
#variable cfac equal 1.01325e-4
#variable cunits string GPa

# Define minimization parameters
variable etol equal 0.0
variable ftol equal 5.0e-10
variable maxiter equal 100000
variable maxeval equal 20000
variable dmax equal 1.0e-2


include potential.mod
# NOTE: This script can be modified for different pair styles
# See in.elastic for more info.

# Setup neighbor style
neighbor 3.0 nsq
neigh_modify once no every 1 delay 0 check yes
comm_modify cutoff 2.0

# Setup minimization style
min_style	     cg
min_modify	     dmax ${dmax} line quadratic
min_modify	     dmax 0.01 line quadratic

timestep	0.001


# Setup output
thermo		500
thermo_style custom step temp pe ebond eangle edihed press pxx pyy pzz pxy pxz pyz lx ly lz vol
thermo_modify norm no


#change_box all triclinic
comm_modify mode single cutoff 10.0 vel yes
atom_modify sort 0 0



# Compute initial state

#dump rela all atom 1 traj_relax.lmpstrj
fix 3 all box/relax x 0 y 0 # xy 0  #MS comment: relax if the network is periodic
minimize ${etol} ${ftol} ${maxiter} ${maxeval}
minimize 0 ${ftol} ${maxiter} ${maxeval}
minimize 0 5e-10 ${maxiter} ${maxeval}
minimize 0 5e-10 100000 ${maxeval}
minimize 0 5e-10 100000 20000
Neighbor list info ...
  update every 1 steps, delay 0 steps, check yes
  max neighbors/atom: 2000, page size: 100000
  master list distance cutoff = 0
  ghost atom cutoff = 10
  0 neighbor lists, perpetual/occasional/extra = 0 0 0
WARNING: Inconsistent image flags (src/domain.cpp:819)
Per MPI rank memory allocation (min/avg/max) = 8.122 | 8.122 | 8.122 Mbytes
   Step          Temp          PotEng         E_bond        E_angle        E_dihed         Press           Pxx            Pyy            Pzz            Pxy            Pxz            Pyz             Lx             Ly             Lz           Volume    
         0   0              1.0317837e-11  1.0317837e-11  0              0              0.06847891     0.025741638    0.11121618     0             -0.031060787    0              0              9.68425        9.68425        0.2            93.784698    
        62   0              1.3293199e-14  1.3293199e-14  0              0             -4.8866196e-08 -4.0743123e-07  3.0969883e-07  0             -1.7430695e-06  0              0              9.6842506      9.6842496      0.2            93.7847      
Loop time of 0.00142388 on 1 procs for 62 steps with 24 atoms

100.0% CPU use with 1 MPI tasks x 1 OpenMP threads

Minimization stats:
  Stopping criterion = force tolerance
  Energy initial, next-to-last, final = 
    1.03178366238347e-11 1.32934599349639e-14 1.32931985390963e-14
  Force two-norm initial, final = 1.2339514e-05 2.8258342e-10
  Force max component initial, final = 6.5101292e-06 9.6405603e-11
  Final line search alpha, max atom move = 1 9.6405603e-11
  Iterations, force evaluations = 62 124

MPI task timing breakdown:
Section |  min time  |  avg time  |  max time  |%varavg| %total
---------------------------------------------------------------
Pair    | 0          | 0          | 0          |   0.0 |  0.00
Bond    | 0.00017957 | 0.00017957 | 0.00017957 |   0.0 | 12.61
Neigh   | 0          | 0          | 0          |   0.0 |  0.00
Comm    | 0.00042036 | 0.00042036 | 0.00042036 |   0.0 | 29.52
Output  | 0          | 0          | 0          |   0.0 |  0.00
Modify  | 0          | 0          | 0          |   0.0 |  0.00
Other   |            | 0.000824   |            |       | 57.87

Nlocal:             24 ave          24 max          24 min
Histogram: 1 0 0 0 0 0 0 0 0 0
Nghost:            198 ave         198 max         198 min
Histogram: 1 0 0 0 0 0 0 0 0 0
Neighs:              0 ave           0 max           0 min
Histogram: 1 0 0 0 0 0 0 0 0 0

Total # of neighbors = 0
Ave neighs/atom = 0
Ave special neighs/atom = 16.833333
Neighbor list builds = 0
Dangerous builds = 0
#dump rela all atom 1 traj_relax.lmpstrj
thermo 100
unfix 3

fix 2d all enforce2d



#dump dump0 all xyz 1000000 cfg0.xyz
#dump_modify dump0 format line "%d %20.10g %20.10g %20.10g"
#minimize ${etol} ${ftol} ${maxiter} ${maxeval}

#undump rela

#write_restart restart.equil

# These formulas define the derivatives w.r.t. strain components
# Constants uses $, variables use v_


timestep        ${dt}
timestep        0.01
variable nsteps equal round(${strainsteps})
variable nsteps equal round(50000)

fix             4 all nve
fix             5 all langevin 0.1 0.1 1 904297
#fix		6 all press/berendsen y  0.0 0.0 1 x 0.0 0.0 10
fix             6 all nph y 0.0 0.0 10 ptemp 0.1 # x 0.0 0.0 10

# For PLUMED2
# fix 22 all plumed plumedfile plumed.dat outfile plumed.out

#fix             6 all nph x 0.0 0.0 10
fix     	9 all deform 1 x erate -${srate} units box remap x
fix     	9 all deform 1 x erate -0.0001 units box remap x

#fix     8 all deform 1 xy erate ${srate} units box remap x



#fix    10 all ave/time

dump 1 all atom 250 deform_dump.lammpstrj


#To avoid flying ice cube phenomenon:
#fix 21 all momentum 100 linear 1 1 1 angular


run  ${nsteps}
run  50000
WARNING: One or more atoms are time integrated more than once (src/modify.cpp:292)
WARNING: Inconsistent image flags (src/domain.cpp:819)
Per MPI rank memory allocation (min/avg/max) = 6.997 | 6.997 | 6.997 Mbytes
   Step          Temp          PotEng         E_bond        E_angle        E_dihed         Press           Pxx            Pyy            Pzz            Pxy            Pxz            Pyz             Lx             Ly             Lz           Volume    
        62   0              1.3293199e-14  1.3293199e-14  0              0             -4.8866196e-08 -4.0743123e-07  3.0969883e-07  0             -1.7430695e-06  0              0              9.6842506      9.6842496      0.2            93.7847      
       100   0.12268025     0.00012434602  0.00012434602  0              0              6.6629635      10.392867      2.8742572      0             -171.73984      0              0              9.6838826      9.6865506      0.2            93.803419    
       200   0.1925456      0.0004657227   0.0004657227   0              0             -136.80557     -317.20671      43.508499      0              190.50567      0              0              9.6829142      9.6786016      0.2            93.717069    
       300   0.24010667     0.00027470307  0.00027470307  0              0              111.57419      143.46123      79.615768      0             -212.4142       0              0              9.6819457      9.6866841      0.2            93.785949    
       400   0.15442841     0.00029733675  0.00029733675  0              0              88.120108      115.63828      60.539529      0             -172.42239      0              0              9.6809773      9.6890705      0.2            93.799671    
       500   0.24704121     0.00032681196  0.00032681196  0              0              158.77567      224.69772      92.779308      0              80.676859      0              0              9.6800089      9.6813057      0.2            93.715125    
       600   0.25277518     0.00032865626  0.00032865626  0              0              70.981515      32.34228       109.54492      0              267.72622      0              0              9.6790405      9.6929009      0.2            93.81798     
       700   0.23544465     0.00027809317  0.00027809317  0              0             -285.03182     -724.25725      154.10023      0              332.87676      0              0              9.678072       9.6862087      0.2            93.743825    
       800   0.218286       0.00038205083  0.00038205083  0              0             -237.38353     -604.14445      129.32721      0              258.41157      0              0              9.6771036      9.6826452      0.2            93.69996     
       900   0.14538171     0.00053081142  0.00053081142  0              0             -173.72016     -389.2087       41.706256      0              254.34984      0              0              9.6761352      9.691504       0.2            93.776303    
      1000   0.22455761     0.00027713165  0.00027713165  0              0             -48.849193     -121.5256       23.76251       0              202.3492       0              0              9.6751668      9.6899834      0.2            93.752205    
      1100   0.23534303     0.000460674    0.000460674    0              0              85.540286      119.98464      51.041882      0             -8.377526       0              0              9.6741983      9.6775811      0.2            93.622839    
      1200   0.19016737     0.00047766401  0.00047766401  0              0              62.756828      68.400088      57.026718      0             -141.41873      0              0              9.6732299      9.678689       0.2            93.624184    
      1300   0.24369132     0.00045549323  0.00045549323  0              0             -53.981963     -132.47277      24.426778      0             -89.273518      0              0              9.6722615      9.695299       0.2            93.775467    
      1400   0.2654762      0.00037945999  0.00037945999  0              0              75.661581      108.71067      42.553105      0             -174.10611      0              0              9.6712931      9.6870547      0.2            93.686345    
      1500   0.26521169     0.00033673067  0.00033673067  0              0             -93.990684     -182.17818     -5.8682913      0             -316.20259      0              0              9.6703246      9.6799996      0.2            93.608738    
      1600   0.23378079     0.00048352555  0.00048352555  0              0             -192.81526     -341.31565     -44.390965      0              273.37695      0              0              9.6693562      9.6812541      0.2            93.611494    
      1700   0.11031622     0.00035858894  0.00035858894  0              0             -53.558238     -8.4474889     -98.756703      0              399.82464      0              0              9.6683878      9.6934025      0.2            93.719574    
      1800   0.20641649     0.00025906569  0.00025906569  0              0              37.497888      228.27969     -153.34723      0             -441.65399      0              0              9.6674194      9.6874269      0.2            93.652418    
      1900   0.21831093     0.00039870104  0.00039870104  0              0             -622.46714     -1073.9196     -171.09097      0             -298.37328      0              0              9.6664509      9.6709382      0.2            93.483649    
      2000   0.21568155     0.00041009313  0.00041009313  0              0             -97.441287      48.819428     -243.77657      0             -302.29267      0              0              9.6654825      9.6759102      0.2            93.522341    
      2100   0.21305442     0.0005101999   0.0005101999   0              0             -244.78351     -118.18208     -371.4624       0              20.196548      0              0              9.6645141      9.6868765      0.2            93.618955    
      2200   0.23941829     0.00044067422  0.00044067422  0              0             -207.32133      20.817106     -435.52432      0              264.20597      0              0              9.6635457      9.6834514      0.2            93.576475    
      2300   0.22596357     0.00037795311  0.00037795311  0              0             -429.18073     -344.01321     -514.42368      0              329.69869      0              0              9.6625772      9.682066       0.2            93.553711    
      2400   0.17828873     0.00040254259  0.00040254259  0              0             -435.2625      -357.64976     -512.9536       0              346.33138      0              0              9.6616088      9.688519       0.2            93.60668     
      2500   0.2383419      0.00035837913  0.00035837913  0              0             -364.79342     -231.94117     -497.71878      0              206.05919      0              0              9.6606404      9.6924114      0.2            93.634901    
      2600   0.18817065     0.00036413518  0.00036413518  0              0             -272.44033     -42.294603     -502.66147      0              387.43986      0              0              9.659672       9.6938693      0.2            93.639598    
      2700   0.18209609     0.0005442495   0.0005442495   0              0             -222.8749       23.239282     -469.08324      0             -233.62228      0              0              9.6587035      9.6830697      0.2            93.525899    
      2800   0.18266433     0.00029743359  0.00029743359  0              0             -260.64647     -103.6849      -417.67029      0             -179.0845       0              0              9.6577351      9.6883041      0.2            93.567075    
      2900   0.20126875     0.00043194035  0.00043194035  0              0             -4.5103095      362.82149     -371.89665      0              180.35833      0              0              9.6567667      9.6945835      0.2            93.618331    
      3000   0.16812943     0.00034370629  0.00034370629  0              0             -135.52868      90.699439     -361.83105      0             -343.72029      0              0              9.6557983      9.6906675      0.2            93.571131    
      3100   0.21036173     0.00043093233  0.00043093233  0              0             -181.52736     -67.276863     -295.85142      0             -392.95346      0              0              9.6548298      9.6854915      0.2            93.511773    
      3200   0.241255       0.00034175899  0.00034175899  0              0             -243.9515      -205.17329     -282.80419      0             -169.94617      0              0              9.6538614      9.6852619      0.2            93.500176    
      3300   0.18591327     0.00042096505  0.00042096505  0              0              147.00311      478.8283      -184.88934      0             -101.86856      0              0              9.652893       9.6888143      0.2            93.525088    
      3400   0.23891476     0.00037417047  0.00037417047  0              0              39.771464      156.77106     -77.315603      0              198.21687      0              0              9.6519246      9.6903144      0.2            93.530184    
      3500   0.14125227     0.00026945657  0.00026945657  0              0             -34.751238     -109.25947      39.690668      0              224.08603      0              0              9.6509561      9.6868271      0.2            93.487143    
      3600   0.26671593     0.00042022977  0.00042022977  0              0              418.72729      714.47118      122.92375      0              447.14339      0              0              9.6499877      9.6869648      0.2            93.479091    
      3700   0.22807728     0.00025565382  0.00025565382  0              0              331.13033      400.86253      261.33661      0             -266.82501      0              0              9.6490193      9.6852221      0.2            93.452894    
      3800   0.2132108      0.00040672611  0.00040672611  0              0             -0.68767909    -386.56311      385.13383      0              279.40802      0              0              9.6480509      9.6881221      0.2            93.471495    
      3900   0.18720075     0.00041650959  0.00041650959  0              0              361.69977      280.45719      442.88247      0              527.52432      0              0              9.6470824      9.6914563      0.2            93.494278    
      4000   0.29919091     0.00034321206  0.00034321206  0              0              237.01883     -41.45661       515.43332      0             -142.55167      0              0              9.646114       9.675852       0.2            93.334372    
      4100   0.22880635     0.00038441789  0.00038441789  0              0              171.2733      -238.81674      581.28739      0             -275.35913      0              0              9.6451456      9.6643029      0.2            93.213609    
      4200   0.16265965     0.00035592495  0.00035592495  0              0              503.76795      421.36682      586.09558      0             -318.00433      0              0              9.6441772      9.6823         0.2            93.377816    
      4300   0.18015993     0.00065060556  0.00065060556  0              0              628.48694      731.05819      525.83887      0             -339.42675      0              0              9.6432087      9.6862961      0.2            93.406975    
      4400   0.18685791     0.00030774946  0.00030774946  0              0              413.93976      409.53491      418.27173      0             -298.3344       0              0              9.6422403      9.6856095      0.2            93.390974    
      4500   0.20345341     0.00025490566  0.00025490566  0              0             -29.836861     -380.54602      320.7816       0              170.10094      0              0              9.6412719      9.6902646      0.2            93.426476    
      4600   0.21252102     0.00042560033  0.00042560033  0              0              233.79965      260.49753      207.03203      0              446.34789      0              0              9.6403035      9.6837147      0.2            93.353948    
      4700   0.25247413     0.00038642388  0.00038642388  0              0              35.678628     -3.2572306      74.576155      0             -558.32154      0              0              9.639335       9.6848377      0.2            93.355396    
      4800   0.16020791     0.00039608982  0.00039608982  0              0             -92.328332     -142.51639     -42.221497      0             -141.93496      0              0              9.6383666      9.6799209      0.2            93.298626    
      4900   0.29352324     0.00044613206  0.00044613206  0              0             -295.78194     -435.76366     -155.87354      0             -39.195121      0              0              9.6373982      9.6797598      0.2            93.287699    
      5000   0.21691736     0.00037301698  0.00037301698  0              0             -331.37777     -466.70268     -196.13736      0              60.823245      0              0              9.6364298      9.6846555      0.2            93.325502    
      5100   0.1532445      0.00035376134  0.00035376134  0              0              30.83692       349.69195     -288.10643      0              68.865399      0              0              9.6354613      9.691829       0.2            93.385244    
      5200   0.33252502     0.00029214905  0.00029214905  0              0             -158.56872     -31.457457     -285.74686      0             -238.70004      0              0              9.6344929      9.6849732      0.2            93.309805    
      5300   0.17401928     0.00037828094  0.00037828094  0              0             -410.82862     -518.12792     -303.587        0              11.923715      0              0              9.6335245      9.6899461      0.2            93.348333    
      5400   0.15797543     0.00037235827  0.00037235827  0              0             -78.44393       181.92924     -338.87995      0             -319.36342      0              0              9.6325561      9.6936503      0.2            93.37463     
      5500   0.19506658     0.00031911884  0.00031911884  0              0             -351.92404     -363.33424     -340.58545      0              233.65679      0              0              9.6315876      9.6792809      0.2            93.226842    
      5600   0.16047237     0.00030858477  0.00030858477  0              0             -405.33548     -500.11524     -310.62858      0              152.59973      0              0              9.6306192      9.6784288      0.2            93.209263    
      5700   0.2422501      0.00044133032  0.00044133032  0              0             -170.60194     -110.32727     -230.94052      0             -228.23413      0              0              9.6296508      9.6824033      0.2            93.238162    
      5800   0.22060509     0.0002468889   0.0002468889   0              0             -165.36636     -189.11208     -141.70874      0              99.747303      0              0              9.6286824      9.6821421      0.2            93.226271    
      5900   0.22604388     0.00026194114  0.00026194114  0              0              83.143263      279.41672     -113.20503      0             -536.77362      0              0              9.6277139      9.6865322      0.2            93.259161    
      6000   0.15070535     0.00041633275  0.00041633275  0              0             -530.81399     -982.9311      -78.772432      0             -5.069258       0              0              9.6267455      9.6821779      0.2            93.207862    
      6100   0.25075368     0.00049922238  0.00049922238  0              0              13.195355      40.277508     -13.938646      0              188.62501      0              0              9.6257771      9.6767068      0.2            93.145822    
      6200   0.22373089     0.00031460558  0.00031460558  0              0              23.293563      13.712688      32.821716      0              55.574265      0              0              9.6248087      9.6805787      0.2            93.173718    
      6300   0.1947099      0.00034955009  0.00034955009  0              0              115.08091      156.98436      73.113762      0             -115.25313      0              0              9.6238402      9.6787652      0.2            93.146889    
      6400   0.25837835     0.00031912319  0.00031912319  0              0              319.22183      558.18397      80.192538      0             -139.75369      0              0              9.6228718      9.6708962      0.2            93.061794    
      6500   0.1836832      0.00039333578  0.00039333578  0              0              121.50139      82.533122      160.41324      0              543.87475      0              0              9.6219034      9.6817859      0.2            93.157208    
      6600   0.17931394     0.00047355496  0.00047355496  0              0             -211.91674     -604.01191      180.10106      0              673.94489      0              0              9.620935       9.6792593      0.2            93.123524    
      6700   0.23699934     0.00030917264  0.00030917264  0              0              209.19593      205.87276      212.44534      0              373.82902      0              0              9.6199665      9.6801813      0.2            93.12302     
      6800   0.16820884     0.00028624031  0.00028624031  0              0              267.72502      251.76171      283.64054      0              257.65726      0              0              9.6189981      9.6718204      0.2            93.033223    
      6900   0.22192448     0.00036247405  0.00036247405  0              0              276.27394      293.94893      258.54586      0             -61.569848      0              0              9.6180297      9.6777588      0.2            93.080971    
      7000   0.24228527     0.00025258129  0.00025258129  0              0              204.52873      130.98455      277.9763       0              303.00114      0              0              9.6170613      9.6737374      0.2            93.032925    
      7100   0.18777522     0.00044558295  0.00044558295  0              0              337.44998      442.20472      232.61725      0              44.892165      0              0              9.6160928      9.6789123      0.2            93.07332     
      7200   0.18524089     0.00038449031  0.00038449031  0              0              409.75926      629.06036      190.38983      0             -262.81609      0              0              9.6151244      9.6761612      0.2            93.037493    
      7300   0.23556716     0.00029435957  0.00029435957  0              0             -77.011537     -293.97275      139.87266      0             -87.242425      0              0              9.614156       9.6753579      0.2            93.0204      
      7400   0.21615327     0.00036450166  0.00036450166  0              0              120.7755       108.46045      133.02286      0              9.061821       0              0              9.6131876      9.6757847      0.2            93.015133    
      7500   0.31167676     0.00043005007  0.00043005007  0              0              73.063064      96.592964      49.460715      0              253.19276      0              0              9.6122191      9.6854521      0.2            93.098688    
      7600   0.19880872     0.00043964572  0.00043964572  0              0              436.20838      945.17795     -72.824488      0             -207.1669       0              0              9.6112507      9.6885641      0.2            93.119218    
      7700   0.27155411     0.00055775469  0.00055775469  0              0              186.44373      570.87493     -198.07356      0             -104.56392      0              0              9.6102823      9.6969571      0.2            93.190495    
      7800   0.25057821     0.00042498002  0.00042498002  0              0             -133.51884      47.176625     -314.27905      0              122.87501      0              0              9.6093139      9.6826824      0.2            93.043934    
      7900   0.19991822     0.00043171412  0.00043171412  0              0             -20.316717      340.21256     -380.89775      0              146.10747      0              0              9.6083454      9.692965       0.2            93.133356    
      8000   0.13795623     0.00040512669  0.00040512669  0              0              27.695935      507.32707     -452.0313       0             -33.252769      0              0              9.607377       9.6876753      0.2            93.073149    
      8100   0.19044198     0.00039197232  0.00039197232  0              0             -509.96823     -583.94511     -436.05868      0              181.256        0              0              9.6064086      9.683657       0.2            93.025166    
      8200   0.18001303     0.0004675521   0.0004675521   0              0             -424.44821     -448.49487     -400.47597      0             -340.41773      0              0              9.6054402      9.6770997      0.2            92.952802    
      8300   0.17138519     0.00035608961  0.00035608961  0              0              57.178008      382.51836     -268.24158      0             -11.048018      0              0              9.6044717      9.6843307      0.2            93.012881    
      8400   0.28301478     0.00031661529  0.00031661529  0              0              69.620786      210.88613     -71.708931      0              45.747971      0              0              9.6035033      9.6869352      0.2            93.028515    
      8500   0.2202592      0.00046220333  0.00046220333  0              0              76.813703      14.224053      139.32958      0             -65.827493      0              0              9.6025349      9.6910673      0.2            93.058812    
      8600   0.24726453     0.00038052958  0.00038052958  0              0             -105.59856     -543.17842      331.90645      0              213.29019      0              0              9.6015665      9.6831354      0.2            92.973268    
      8700   0.25567579     0.00048054114  0.00048054114  0              0              545.17778      585.36115      504.90681      0              305.49075      0              0              9.600598       9.6774544      0.2            92.90935     
      8800   0.20632786     0.0005030734   0.0005030734   0              0              712.92081      701.96253      723.80362      0              112.3094       0              0              9.5996296      9.6840766      0.2            92.963548    
      8900   0.25793748     0.00038500328  0.00038500328  0              0              380.89019     -154.85692      916.57661      0             -150.33114      0              0              9.5986612      9.6829535      0.2            92.94339     
      9000   0.1721383      0.00045813203  0.00045813203  0              0              801.43695      756.39219      846.41912      0             -45.05047       0              0              9.5976928      9.6930856      0.2            93.031258    
      9100   0.17049405     0.00033568898  0.00033568898  0              0              775.60795      752.99304      798.15534      0              499.01305      0              0              9.5967243      9.6867385      0.2            92.960959    
      9200   0.16864292     0.0006198239   0.0006198239   0              0              666.41295      713.22026      619.54504      0              63.249976      0              0              9.5957559      9.6909137      0.2            92.991643    
      9300   0.23455464     0.00041819344  0.00041819344  0              0              11.404718     -379.91171      402.66175      0              174.84101      0              0              9.5947875      9.688578       0.2            92.959847    
      9400   0.2589289      0.00036426644  0.00036426644  0              0              416.2771       684.87321      147.61408      0             -75.872652      0              0              9.5938191      9.6899682      0.2            92.963802    
      9500   0.24533935     0.00044428941  0.00044428941  0              0              14.331595      154.28312     -125.66551      0             -95.272539      0              0              9.5928506      9.7008523      0.2            93.058827    
      9600   0.17428356     0.00041167047  0.00041167047  0              0              46.826201      466.39753     -372.80778      0              278.664        0              0              9.5918822      9.6972279      0.2            93.014668    
      9700   0.23148938     0.00033907379  0.00033907379  0              0             -558.94366     -599.03469     -518.91718      0              358.68852      0              0              9.5909138      9.6970867      0.2            93.003922    
      9800   0.18239617     0.00046485112  0.00046485112  0              0             -606.85448     -613.84204     -599.94343      0              350.98228      0              0              9.5899454      9.7036285      0.2            93.057267    
      9900   0.20520444     0.00044100397  0.00044100397  0              0             -321.45585      1.2835057     -644.27965      0              178.00638      0              0              9.5889769      9.6988778      0.2            93.002315    
     10000   0.15516979     0.00021315111  0.00021315111  0              0             -465.08504     -320.10601     -610.13286      0             -129.64719      0              0              9.5880085      9.6933448      0.2            92.939873    
     10100   0.14811053     0.000322469    0.000322469    0              0             -427.03625     -286.68768     -567.46132      0              73.319222      0              0              9.5870401      9.6899423      0.2            92.897865    
     10200   0.34735323     0.00041009073  0.00041009073  0              0             -455.05345     -440.69137     -469.48467      0             -168.57573      0              0              9.5860717      9.6956475      0.2            92.943171    
     10300   0.24903504     0.0004650074   0.0004650074   0              0             -152.39254      110.98257     -415.83824      0              77.129338      0              0              9.5851032      9.6961769      0.2            92.938856    
     10400   0.21244869     0.00044777892  0.00044777892  0              0              84.817546      439.53065     -269.95545      0              307.17847      0              0              9.5841348      9.6989212      0.2            92.955768    
     10500   0.14010444     0.00050023421  0.00050023421  0              0             -503.38268     -858.26458     -148.57541      0              345.56088      0              0              9.5831664      9.7008934      0.2            92.965276    
     10600   0.25802558     0.00029176272  0.00029176272  0              0             -90.434304     -187.42477      6.4866375      0             -10.148596      0              0              9.582198       9.6896198      0.2            92.847855    
     10700   0.28919466     0.00040386371  0.00040386371  0              0              53.110697      13.90976       92.235519      0              103.42031      0              0              9.5812295      9.6843927      0.2            92.788389    
     10800   0.2746514      0.00045900298  0.00045900298  0              0             -5.8334138     -159.87821      148.11459      0              561.27777      0              0              9.5802611      9.6845563      0.2            92.780578    
     10900   0.22849892     0.0004070676   0.0004070676   0              0              183.154        120.34988      245.89299      0             -19.445856      0              0              9.5792927      9.681056       0.2            92.737669    
     11000   0.20089889     0.00041495504  0.00041495504  0              0              537.91         707.06774      368.65969      0              113.83812      0              0              9.5783243      9.6805143      0.2            92.723105    
     11100   0.25204906     0.00043940725  0.00043940725  0              0              398.05256      369.34986      426.70897      0             -91.948239      0              0              9.5773558      9.6787195      0.2            92.696541    
     11200   0.30564225     0.000361342    0.000361342    0              0              332.296        200.22063      464.295        0              34.296458      0              0              9.5763874      9.695416       0.2            92.847059    
     11300   0.23506403     0.00060532184  0.00060532184  0              0             -104.24627     -614.23267      405.6667       0              311.58544      0              0              9.575419       9.68718        0.2            92.758807    
     11400   0.20079993     0.00037482153  0.00037482153  0              0              66.620817     -200.79697      333.95798      0              175.13936      0              0              9.5744506      9.6711903      0.2            92.596333    
     11500   0.2497163      0.00038375064  0.00038375064  0              0             -179.00143     -669.65916      311.56873      0             -209.27121      0              0              9.5734821      9.6816518      0.2            92.68712     
     11600   0.25742919     0.0003456536   0.0003456536   0              0             -196.76865     -604.7451       211.12208      0             -115.70924      0              0              9.5725137      9.6790853      0.2            92.653176    
     11700   0.2527792      0.00025519804  0.00025519804  0              0              171.42795      147.14698      195.64249      0              222.84983      0              0              9.5715453      9.6838144      0.2            92.689068    
     11800   0.16557628     0.00032150755  0.00032150755  0              0             -36.405001     -156.82342      83.964019      0              92.819682      0              0              9.5705769      9.6869466      0.2            92.709667    
     11900   0.18671889     0.00048600754  0.00048600754  0              0             -46.336828     -90.807879     -1.9595917      0              242.80409      0              0              9.5696084      9.6890808      0.2            92.720709    
     12000   0.20120738     0.00040219404  0.00040219404  0              0              141.0363       350.899       -68.886334      0              10.117205      0              0              9.56864        9.6890604      0.2            92.711131    
     12100   0.26601306     0.00035138322  0.00035138322  0              0              53.001198      217.59414     -111.64492      0             -109.9071       0              0              9.5676716      9.6816389      0.2            92.630741    
     12200   0.23815488     0.00032404702  0.00032404702  0              0             -90.218218      21.073235     -201.57257      0              65.761272      0              0              9.5667032      9.6856978      0.2            92.660196    
     12300   0.16641548     0.00050577791  0.00050577791  0              0             -233.7622      -217.06707     -250.52073      0             -4.0650955      0              0              9.5657347      9.6830244      0.2            92.625243    
     12400   0.18915877     0.00039065602  0.00039065602  0              0             -47.139112      241.35663     -335.70098      0             -321.38528      0              0              9.5647663      9.6830167      0.2            92.615792    
     12500   0.19934977     0.00046818593  0.00046818593  0              0              2.2397301      352.24435     -347.8172       0              296.17968      0              0              9.5637979      9.6819048      0.2            92.595781    
     12600   0.11325621     0.00035423303  0.00035423303  0              0             -225.03464     -148.80403     -301.33397      0             -169.19289      0              0              9.5628295      9.6792373      0.2            92.560895    
     12700   0.17106499     0.00037477722  0.00037477722  0              0              52.192523      370.84761     -266.53502      0             -2.1511844      0              0              9.561861       9.6944449      0.2            92.696935    
     12800   0.19998923     0.00040172815  0.00040172815  0              0             -371.42539     -565.15866     -177.75734      0             -433.86316      0              0              9.5608926      9.6921719      0.2            92.665815    
     12900   0.2214936      0.00055505258  0.00055505258  0              0              265.75679      628.42056     -96.94846       0             -79.703902      0              0              9.5599242      9.6827904      0.2            92.566742    
     13000   0.16132133     0.00060622158  0.00060622158  0              0              519.73381      1040.8795     -1.5016225      0             -41.151852      0              0              9.5589558      9.689159       0.2            92.618242    
     13100   0.17968128     0.00025700611  0.00025700611  0              0              136.18508      116.91203      155.39147      0             -233.67345      0              0              9.5579873      9.6848489      0.2            92.567663    
     13200   0.17157468     0.00033012438  0.00033012438  0              0              244.4097       187.24305      301.51757      0             -264.96517      0              0              9.5570189      9.6882522      0.2            92.590809    
     13300   0.2408294      0.00032369873  0.00032369873  0              0              60.064857     -281.66503      401.74057      0             -42.85712       0              0              9.5560505      9.6741871      0.2            92.447021    
     13400   0.20314526     0.00036996792  0.00036996792  0              0              221.31816     -51.951085      494.48852      0              8.6673797      0              0              9.5550821      9.689479       0.2            92.583767    
     13500   0.31271143     0.0003053666   0.0003053666   0              0              329.99198      118.47268      541.44433      0              13.323219      0              0              9.5541136      9.6918722      0.2            92.597248    
     13600   0.25181245     0.00036349668  0.00036349668  0              0              368.19575      218.67599      517.62478      0             -373.73311      0              0              9.5531452      9.6799801      0.2            92.474255    
     13700   0.11961267     0.0005167428   0.0005167428   0              0             -95.230678     -656.72282      466.18798      0             -313.65245      0              0              9.5521768      9.6731666      0.2            92.399797    
     13800   0.19485943     0.0003310083   0.0003310083   0              0              164.86428     -16.798375      346.4533       0             -108.68205      0              0              9.5512083      9.6918689      0.2            92.56906     
     13900   0.29275998     0.00028599441  0.00028599441  0              0              49.685971     -100.51122      199.7933       0             -133.55413      0              0              9.5502399      9.6992582      0.2            92.630243    
     14000   0.1790517      0.00043270614  0.00043270614  0              0              155.91795      297.56164      14.180242      0             -462.3661       0              0              9.5492715      9.6986109      0.2            92.614668    
     14100   0.20669206     0.00033903052  0.00033903052  0              0             -53.504162     -44.713718     -62.362403      0             -288.47999      0              0              9.5483031      9.6935108      0.2            92.556579    
     14200   0.26808507     0.00037174364  0.00037174364  0              0             -334.85333     -473.48549     -196.2913       0              148.76768      0              0              9.5473346      9.6934852      0.2            92.546947    
     14300   0.2871302      0.00027358838  0.00027358838  0              0              33.249892      400.5178      -334.07153      0             -44.079228      0              0              9.5463662      9.7115341      0.2            92.709861    
     14400   0.19178092     0.00038546785  0.00038546785  0              0              20.94821       502.54449     -460.73989      0              197.73249      0              0              9.5453978      9.7075459      0.2            92.662388    
     14500   0.25544497     0.0004327161   0.0004327161   0              0              34.769879      567.04768     -497.56535      0             -278.15103      0              0              9.5444294      9.7055291      0.2            92.633737    
     14600   0.21381428     0.00044004451  0.00044004451  0              0             -97.869004      216.79437     -412.60003      0             -22.16049       0              0              9.5434609      9.7021482      0.2            92.592073    
     14700   0.1550794      0.00030777207  0.00030777207  0              0             -222.09117     -175.59717     -268.66586      0              90.732936      0              0              9.5424925      9.690895       0.2            92.475293    
     14800   0.15800686     0.00046691896  0.00046691896  0              0             -319.39191     -544.58839     -94.280391      0              12.35097       0              0              9.5415241      9.6915992      0.2            92.472627    
     14900   0.21241857     0.00036039458  0.00036039458  0              0             -363.17096     -799.62098      73.225035      0              107.48519      0              0              9.5405557      9.6847272      0.2            92.397679    
     15000   0.11679334     0.00047971592  0.00047971592  0              0              196.25554      139.67912      252.74979      0              133.90117      0              0              9.5395872      9.679511       0.2            92.338539    
     15100   0.19897546     0.00040820986  0.00040820986  0              0              229.22404      92.286378      366.10429      0              287.8496       0              0              9.5386188      9.6836835      0.2            92.368965    
     15200   0.16398598     0.00040185306  0.00040185306  0              0              68.886963     -290.50094      428.2028       0             -36.981866      0              0              9.5376504      9.6832208      0.2            92.355175    
     15300   0.20770885     0.00031756571  0.00031756571  0              0              253.30397     -14.186261      520.72779      0             -22.399716      0              0              9.536682       9.6778351      0.2            92.294435    
     15400   0.16280992     0.00033271226  0.00033271226  0              0              1.7792073     -520.26857      523.74646      0              70.06376       0              0              9.5357135      9.6728783      0.2            92.237797    
     15500   0.20743983     0.00037378088  0.00037378088  0              0              357.61586      220.93839      494.21873      0              168.24324      0              0              9.5347451      9.6854289      0.2            92.348096    
     15600   0.19827692     0.00033602972  0.00033602972  0              0              72.153056     -251.79436      396.01141      0              51.275515      0              0              9.5337767      9.6892932      0.2            92.375557    
     15700   0.21285208     0.00027410046  0.00027410046  0              0              50.448996     -126.8321       227.64931      0             -237.23936      0              0              9.5328083      9.6873386      0.2            92.347542    
     15800   0.21721644     0.00031734746  0.00031734746  0              0             -30.194895     -80.413758      19.960009      0             -397.03182      0              0              9.5318398      9.6856638      0.2            92.322196    
     15900   0.16158012     0.00056436825  0.00056436825  0              0             -297.54149     -436.96108     -158.16948      0             -778.41215      0              0              9.5308714      9.6904856      0.2            92.358772    
     16000   0.19784343     0.000484587    0.000484587    0              0             -155.87352      25.05636      -336.86725      0             -225.51329      0              0              9.529903       9.7076368      0.2            92.512837    
     16100   0.20147297     0.00044379676  0.00044379676  0              0             -193.07821      107.90151     -494.12172      0             -215.6637       0              0              9.5289346      9.7146689      0.2            92.570444    
     16200   0.22628685     0.00027388287  0.00027388287  0              0             -207.99175      105.68665     -521.73452      0             -284.39622      0              0              9.5279661      9.7083403      0.2            92.500737    
     16300   0.19638716     0.00033775833  0.00033775833  0              0             -309.46611     -156.86317     -462.15101      0              1.3443426      0              0              9.5269977      9.712652       0.2            92.532414    
     16400   0.19550883     0.00036658541  0.00036658541  0              0              195.40252      711.69261     -320.97601      0              201.66409      0              0              9.5260293      9.7093205      0.2            92.491271    
     16500   0.17159987     0.00040992949  0.00040992949  0              0             -107.46459     -79.330388     -135.66686      0             -206.64578      0              0              9.5250609      9.6987601      0.2            92.381281    
     16600   0.25651148     0.00022798879  0.00022798879  0              0              91.449826      139.53454      43.288777      0             -249.72084      0              0              9.5240924      9.693948       0.2            92.326057    
     16700   0.22639823     0.00040371162  0.00040371162  0              0              237.16662      257.73007      216.55794      0              36.2218        0              0              9.523124       9.6990081      0.2            92.364857    
     16800   0.20418021     0.00037163435  0.00037163435  0              0              481.83435      598.29993      365.29525      0              228.84811      0              0              9.5221556      9.7030341      0.2            92.3938      
     16900   0.21949605     0.00042373117  0.00042373117  0              0              308.47904      157.33703      459.55085      0              198.74711      0              0              9.5211872      9.6935465      0.2            92.29407     
     17000   0.21693269     0.0003028875   0.0003028875   0              0              386.98248      311.0632       462.84945      0             -86.465219      0              0              9.5202187      9.6888554      0.2            92.240023    
     17100   0.30705804     0.00039042645  0.00039042645  0              0              278.05019      141.62983      414.39643      0             -61.707251      0              0              9.5192503      9.6912763      0.2            92.253685    
     17200   0.29604896     0.00041766807  0.00041766807  0              0              198.5225       67.582057      329.36637      0             -457.1557       0              0              9.5182819      9.6889353      0.2            92.222018    
     17300   0.27093157     0.00048397065  0.00048397065  0              0              19.567951     -104.3475       143.39374      0              67.442668      0              0              9.5173135      9.6849392      0.2            92.174603    
     17400   0.21743293     0.00038828641  0.00038828641  0              0             -288.09862     -578.0955       1.8354801      0             -126.2831       0              0              9.516345       9.6903834      0.2            92.217032    
     17500   0.19518865     0.00040820959  0.00040820959  0              0              2.3355136      160.03695     -155.44374      0             -38.138112      0              0              9.5153766      9.6953161      0.2            92.254584    
     17600   0.24218211     0.00043294331  0.00043294331  0              0             -47.416652      157.93677     -252.83943      0              268.22253      0              0              9.5144082      9.689851       0.2            92.193198    
     17700   0.23534314     0.00041951745  0.00041951745  0              0             -337.50253     -359.78131     -315.31143      0              504.97147      0              0              9.5134398      9.6916639      0.2            92.201061    
     17800   0.17041684     0.00033783694  0.00033783694  0              0             -44.8384        262.00818     -351.78         0             -383.93558      0              0              9.5124713      9.6962596      0.2            92.235392    
     17900   0.23328666     0.00032613268  0.00032613268  0              0             -347.73929     -376.53305     -319.0279       0             -90.636034      0              0              9.5115029      9.690514       0.2            92.171353    
     18000   0.15192425     0.00034691067  0.00034691067  0              0             -424.58194     -566.1907      -283.04406      0             -10.110485      0              0              9.5105345      9.7030131      0.2            92.280841    
     18100   0.20359662     0.0004240472   0.0004240472   0              0             -5.0260901      205.09851     -215.20538      0             -317.84941      0              0              9.5095661      9.7023778      0.2            92.265403    
     18200   0.25028057     0.00028261539  0.00028261539  0              0             -210.70216     -264.06105     -157.40425      0             -105.32382      0              0              9.5085976      9.6926928      0.2            92.163916    
     18300   0.29632436     0.0003343113   0.0003343113   0              0             -126.61836     -248.68749     -4.6268897      0             -429.60073      0              0              9.5076292      9.6891955      0.2            92.121278    
     18400   0.1157295      0.0003746383   0.0003746383   0              0              232.36517      381.83737      82.82201       0             -413.77469      0              0              9.5066608      9.6893926      0.2            92.113769    
     18500   0.16474286     0.00026457454  0.00026457454  0              0              31.593683     -93.390388      156.51562      0              141.33206      0              0              9.5056924      9.6824692      0.2            92.038574    
     18600   0.26164478     0.00044053184  0.00044053184  0              0              130.9183       24.785072      236.95219      0              311.074        0              0              9.5047239      9.6861476      0.2            92.064159    
     18700   0.16301023     0.0004492092   0.0004492092   0              0              197.47766      62.110214      332.76529      0              113.41796      0              0              9.5037555      9.6793104      0.2            91.9898      
     18800   0.26019994     0.00044999621  0.00044999621  0              0              34.546103     -295.21909      364.22899      0              677.85269      0              0              9.5027871      9.6736238      0.2            91.926387    
     18900   0.16838286     0.0004905349   0.0004905349   0              0              120.92026     -110.75937      352.52922      0              612.4326       0              0              9.5018187      9.6791092      0.2            91.969141    
     19000   0.20553595     0.00046442137  0.00046442137  0              0              222.41524      178.86307      265.88787      0              638.13691      0              0              9.5008502      9.6921344      0.2            92.083517    
     19100   0.28009499     0.00036214215  0.00036214215  0              0              277.04481      346.72663      207.28575      0              135.85374      0              0              9.4998818      9.6941638      0.2            92.09341     
     19200   0.18764289     0.00035110831  0.00035110831  0              0              384.32726      651.69706      116.88514      0              233.1814       0              0              9.4989134      9.6912919      0.2            92.056742    
     19300   0.2407135      0.00059265142  0.00059265142  0              0              155.27851      297.8044       12.670354      0             -63.222583      0              0              9.497945       9.6896111      0.2            92.031393    
     19400   0.25854906     0.00031079093  0.00031079093  0              0              80.144719      179.84293     -19.624315      0              360.23359      0              0              9.4969765      9.6926172      0.2            92.050559    
     19500   0.28814613     0.00033105767  0.00033105767  0              0             -264.36355     -399.03955     -129.77609      0              91.402397      0              0              9.4960081      9.6985241      0.2            92.097264    
     19600   0.20434017     0.00049483293  0.00049483293  0              0              34.394123      271.21711     -202.4806       0              382.37122      0              0              9.4950397      9.6959216      0.2            92.06316     
     19700   0.17274678     0.00044217829  0.00044217829  0              0             -110.64519      22.102432     -243.46338      0              232.9898       0              0              9.4940713      9.6884182      0.2            91.982533    
     19800   0.19643723     0.00035529121  0.00035529121  0              0             -17.67326       183.44859     -218.86849      0              100.96211      0              0              9.4931028      9.6958917      0.2            92.044097    
     19900   0.22874381     0.00044322025  0.00044322025  0              0             -15.314948      85.592075     -116.29469      0             -477.86148      0              0              9.4921344      9.6956494      0.2            92.032408    
     20000   0.22904574     0.00039642937  0.00039642937  0              0             -263.0449      -470.62158     -55.527316      0             -515.15559      0              0              9.491166       9.6874724      0.2            91.945409    
     20100   0.21356101     0.0004791096   0.0004791096   0              0              56.68281       19.810811      93.466553      0             -132.58182      0              0              9.4901976      9.6892917      0.2            91.953293    
     20200   0.2074699      0.00037520282  0.00037520282  0              0             -140.11112     -376.49029      96.194972      0              22.782081      0              0              9.4892291      9.6913124      0.2            91.963084    
     20300   0.21105092     0.00031068249  0.00031068249  0              0              131.12243      182.12572      80.011784      0             -55.538277      0              0              9.4882607      9.6947641      0.2            91.986449    
     20400   0.19517299     0.00037286385  0.00037286385  0              0             -110.1331      -244.29638      23.966519      0              135.57466      0              0              9.4872923      9.6951667      0.2            91.980881    
     20500   0.2261028      0.00047893481  0.00047893481  0              0             -329.59679     -690.33479      31.067754      0             -276.76634      0              0              9.4863239      9.688346       0.2            91.906788    
     20600   0.1598759      0.00039949246  0.00039949246  0              0              36.703754      83.0773       -9.7510276      0             -153.89094      0              0              9.4853554      9.6886501      0.2            91.90029     
     20700   0.20539011     0.00027590249  0.00027590249  0              0              182.80305      408.2853      -42.729873      0              155.90924      0              0              9.484387       9.6971937      0.2            91.971938    
     20800   0.10635397     0.00044911553  0.00044911553  0              0             -94.258369     -122.97644     -65.622165      0              288.33097      0              0              9.4834186      9.7045523      0.2            92.032332    
     20900   0.28187267     0.00035081388  0.00035081388  0              0             -273.9296      -469.09915     -78.845713      0              154.70486      0              0              9.4824502      9.7011216      0.2            91.990403    
     21000   0.15140521     0.00031390342  0.00031390342  0              0             -298.09733     -468.64229     -127.63704      0             -213.81819      0              0              9.4814817      9.7065308      0.2            92.032295    
     21100   0.23122827     0.00030161772  0.00030161772  0              0             -217.44846     -353.81078     -81.142496      0              270.4978       0              0              9.4805133      9.6990813      0.2            91.952269    
     21200   0.20619123     0.00027032932  0.00027032932  0              0              318.8213       735.53898     -97.964272      0              242.30677      0              0              9.4795449      9.7016807      0.2            91.967517    
     21300   0.20845484     0.00036658249  0.00036658249  0              0              181.05921      471.27749     -109.22976      0             -486.5854       0              0              9.4785765      9.7058713      0.2            91.997843    
     21400   0.18312864     0.0003035416   0.0003035416   0              0              234.96085      546.29946     -76.434318      0             -82.501847      0              0              9.477608       9.6986806      0.2            91.920294    
     21500   0.22010198     0.00027223714  0.00027223714  0              0             -144.36204     -234.00654     -54.794997      0              0.19860852     0              0              9.4766396      9.687647       0.2            91.806339    
     21600   0.28550358     0.00052843942  0.00052843942  0              0             -148.56046     -231.7803      -65.42807       0              277.3019       0              0              9.4756712      9.7059129      0.2            91.97004     
     21700   0.11280917     0.00046444595  0.00046444595  0              0              261.90336      559.23051     -35.494921      0              22.00239       0              0              9.4747028      9.6914694      0.2            91.823792    
     21800   0.28996509     0.00037685664  0.00037685664  0              0              33.523568      114.65303     -47.688535      0              360.62042      0              0              9.4737343      9.7056963      0.2            91.949188    
     21900   0.17242835     0.00032311902  0.00032311902  0              0             -97.83528      -153.72289     -42.041262      0              16.207287      0              0              9.4727659      9.7005001      0.2            91.890566    
     22000   0.20355006     0.00051708723  0.00051708723  0              0             -84.007781     -154.83069     -13.272282      0             -29.667787      0              0              9.4717975      9.6898961      0.2            91.780734    
     22100   0.24450119     0.0003076424   0.0003076424   0              0             -230.28207     -403.02916     -57.633586      0             -267.08777      0              0              9.4708291      9.6919183      0.2            91.790501    
     22200   0.23721963     0.00032173674  0.00032173674  0              0             -84.740962     -93.396317     -76.134422      0             -186.33615      0              0              9.4698606      9.6862696      0.2            91.727623    
     22300   0.33570292     0.00030678699  0.00030678699  0              0             -460.43292     -796.77482     -124.17106      0              184.6223       0              0              9.4688922      9.6903422      0.2            91.756805    
     22400   0.25999165     0.00050013374  0.00050013374  0              0              54.243639      170.89589     -62.462524      0              436.07429      0              0              9.4679238      9.6949968      0.2            91.791491    
     22500   0.23967996     0.00039786686  0.00039786686  0              0             -75.99846      -118.96485     -33.093163      0              52.14214       0              0              9.4669554      9.6897592      0.2            91.732518    
     22600   0.13813683     0.00037099347  0.00037099347  0              0              425.65692      860.28156     -9.052669       0             -339.64412      0              0              9.4659869      9.6871398      0.2            91.698338    
     22700   0.14559221     0.00040008731  0.00040008731  0              0              168.13519      294.10681      42.092098      0             -671.08647      0              0              9.4650185      9.6918921      0.2            91.733939    
     22800   0.17521827     0.00029838495  0.00029838495  0              0             -351.6067      -740.78322      37.484243      0             -0.77976854     0              0              9.4640501      9.6879126      0.2            91.68689     
     22900   0.15534055     0.00025225373  0.00025225373  0              0             -71.069686     -194.40371      52.184168      0              187.01326      0              0              9.4630817      9.6939822      0.2            91.734945    
     23000   0.22766768     0.0005247687   0.0005247687   0              0              442.64575      814.70543      70.521824      0              45.269637      0              0              9.4621132      9.7032758      0.2            91.813494    
     23100   0.16935971     0.00042952034  0.00042952034  0              0              470.92603      883.97054      57.817716      0             -214.98074      0              0              9.4611448      9.70408        0.2            91.811707    
     23200   0.14937595     0.00032432945  0.00032432945  0              0             -26.155938     -64.823676      12.444387      0             -174.52484      0              0              9.4601764      9.7023678      0.2            91.786111    
     23300   0.28549939     0.00052269859  0.00052269859  0              0              22.227021      65.013805     -20.650907      0             -11.570093      0              0              9.459208       9.6952938      0.2            91.709801    
     23400   0.22732178     0.000389362    0.000389362    0              0              41.358213      111.26401     -28.609845      0             -209.46244      0              0              9.4582395      9.6998939      0.2            91.74392     
     23500   0.14496474     0.00045323901  0.00045323901  0              0             -100.09188     -147.45315     -52.823922      0             -278.04455      0              0              9.4572711      9.6970524      0.2            91.707653    
     23600   0.19290279     0.00040600138  0.00040600138  0              0             -7.8420064      111.66985     -127.40853      0              123.57368      0              0              9.4563027      9.7032239      0.2            91.756622    
     23700   0.22128703     0.00029610974  0.00029610974  0              0             -149.58367     -124.07794     -175.15645      0              79.742699      0              0              9.4553343      9.7046522      0.2            91.760731    
     23800   0.21287776     0.00040909667  0.00040909667  0              0             -55.654085      56.425177     -167.83829      0             -403.62435      0              0              9.4543658      9.7039735      0.2            91.744916    
     23900   0.27618452     0.00032686756  0.00032686756  0              0              16.419002      203.43192     -170.68334      0             -156.21734      0              0              9.4533974      9.6931029      0.2            91.632754    
     24000   0.15228772     0.00047398114  0.00047398114  0              0             -207.99614     -317.35301     -98.716276      0              281.58723      0              0              9.452429       9.7017772      0.2            91.70536     
     24100   0.22693419     0.00036545083  0.00036545083  0              0              63.731517      132.87091     -5.4686594      0             -196.55214      0              0              9.4514606      9.7063827      0.2            91.739493    
     24200   0.22711833     0.00024526967  0.00024526967  0              0              243.2479       358.61945      127.80437      0             -261.38272      0              0              9.4504921      9.7001881      0.2            91.671552    
     24300   0.25868012     0.00040511578  0.00040511578  0              0              359.49326      451.84028      267.06995      0             -172.33327      0              0              9.4495237      9.7074111      0.2            91.730411    
     24400   0.22197467     0.00050994103  0.00050994103  0              0              80.6123       -252.73095      413.87685      0              39.793786      0              0              9.4485553      9.7091475      0.2            91.737417    
     24500   0.18902443     0.00039854741  0.00039854741  0              0              802.0105       1113.3028      490.62771      0              27.052306      0              0              9.4475869      9.6961704      0.2            91.605412    
     24600   0.16890905     0.0004963083   0.0004963083   0              0              421.79886      377.39128      466.11352      0              160.24417      0              0              9.4466184      9.7103025      0.2            91.729523    
     24700   0.13105643     0.0005027065   0.0005027065   0              0              721.14813      1091.8534      350.35166      0             -140.70342      0              0              9.44565        9.7048918      0.2            91.669011    
     24800   0.19439123     0.00033367412  0.00033367412  0              0              93.772962      69.651503      117.82564      0              137.87876      0              0              9.4446816      9.689928       0.2            91.518285    
     24900   0.22417278     0.00045029097  0.00045029097  0              0             -99.279396     -116.27264     -82.359907      0              433.98918      0              0              9.4437132      9.7085125      0.2            91.684407    
     25000   0.21193495     0.00037481557  0.00037481557  0              0             -495.6883      -652.19422     -339.25239      0             -361.86924      0              0              9.4427447      9.7026597      0.2            91.619739    
     25100   0.16502842     0.000354349    0.000354349    0              0             -280.94094     -67.388694     -494.56245      0             -55.051245      0              0              9.4417763      9.7094051      0.2            91.674031    
     25200   0.13539474     0.00035279183  0.00035279183  0              0             -643.42688     -695.58963     -591.32332      0              123.22796      0              0              9.4408079      9.7105376      0.2            91.67532     
     25300   0.26822843     0.0003124641   0.0003124641   0              0             -246.67086      129.35548     -622.78411      0              61.908419      0              0              9.4398395      9.699627       0.2            91.562921    
     25400   0.17756457     0.00035934604  0.00035934604  0              0             -388.84397     -339.64672     -438.14446      0             -450.06972      0              0              9.438871       9.7050157      0.2            91.604391    
     25500   0.20398815     0.00030410638  0.00030410638  0              0             -511.53726     -858.06801     -165.09598      0             -4.2957858      0              0              9.4379026      9.701979       0.2            91.566333    
     25600   0.20718479     0.00053078615  0.00053078615  0              0             -190.44393     -509.02139      128.06595      0              120.25216      0              0              9.4369342      9.691327       0.2            91.456415    
     25700   0.22129899     0.00041163937  0.00041163937  0              0              220.79851      95.610973      345.9188       0             -250.29752      0              0              9.4359658      9.6952081      0.2            91.483652    
     25800   0.16937076     0.00050792614  0.00050792614  0              0              414.10455      304.08519      524.04777      0             -145.65401      0              0              9.4349973      9.6963797      0.2            91.485317    
     25900   0.25928471     0.00032938697  0.00032938697  0              0              461.86604      314.07205      609.58308      0             -323.42877      0              0              9.4340289      9.7021156      0.2            91.530039    
     26000   0.18194728     0.00042934236  0.00042934236  0              0              676.66086      856.68594      496.57045      0             -252.36413      0              0              9.4330605      9.6954985      0.2            91.458224    
     26100   0.14382672     0.0006658457   0.0006658457   0              0              267.28152      262.80101      271.67776      0             -294.86604      0              0              9.4320921      9.6957088      0.2            91.450818    
     26200   0.21166042     0.00035722202  0.00035722202  0              0              143.76601      308.74776     -21.283522      0              103.32958      0              0              9.4311236      9.707043       0.2            91.548323    
     26300   0.16715126     0.00036085981  0.00036085981  0              0             -446.52966     -603.60852     -289.51832      0              287.88255      0              0              9.4301552      9.706361       0.2            91.532491    
     26400   0.27716555     0.00039815073  0.00039815073  0              0             -209.70811     -56.671362     -362.83804      0             -119.88224      0              0              9.4291868      9.7088935      0.2            91.546971    
     26500   0.23395687     0.00037400706  0.00037400706  0              0             -155.43834      118.80973     -429.76251      0              119.00537      0              0              9.4282184      9.7031042      0.2            91.482985    
     26600   0.22778523     0.00050094236  0.00050094236  0              0             -298.62154     -173.91897     -423.40784      0             -330.22791      0              0              9.4272499      9.7108639      0.2            91.546741    
     26700   0.15657374     0.00049329092  0.00049329092  0              0             -65.109017      182.97838     -313.25696      0             -279.70543      0              0              9.4262815      9.7129841      0.2            91.557323    
     26800   0.20213135     0.00063967133  0.00063967133  0              0              121.14168      421.64449     -179.43667      0              26.382647      0              0              9.4253131      9.7130136      0.2            91.548194    
     26900   0.20716758     0.00039404727  0.00039404727  0              0             -385.14212     -711.58332     -58.787737      0              83.453824      0              0              9.4243447      9.7095034      0.2            91.505707    
     27000   0.20048501     0.00050689295  0.00050689295  0              0              5.4047011     -15.666868      26.395061      0              141.69763      0              0              9.4233762      9.7003862      0.2            91.410388    
     27100   0.2852266      0.00039078434  0.00039078434  0              0              59.007089     -33.751647      151.68026      0             -69.793284      0              0              9.4224078      9.6931485      0.2            91.332798    
     27200   0.1762215      0.0005748787   0.0005748787   0              0             -359.05482     -897.81568      179.62534      0             -313.21379      0              0              9.4214394      9.6876111      0.2            91.271241    
     27300   0.24180317     0.00045921692  0.00045921692  0              0              168.94222      100.59688      237.2121       0             -21.629826      0              0              9.420471       9.69785        0.2            91.358315    
     27400   0.25759078     0.0005504343   0.0005504343   0              0              394.66245      564.97387      224.28156      0              84.864806      0              0              9.4195025      9.6979161      0.2            91.349546    
     27500   0.25601392     0.00046931306  0.00046931306  0              0              69.078075     -99.202199      237.29331      0              345.75534      0              0              9.4185341      9.6882003      0.2            91.248645    
     27600   0.24003788     0.00043311098  0.00043311098  0              0              369.79294      602.16839      137.33888      0              58.444027      0              0              9.4175657      9.6936799      0.2            91.290867    
     27700   0.15276935     0.00053268926  0.00053268926  0              0              260.96336      478.02707      43.794877      0              458.8994       0              0              9.4165973      9.687475       0.2            91.223051    
     27800   0.26561122     0.00043170615  0.00043170615  0              0             -24.663116      42.421465     -91.8259        0              246.98336      0              0              9.4156288      9.6869894      0.2            91.209097    
[...]
     42800   0.22323183     0.00039826294  0.00039826294  0              0             -312.01548     -358.52879     -265.57926      0             -521.21992      0              0              9.2703651      9.68637        0.2            89.796186    
     42900   0.23675058     0.00025510037  0.00025510037  0              0             -500.17203     -617.01706     -383.4182       0             -243.86031      0              0              9.2693967      9.693571       0.2            89.853554    
     43000   0.29836797     0.00044774973  0.00044774973  0              0             -217.96286      25.182118     -461.16989      0             -403.8849       0              0              9.2684282      9.7048001      0.2            89.948243    
     43100   0.21743625     0.00047460132  0.00047460132  0              0             -456.57673     -456.05821     -457.19139      0              271.06122      0              0              9.2674598      9.6978758      0.2            89.874674    
     43200   0.22538917     0.00044011548  0.00044011548  0              0             -500.33036     -606.10485     -394.61138      0             -28.597234      0              0              9.2664914      9.695893       0.2            89.846909    
     43300   0.14779627     0.00041467921  0.00041467921  0              0             -206.04592     -74.793619     -337.3799       0              10.305958      0              0              9.265523       9.6949279      0.2            89.828577    
     43400   0.10882979     0.0004281542   0.0004281542   0              0              25.511489      214.43718     -163.48075      0             -399.16902      0              0              9.2645545      9.6977551      0.2            89.845381    
     43500   0.22176568     0.0003749224   0.0003749224   0              0             -415.95844     -856.43406      24.449671      0             -89.758929      0              0              9.2635861      9.6959915      0.2            89.819652    
     43600   0.22613235     0.00034526127  0.00034526127  0              0             -129.62367     -443.54204      184.21034      0              280.75395      0              0              9.2626177      9.6903404      0.2            89.757919    
     43700   0.14185961     0.00036929171  0.00036929171  0              0              286.83995      314.66606      258.94778      0              70.415112      0              0              9.2616493      9.6944001      0.2            89.786133    
     43800   0.17606833     0.00041400875  0.00041400875  0              0              367.05738      381.76976      352.27355      0             -18.945123      0              0              9.2606808      9.6981739      0.2            89.811693    
     43900   0.24753599     0.00037789544  0.00037789544  0              0              140.93135     -126.20328      407.97896      0              227.90346      0              0              9.2597124      9.6795418      0.2            89.629774    
     44000   0.21803436     0.00043047881  0.00043047881  0              0              97.735692     -146.17878      341.58911      0              471.17974      0              0              9.258744       9.6830235      0.2            89.652636    
     44100   0.17829496     0.00043849917  0.00043849917  0              0              226.72987      207.80125      245.59149      0             -2.9854568      0              0              9.2577756      9.6934111      0.2            89.739424    
     44200   0.23932315     0.00045754149  0.00045754149  0              0              572.51346      977.98463      166.96763      0              5.81818        0              0              9.2568071      9.6931865      0.2            89.727958    
     44300   0.1690957      0.00053824475  0.00053824475  0              0              75.37649       77.082302      73.60521       0             -162.24116      0              0              9.2558387      9.6921912      0.2            89.709358    
     44400   0.34263898     0.00037679853  0.00037679853  0              0             -225.21226     -388.67895     -61.831382      0             -674.608        0              0              9.2548703      9.6890531      0.2            89.67093     
     44500   0.22202124     0.0004402724   0.0004402724   0              0             -136.19794     -82.038117     -190.42237      0             -63.173966      0              0              9.2539019      9.6863254      0.2            89.636304    
     44600   0.083660596    0.00044623492  0.00044623492  0              0              1.9743095      276.20281     -272.31217      0              562.02876      0              0              9.2529334      9.6828284      0.2            89.594567    
     44700   0.18865677     0.00039497464  0.00039497464  0              0             -227.8395      -84.34764      -371.42193      0             -25.401608      0              0              9.251965       9.6953675      0.2            89.701201    
     44800   0.22688955     0.000272616    0.000272616    0              0             -213.79528      6.3996561     -434.05391      0             -107.02899      0              0              9.2509966      9.6986662      0.2            89.722328    
     44900   0.19732955     0.00031234266  0.00031234266  0              0             -139.93848      173.27758     -453.21696      0             -265.42758      0              0              9.2500282      9.6918205      0.2            89.649613    
     45000   0.17785823     0.00044966992  0.00044966992  0              0             -329.67502     -368.41017     -291.00789      0             -554.4433       0              0              9.2490597      9.6936235      0.2            89.656903    
     45100   0.24696733     0.00051801     0.00051801     0              0             -184.06335     -230.56157     -137.65994      0             -398.04141      0              0              9.2480913      9.6905363      0.2            89.618965    
     45200   0.28386216     0.00043548132  0.00043548132  0              0             -30.85114      -51.109725     -10.637814      0             -288.43872      0              0              9.2471229      9.6973396      0.2            89.672491    
     45300   0.18533148     0.00048856344  0.00048856344  0              0             -146.64483     -414.83865      121.47779      0              354.83233      0              0              9.2461545      9.6942209      0.2            89.634263    
     45400   0.29077373     0.00034860178  0.00034860178  0              0             -225.12706     -723.77368      273.44133      0             -40.154053      0              0              9.245186       9.6905462      0.2            89.590902    
     45500   0.1972775      0.00032233182  0.00032233182  0              0              549.04892      725.90008      372.12288      0             -409.34757      0              0              9.2442176      9.683785       0.2            89.519016    
     45600   0.17300581     0.00041409581  0.00041409581  0              0              307.8353       182.37608      433.21802      0             -460.08877      0              0              9.2432492      9.68468        0.2            89.51791     
     45700   0.21385153     0.00036871544  0.00036871544  0              0              207.71059      6.2554799      409.09429      0             -322.74085      0              0              9.2422808      9.6806002      0.2            89.470825    
     45800   0.23351709     0.00052560951  0.00052560951  0              0              7.131756      -358.88604      373.06891      0              401.8834       0              0              9.2413123      9.6975146      0.2            89.617761    
     45900   0.21345648     0.00039474039  0.00039474039  0              0              449.90809      596.48353      303.24729      0             -379.0348       0              0              9.2403439      9.702891       0.2            89.65805     
     46000   0.19262269     0.00039484097  0.00039484097  0              0              109.02548     -5.9715393      223.94969      0             -315.25815      0              0              9.2393755      9.6979359      0.2            89.602871    
     46100   0.19794506     0.00034008086  0.00034008086  0              0              335.26688      526.85501      143.61817      0              55.601985      0              0              9.2384071      9.6932861      0.2            89.550522    
     46200   0.23747685     0.0002923588   0.0002923588   0              0              44.766536      162.53652     -73.083587      0             -49.489961      0              0              9.2374386      9.6952401      0.2            89.559185    
     46300   0.2305397      0.00029141555  0.00029141555  0              0             -237.77321     -244.10058     -231.49143      0             -128.0225       0              0              9.2364702      9.7166743      0.2            89.747773    
     46400   0.25416402     0.00044310116  0.00044310116  0              0             -202.37807     -19.911305     -384.91504      0             -58.178796      0              0              9.2355018      9.7051088      0.2            89.631549    
     46500   0.30574455     0.00044380815  0.00044380815  0              0             -171.20832      146.27749     -488.77886      0             -149.66004      0              0              9.2345334      9.7044239      0.2            89.615826    
     46600   0.2136095      0.0003592219   0.0003592219   0              0             -295.52639     -21.722121     -569.40772      0              345.99791      0              0              9.2335649      9.7103719      0.2            89.661349    
     46700   0.23856487     0.00060133269  0.00060133269  0              0             -441.42281     -332.82425     -550.08457      0             -528.44119      0              0              9.2325965      9.7104407      0.2            89.652581    
     46800   0.27852077     0.00029765326  0.00029765326  0              0              110.22347      730.46542     -510.11372      0             -510.46601      0              0              9.2316281      9.7019681      0.2            89.564961    
     46900   0.14442404     0.00041760015  0.00041760015  0              0             -121.49967      149.76923     -392.83966      0             -206.43599      0              0              9.2306597      9.7036553      0.2            89.571139    
     47000   0.24312364     0.00040982578  0.00040982578  0              0             -85.922409      45.170718     -217.09737      0             -10.364895      0              0              9.2296912      9.696882       0.2            89.499227    
     47100   0.24042264     0.00042173325  0.00042173325  0              0             -64.182658     -42.840555     -85.590489      0             -194.01586      0              0              9.2287228      9.7010185      0.2            89.528011    
     47200   0.12328149     0.00037883253  0.00037883253  0              0             -95.697169     -331.74619      140.30133      0             -91.338705      0              0              9.2277544      9.6928509      0.2            89.443248    
     47300   0.18140431     0.00033062457  0.00033062457  0              0             -100.967       -528.55422      326.54821      0              222.797        0              0              9.226786       9.6967277      0.2            89.469631    
     47400   0.161263       0.00040748793  0.00040748793  0              0             -103.28625     -639.9434       433.26767      0             -18.719144      0              0              9.2258175      9.687051       0.2            89.370965    
     47500   0.17019609     0.00046525846  0.00046525846  0              0              379.32227      263.31745      495.26693      0             -434.3903       0              0              9.2248491      9.6794974      0.2            89.291903    
     47600   0.21719602     0.00046561954  0.00046561954  0              0              63.140467     -325.5929       451.79381      0             -260.67818      0              0              9.2238807      9.6715157      0.2            89.208907    
     47700   0.20884614     0.00042620797  0.00042620797  0              0             -198.78936     -807.56206      409.91853      0              255.791        0              0              9.2229123      9.6846573      0.2            89.320744    
     47800   0.17651765     0.00039591622  0.00039591622  0              0             -148.68608     -640.18383      342.73345      0              169.91134      0              0              9.2219438      9.6693859      0.2            89.170534    
     47900   0.15894096     0.00032809112  0.00032809112  0              0             -6.3046749     -286.3776       273.70597      0              150.61356      0              0              9.2209754      9.6751581      0.2            89.214395    
     48000   0.16114512     0.00029283188  0.00029283188  0              0              4.2319332     -133.51367      141.90781      0              198.876        0              0              9.220007       9.6931649      0.2            89.371048    
     48100   0.15009956     0.00036504475  0.00036504475  0              0             -24.841426     -87.666371      37.911812      0              136.91639      0              0              9.2190386      9.6864604      0.2            89.299852    
     48200   0.23971014     0.00041176602  0.00041176602  0              0              170.5506       377.48694     -36.47175       0             -200.53252      0              0              9.2180701      9.6779082      0.2            89.211636    
     48300   0.15376113     0.00031041187  0.00031041187  0              0             -81.081835     -98.597591     -63.657874      0              53.585127      0              0              9.2171017      9.6832268      0.2            89.251286    
     48400   0.22658744     0.0002965634   0.0002965634   0              0             -232.44734     -288.35333     -176.6154       0             -225.93315      0              0              9.2161333      9.6929406      0.2            89.331432    
     48500   0.18367508     0.00020535983  0.00020535983  0              0             -178.19019     -90.717766     -265.75092      0              293.54014      0              0              9.2151649      9.6901083      0.2            89.295945    
     48600   0.17805294     0.00027752018  0.00027752018  0              0             -280.19615     -267.1001      -293.36214      0              155.05801      0              0              9.2141964      9.696009       0.2            89.340932    
     48700   0.17675612     0.00037789175  0.00037789175  0              0             -443.01779     -587.30353     -298.79439      0              486.90282      0              0              9.213228       9.6933758      0.2            89.307281    
     48800   0.13184248     0.00046170605  0.00046170605  0              0             -102.97663      43.939148     -249.97908      0              251.76593      0              0              9.2122596      9.6922641      0.2            89.287652    
     48900   0.17201855     0.00038595072  0.00038595072  0              0              149.96053      475.57546     -175.74754      0             -140.88837      0              0              9.2112912      9.7009067      0.2            89.357876    
     49000   0.15505275     0.00033358525  0.00033358525  0              0             -171.40617     -239.17713     -103.70203      0             -133.22133      0              0              9.2103227      9.7017697      0.2            89.35643     
     49100   0.13931713     0.00046063258  0.00046063258  0              0              74.250553      231.44155     -83.02849       0             -363.1414       0              0              9.2093543      9.6995146      0.2            89.326266    
     49200   0.27701853     0.00040380769  0.00040380769  0              0              142.3017       296.35275     -11.835971      0             -336.09214      0              0              9.2083859      9.6999979      0.2            89.321324    
     49300   0.18692407     0.00035435312  0.00035435312  0              0              188.34591      253.19656      123.42355      0             -8.0017483      0              0              9.2074175      9.6989651      0.2            89.302421    
     49400   0.16569457     0.00049237345  0.00049237345  0              0              469.70179      750.22687      189.10314      0             -268.82393      0              0              9.206449       9.6971071      0.2            89.275923    
     49500   0.22974696     0.00022801603  0.00022801603  0              0              20.425296     -184.60874      225.36657      0             -98.091172      0              0              9.2054806      9.6838713      0.2            89.14469     
     49600   0.26323723     0.00044517093  0.00044517093  0              0              135.79688      54.780163      216.76288      0             -178.89057      0              0              9.2045122      9.6910908      0.2            89.201763    
     49700   0.3384329      0.00044857522  0.00044857522  0              0              146.37951     -1.6551209      294.34894      0              243.6558       0              0              9.2035438      9.6826675      0.2            89.114854    
     49800   0.28296758     0.00045084422  0.00045084422  0              0             -53.477262     -384.68485      277.65334      0              137.44409      0              0              9.2025753      9.6775388      0.2            89.05828     
     49900   0.18804669     0.00043825595  0.00043825595  0              0              301.23715      320.89755      281.49041      0             -276.20174      0              0              9.2016069      9.6904392      0.2            89.167612    
     50000   0.2792154      0.00030650067  0.00030650067  0              0              11.849452     -196.29579      219.93205      0             -12.887542      0              0              9.2006385      9.6865256      0.2            89.122221    
     50062   0.24843952     0.00040837278  0.00040837278  0              0             -211.08231     -179.72609     -242.51532      0             -26.453056      0              0              9.2000381      9.6892532      0.2            89.141499    
Loop time of 0.554667 on 1 procs for 50000 steps with 24 atoms

Performance: 77884.628 ns/day, 0.000 hours/ns, 90144.245 timesteps/s
100.0% CPU use with 1 MPI tasks x 1 OpenMP threads

MPI task timing breakdown:
Section |  min time  |  avg time  |  max time  |%varavg| %total
---------------------------------------------------------------
Pair    | 0          | 0          | 0          |   0.0 |  0.00
Bond    | 0.068274   | 0.068274   | 0.068274   |   0.0 | 12.31
Neigh   | 0          | 0          | 0          |   0.0 |  0.00
Comm    | 0.1664     | 0.1664     | 0.1664     |   0.0 | 30.00
Output  | 0.0044695  | 0.0044695  | 0.0044695  |   0.0 |  0.81
Modify  | 0.29766    | 0.29766    | 0.29766    |   0.0 | 53.66
Other   |            | 0.01786    |            |       |  3.22

Nlocal:             24 ave          24 max          24 min
Histogram: 1 0 0 0 0 0 0 0 0 0
Nghost:            198 ave         198 max         198 min
Histogram: 1 0 0 0 0 0 0 0 0 0
Neighs:              0 ave           0 max           0 min
Histogram: 1 0 0 0 0 0 0 0 0 0

Total # of neighbors = 0
Ave neighs/atom = 0
Ave special neighs/atom = 16.833333
Neighbor list builds = 0
Dangerous builds = 0


Total wall time: 0:00:00
