LAMMPS data file.

     24 atoms
     49 bonds
      0 angles
      0 dihedrals
      0 impropers
      1 atom types
     49 bond types
      0 angle types
      0 dihedral types
      0 improper types
  -4.842125   4.842125 xlo xhi
  -4.842125   4.842125 ylo yhi
  -0.100000   0.100000 zlo zhi

Masses # ['atom_id', 'mass']

1 10000.0

Atoms # ['atomID', 'moleculeID', 'atomType', 'charge', 'x', 'y', 'z']

     16      1      1   0.000000  -3.601737  -4.286755   0.000000
     46      1      1   0.000000  -2.302239  -4.640396   0.000000
     10      1      1   0.000000  -0.978060  -4.652207   0.000000
     41      1      1   0.000000  -3.223624  -3.142865   0.000000
     21      1      1   0.000000  -2.375413  -3.610943   0.000000
      5      1      1   0.000000  -1.203511  -3.141569   0.000000
     74      1      1   0.000000  -1.719966  -4.201181   0.000000
     28      1      1   0.000000  -2.476600  -1.242092   0.000000
     37      1      1   0.000000  -2.372055  -2.465788   0.000000
      3      1      1   0.000000  -3.412008  -0.253952   0.000000
      1      1      1   0.000000  -1.672254  -0.210319   0.000000
     23      1      1   0.000000  -0.465935   0.348596   0.000000
     15      1      1   0.000000  -3.747887   1.018725   0.000000
     51      1      1   0.000000  -2.562784   0.588851   0.000000
      9      1      1   0.000000  -1.511223   1.314134   0.000000
     27      1      1   0.000000  -0.204040   1.455295   0.000000
     18      1      1   0.000000  -2.812298   1.992045   0.000000
     30      1      1   0.000000  -1.644909   2.668023   0.000000
     56      1      1   0.000000  -0.746616   2.276508   0.000000
     40      1      1   0.000000  -3.462679   3.028237   0.000000
     72      1      1   0.000000  -2.473527   3.007829   0.000000
     20      1      1   0.000000  -1.997240   3.848577   0.000000
      7      1      1   0.000000  -0.502504   3.432570   0.000000
     35      1      1   0.000000  -3.186011   4.044720   0.000000

Bond Coeffs # ['bondID', 'bondCoeff', 'd']

      1   0.499293   1.415214
      2   0.499293   1.415214
      3   0.425552   1.532935
      4   0.464607   1.467092
      5   0.662972   1.228153
      6   0.540129   1.360665
      7   0.612814   1.277426
      8   1.285360   0.882039
      9   0.698462   1.196544
     10   0.549528   1.348978
     11   0.578485   1.314783
     12   0.872156   1.070786
     13   0.716296   1.181555
     14   1.021620   0.989362
     15   0.415403   1.551547
     16   1.326526   0.868245
     17   0.668141   1.223393
     18   1.246765   0.895587
     19   0.698569   1.196453
     20   1.879868   0.729351
     21   1.065464   0.968792
     22   0.844878   1.087935
     23   0.529206   1.374635
     24   0.762549   1.145160
     25   0.409950   1.561833
     26   0.409950   1.561833
     27   0.577193   1.316253
     28   0.548794   1.349880
     29   0.661907   1.229140
     30   0.510050   1.400211
     31   0.627484   1.262405
     32   0.901078   1.053462
     33   0.658830   1.232008
     34   0.493854   1.422987
     35   1.032227   0.984266
     36   0.565742   1.329507
     37   0.540281   1.360473
     38   1.041434   0.979905
     39   0.688964   1.204763
     40   0.938853   1.032051
     41   0.657154   1.233577
     42   0.657154   1.233577
     43   0.629223   1.260659
     44   0.584273   1.308254
     45   0.688872   1.204844
     46   1.071002   0.966284
     47   0.428660   1.527368
     48   0.773172   1.137266
     49   0.548643   1.350066

Bonds # ['ID', 'type', 'atom1', 'atom2']

         1         1        16        35
         2         2        35        16
         3         3         1         9
         4         4         9        18
         5         5        28        37
         6         6        28         3
         7         7        51         9
         8         8        21        74
         9         9         1        51
        10        10        18        30
        11        11         9        27
        12        12        18        72
        13        13        56         7
        14        14        40        72
        15        15        20         7
        16        16        10        74
        17        17        18        40
        18        18        30        72
        19        19         3        51
        20        20        46        74
        21        21        41        21
        22        22        41        37
        23        23        30         7
        24        24        21        37
        25        25        20        10
        26        26        10        20
        27        27         3        15
        28        28         5        37
        29        29         9        56
        30        30        16        21
        31        31        21         5
        32        32        40        35
        33        33        30        20
        34        34        23         9
        35        35        27        56
        36        36         1        23
        37        37         9        30
        38        38        30        56
        39        39        16        41
        40        40        46        21
        41        41        46        20
        42        42        20        46
        43        43        15        51
        44        44        28         1
        45        45        20        35
        46        46        72        20
        47        47        10         5
        48        48        23        27
        49        49        15        18
