LAMMPS data file via write_data, version 23 Jun 2022, timestep = 10000

80 atoms
4 atom types

-4.820589548539514 4.820589548539514 xlo xhi
-4.820589548539514 4.820589548539514 ylo yhi
-0.1 0.1 zlo zhi

Atoms # sphere

78 4 0.7 2.915451895043732 -4.433593774021541 -4.348725222589961 0 1 1 0
8 1 1.6 0.2441406249999999 -2.5497654164610863 -3.6734146298239496 0 0 1 0
54 3 1 1 -1.2164011482571682 -4.621545676573863 0 0 0 0
57 3 1 1 0.02545355075206146 -3.222728487062554 0 0 0 0
45 3 1 1 -0.2833420559125761 -4.412589525104774 0 0 1 0
40 2 1.3 0.4551661356395083 0.8934417852457415 -4.081061037797839 0 0 0 0
29 2 1.3 0.4551661356395083 2.1262046974598228 -4.187592112055603 0 0 0 0
72 4 0.7 2.915451895043732 2.8403596298853158 -4.7326301299204365 0 -1 0 0
48 3 1 1 3.3013648393455313 -4.092586086063257 0 -1 1 0
42 3 1 1 4.177213655826609 -4.307315960306081 0 0 0 0
46 3 1 1 -4.682428904410489 -3.646831444845696 0 1 0 0
61 4 0.7 2.915451895043732 -3.7403876737001025 -2.777418087251699 0 0 0 0
41 3 1 1 -3.815408855944669 -3.621957968276548 0 0 0 0
47 3 1 1 -3.1370206255756585 -2.717882289568931 0 0 0 0
35 2 1.3 0.4551661356395083 -1.7041813691235097 -2.5949850188219954 0 0 0 0
25 2 1.3 0.4551661356395083 -1.1192144124341055 -3.5705302732103754 0 0 0 0
63 4 0.7 2.915451895043732 0.8037374841548148 -3.162659935762328 0 0 0 0
75 4 0.7 2.915451895043732 1.6497541038085997 -3.502682942728439 0 -1 0 0
55 3 1 1 2.692594230966158 -3.2647406827644962 0 -1 0 0
15 1 1.6 0.2441406249999999 3.7642813455211233 -3.025256814670609 0 -1 0 0
36 2 1.3 0.4551661356395083 -4.664967911298826 -2.5423296235459203 0 0 1 0
34 2 1.3 0.4551661356395083 -3.6883748506045766 -1.7758640802695496 0 0 0 0
38 2 1.3 0.4551661356395083 -2.5554187529951773 -1.9132355952118218 0 0 0 0
7 1 1.6 0.2441406249999999 -0.6371751985831526 -2.169516710666358 0 0 0 0
17 1 1.6 0.2441406249999999 1.6152942385298834 -2.4238685284728114 0 0 0 0
68 4 0.7 2.915451895043732 0.5244170146868408 -2.573886208261933 0 0 0 0
66 4 0.7 2.915451895043732 2.6283939626572046 -2.439433718351545 0 0 0 0
10 1 1.6 0.2441406249999999 3.5685807135367504 -1.730855157047976 0 -1 0 0
1 1 1.6 0.2441406249999999 -4.323016071049299 -0.5517878662107254 0 1 0 0
50 3 1 1 -3.1079886383270723 -0.8674563952480474 0 0 0 0
56 3 1 1 -1.565009776060049 -1.2586055037514488 0 0 0 0
14 1 1.6 0.2441406249999999 -0.5042290646025336 -0.7263256058356351 0 0 1 0
27 2 1.3 0.4551661356395083 0.5594911757739665 -1.6556025459140855 0 0 0 0
52 3 1 1 2.334938287675519 -1.6469409432428757 0 -1 0 0
30 2 1.3 0.4551661356395083 2.638909098513187 -0.6902242794487572 0 0 -1 0
49 3 1 1 4.744401314325987 -1.4931331722540904 0 0 0 0
65 4 0.7 2.915451895043732 -4.785673206519575 0.37943271434684966 0 1 0 0
33 2 1.3 0.4551661356395083 -3.2830839109081404 0.194382069161815 0 0 0 0
64 4 0.7 2.915451895043732 -2.2892559059551223 -1.0924726660942885 0 0 0 0
24 2 1.3 0.4551661356395083 -2.2629349505080656 -0.11707799514000161 0 0 0 0
26 2 1.3 0.4551661356395083 0.4507959875527927 0.586852508947036 0 0 0 0
11 1 1.6 0.2441406249999999 1.2390080610242338 -0.46003048973831895 0 0 0 0
31 2 1.3 0.4551661356395083 3.9805137697603996 -0.3530734772603994 0 0 0 0
53 3 1 1 -4.087615066997403 0.7339704340595121 0 1 0 0
44 3 1 1 -3.4824391886086143 1.2494442768799736 0 0 0 0
12 1 1.6 0.2441406249999999 -2.1997247298436915 1.3227299558403685 0 0 0 0
19 1 1.6 0.2441406249999999 -0.9828064399478875 0.4756598993054908 0 0 0 0
77 4 0.7 2.915451895043732 -0.2366092961127917 1.250291382661552 0 0 0 0
51 3 1 1 1.4659794955972867 0.6654614966598738 0 0 0 0
76 4 0.7 2.915451895043732 1.5054514294281072 1.4444621958971187 0 0 -1 0
3 1 1.6 0.2441406249999999 2.7552948288156465 0.7187767345498335 0 0 0 0
22 2 1.3 0.4551661356395083 4.112992849907053 0.8737222703893739 0 -1 -1 0
18 1 1.6 0.2441406249999999 -4.717168280903227 1.8773957637013066 0 1 0 0
32 2 1.3 0.4551661356395083 -3.3893137792891865 2.330286976089252 0 0 -1 0
74 4 0.7 2.915451895043732 -1.113933236144185 1.6967870718587692 0 0 0 0
71 4 0.7 2.915451895043732 -1.5934133002524256 2.025933192607492 0 0 0 0
5 1 1.6 0.2441406249999999 -0.7656062767001997 2.678692400573972 0 0 0 0
2 1 1.6 0.2441406249999999 0.5850311356964486 1.9154860312093263 0 0 0 0
13 1 1.6 0.2441406249999999 2.343977453193297 2.0421069230967337 0 0 0 0
79 4 0.7 2.915451895043732 3.633929294081746 1.747873672604067 0 0 0 0
62 4 0.7 2.915451895043732 3.3944873046884165 2.331216546269075 0 -1 0 0
70 4 0.7 2.915451895043732 3.9165113603857176 2.451925273938854 0 -1 0 0
21 2 1.3 0.4551661356395083 -4.015357082080391 3.5722567625042547 0 0 0 0
20 1 1.6 0.2441406249999999 -2.2656023503453184 2.800031123530067 0 1 0 0
59 3 1 1 -1.0427101987037743 3.7940109387447425 0 0 0 0
16 1 1.6 0.2441406249999999 0.1699388793467893 3.857086323652304 0 0 0 0
37 2 1.3 0.4551661356395083 1.2949888766424635 2.991748391846273 0 0 0 0
80 4 0.7 2.915451895043732 2.11097995660461 3.120653820741456 0 0 0 0
28 2 1.3 0.4551661356395083 3.147813691201744 3.227582831907821 0 0 0 0
60 3 1 1 4.089070300719904 3.4680228568420155 0 0 -1 0
58 3 1 1 4.68303541377065 3.0091460716034844 0 0 0 0
39 2 1.3 0.4551661356395083 4.757275582650186 4.388620714090816 0 0 0 0
9 1 1.6 0.2441406249999999 -3.5072164836090165 -4.765765655410184 0 0 0 0
43 3 1 1 -3.0360464970308856 3.725732767148724 0 0 -1 0
6 1 1.6 0.2441406249999999 -2.134860231590189 4.348938330379047 0 0 0 0
73 4 0.7 2.915451895043732 -0.6583243204505589 4.454120870885426 0 0 -1 0
69 4 0.7 2.915451895043732 0.3857522448237978 -4.69530468317925 0 0 1 0
67 4 0.7 2.915451895043732 0.8774699268636104 4.52327198726185 0 0 -1 0
4 1 1.6 0.2441406249999999 1.7901414294577265 4.141193316189664 0 0 0 0
23 2 1.3 0.4551661356395083 3.607900988050538 4.346661487828193 0 0 0 0

Velocities

78 0.04104567741181204 -0.060113745719187296 0 0 0 0
8 0.013613310456805769 0.1102959942097773 0 0 0 0
54 -0.1371162092909154 -0.0231211569293986 0 0 0 0
57 -0.09052971248888704 0.03126210036832894 0 0 0 0
45 0.09941624471593292 0.0980948790228411 0 0 0 0
40 0.04390190197081602 -0.005930482216705183 0 0 0 0
29 0.16594884542327784 -0.15189931648319224 0 0 0 0
72 -0.022933453556853566 -0.14213748902467205 0 0 0 0
48 -0.10410769065779368 0.10933901649719414 0 0 0 0
42 0.13338464891072763 0.12672386450504167 0 0 0 0
46 0.08828312471359044 -0.048640838510418366 0 0 0 0
61 0.12815296149863775 0.06815002010467829 0 0 0 0
41 0.04988964612659225 0.05543226344955664 0 0 0 0
47 0.04714116593308141 -0.0927281993525923 0 0 0 0
35 0.025426189527963692 -0.013613200627971715 0 0 0 0
25 -0.20308177017881485 -0.01437966818567588 0 0 0 0
63 -0.09271321293745886 0.06555317837039641 0 0 0 0
75 0.04951743531869566 -0.1585449378370712 0 0 0 0
55 0.03384650696834179 -0.12779155106528176 0 0 0 0
15 0.1341467077018743 0.12361147168275886 0 0 0 0
36 -0.07923746251198124 -0.05651720136820687 0 0 0 0
34 -0.04190171440667725 -0.022163816379706037 0 0 0 0
38 -0.004630246871876995 0.10987502382002988 0 0 0 0
7 0.07389361075628333 -0.14897718758316844 0 0 0 0
17 -0.028252935525496882 0.12058008612917127 0 0 0 0
68 -0.07621517325737777 0.12343225378413607 0 0 0 0
66 0.06435354001517554 0.027996324397988173 0 0 0 0
10 0.039699791558119625 0.09140681729673351 0 0 0 0
1 -0.12139520551951942 -0.06332110611131396 0 0 0 0
50 -0.02231087780745709 0.28143659811898997 0 0 0 0
56 0.07413365842338866 -0.13587307344089447 0 0 0 0
14 -0.05526249104117211 0.08240383427791799 0 0 0 0
27 -0.09324041967185026 -0.008369753824211297 0 0 0 0
52 0.023588955829281257 -0.028073871264158726 0 0 0 0
30 0.06989358539877806 -0.03146161923998851 0 0 0 0
49 -0.09085950667782922 -0.05393990126649618 0 0 0 0
65 -0.2894378043612157 0.1376860144150253 0 0 0 0
33 -0.1308260203100038 -0.054571717536705 0 0 0 0
64 -0.3075863629270972 -0.04401624106910734 0 0 0 0
24 0.011270891657656533 -0.12290945975649967 0 0 0 0
26 0.09662777719450254 -0.1480058004903857 0 0 0 0
11 0.1856947838004836 0.05293483349213056 0 0 0 0
31 0.08341881591632506 -0.01809687125452607 0 0 0 0
53 0.16215905263051297 0.05329066168777304 0 0 0 0
44 0.16175227420107735 0.135514376040011 0 0 0 0
12 0.14679504509798172 0.08977917452636694 0 0 0 0
19 -0.16602589478859103 -0.03152231207457616 0 0 0 0
77 -0.05788359288542268 0.06171219644916205 0 0 0 0
51 0.02229073155634797 -0.002437227285957581 0 0 0 0
76 0.008128662810157238 -0.18360639163645676 0 0 0 0
3 -0.02856413417077878 0.1175844548849352 0 0 0 0
22 0.08656075942153105 0.08042854284105816 0 0 0 0
18 0.0023731673836423113 -0.14040653397890296 0 0 0 0
32 0.24680023240601343 0.08318272727410783 0 0 0 0
74 -0.02555481240862903 0.02900106652548393 0 0 0 0
71 0.034544007031757175 -0.14965801354786418 0 0 0 0
5 0.13042622623311548 0.022838024708817798 0 0 0 0
2 -0.08306617512282978 0.0648182150411322 0 0 0 0
13 -0.13543102391424122 -0.03910948348584839 0 0 0 0
79 -0.019558083053620022 0.05464266619665382 0 0 0 0
62 -0.1400661958994185 0.06301291893431825 0 0 0 0
70 -0.035276410187048586 0.12418892000546997 0 0 0 0
21 -0.2561014333996675 0.1879762533290115 0 0 0 0
20 -0.03384727912966439 -0.14294402415203622 0 0 0 0
59 -0.045870964886187554 -0.011154335547860869 0 0 0 0
16 0.03480221220707339 -0.0472255163996249 0 0 0 0
37 0.03747951622173628 -0.08601339317918491 0 0 0 0
80 0.14098351629377012 -0.1325636210836071 0 0 0 0
28 -0.08346968548386391 0.06336941969794056 0 0 0 0
60 0.20076273782338838 0.026204053614484062 0 0 0 0
58 -0.09847633922989801 -0.06327624375557771 0 0 0 0
39 -0.0991738006075774 0.020139936466116237 0 0 0 0
9 -0.03194723691019975 0.016570240405954867 0 0 0 0
43 -0.134630123559992 -0.11769363016914296 0 0 0 0
6 -0.07254404692669003 0.05138925970571216 0 0 0 0
73 0.06504160156983084 -0.18361033276407998 0 0 0 0
69 0.04620419621655653 0.057256051045689565 0 0 0 0
67 0.18395831189141978 0.029159800383503617 0 0 0 0
4 -0.1056294747415062 -0.17756570941903138 0 0 0 0
23 0.157402949082056 0.03571144131089288 0 0 0 0
