LAMMPS data file.

     73 atoms
    161 bonds
      0 angles
      0 dihedrals
      0 impropers
      1 atom types
    161 bond types
      0 angle types
      0 dihedral types
      0 improper types
  -4.820590   4.820590 xlo xhi
  -4.820590   4.820590 ylo yhi
  -0.100000   0.100000 zlo zhi

Masses # ['atom_id', 'mass']

1 10000.0

Atoms # ['atomID', 'moleculeID', 'atomType', 'charge', 'x', 'y', 'z']

      8      1      1   0.000000  -2.549765  -3.673415   0.000000
     54      1      1   0.000000  -1.216401  -4.621546   0.000000
     57      1      1   0.000000   0.025454  -3.222728   0.000000
     40      1      1   0.000000   0.893442  -4.081061   0.000000
     29      1      1   0.000000   2.126205  -4.187592   0.000000
     72      1      1   0.000000   2.840360  -4.732630   0.000000
     48      1      1   0.000000   3.301365  -4.092586   0.000000
     42      1      1   0.000000   4.177214  -4.307316   0.000000
     61      1      1   0.000000  -3.740388  -2.777418   0.000000
     41      1      1   0.000000  -3.815409  -3.621958   0.000000
     47      1      1   0.000000  -3.137021  -2.717882   0.000000
     35      1      1   0.000000  -1.704181  -2.594985   0.000000
     25      1      1   0.000000  -1.119214  -3.570530   0.000000
     63      1      1   0.000000   0.803737  -3.162660   0.000000
     75      1      1   0.000000   1.649754  -3.502683   0.000000
     55      1      1   0.000000   2.692594  -3.264741   0.000000
     15      1      1   0.000000   3.764281  -3.025257   0.000000
     36      1      1   0.000000  -4.664968  -2.542330   0.000000
     34      1      1   0.000000  -3.688375  -1.775864   0.000000
     38      1      1   0.000000  -2.555419  -1.913236   0.000000
      7      1      1   0.000000  -0.637175  -2.169517   0.000000
     17      1      1   0.000000   1.615294  -2.423869   0.000000
     68      1      1   0.000000   0.524417  -2.573886   0.000000
     66      1      1   0.000000   2.628394  -2.439434   0.000000
     10      1      1   0.000000   3.568581  -1.730855   0.000000
      1      1      1   0.000000  -4.323016  -0.551788   0.000000
     50      1      1   0.000000  -3.107989  -0.867456   0.000000
     14      1      1   0.000000  -0.504229  -0.726326   0.000000
     27      1      1   0.000000   0.559491  -1.655603   0.000000
     52      1      1   0.000000   2.334938  -1.646941   0.000000
     30      1      1   0.000000   2.638909  -0.690224   0.000000
     49      1      1   0.000000   4.744401  -1.493133   0.000000
     65      1      1   0.000000  -4.785673   0.379433   0.000000
     33      1      1   0.000000  -3.283084   0.194382   0.000000
     64      1      1   0.000000  -2.289256  -1.092473   0.000000
     24      1      1   0.000000  -2.262935  -0.117078   0.000000
     26      1      1   0.000000   0.450796   0.586853   0.000000
     11      1      1   0.000000   1.239008  -0.460030   0.000000
     31      1      1   0.000000   3.980514  -0.353073   0.000000
     53      1      1   0.000000  -4.087615   0.733970   0.000000
     44      1      1   0.000000  -3.482439   1.249444   0.000000
     12      1      1   0.000000  -2.199725   1.322730   0.000000
     19      1      1   0.000000  -0.982806   0.475660   0.000000
     77      1      1   0.000000  -0.236609   1.250291   0.000000
     51      1      1   0.000000   1.465979   0.665461   0.000000
     76      1      1   0.000000   1.505451   1.444462   0.000000
      3      1      1   0.000000   2.755295   0.718777   0.000000
     22      1      1   0.000000   4.112993   0.873722   0.000000
     18      1      1   0.000000  -4.717168   1.877396   0.000000
     32      1      1   0.000000  -3.389314   2.330287   0.000000
     74      1      1   0.000000  -1.113933   1.696787   0.000000
     71      1      1   0.000000  -1.593413   2.025933   0.000000
      5      1      1   0.000000  -0.765606   2.678692   0.000000
      2      1      1   0.000000   0.585031   1.915486   0.000000
     13      1      1   0.000000   2.343977   2.042107   0.000000
     21      1      1   0.000000  -4.015357   3.572257   0.000000
     20      1      1   0.000000  -2.265602   2.800031   0.000000
     59      1      1   0.000000  -1.042710   3.794011   0.000000
     16      1      1   0.000000   0.169939   3.857086   0.000000
     37      1      1   0.000000   1.294989   2.991748   0.000000
     80      1      1   0.000000   2.110980   3.120654   0.000000
     28      1      1   0.000000   3.147814   3.227583   0.000000
     60      1      1   0.000000   4.089070   3.468023   0.000000
     58      1      1   0.000000   4.683035   3.009146   0.000000
     39      1      1   0.000000   4.757276   4.388621   0.000000
      9      1      1   0.000000  -3.507216  -4.765766   0.000000
     43      1      1   0.000000  -3.036046   3.725733   0.000000
      6      1      1   0.000000  -2.134860   4.348938   0.000000
     73      1      1   0.000000  -0.658324   4.454121   0.000000
     69      1      1   0.000000   0.385752  -4.695305   0.000000
     67      1      1   0.000000   0.877470   4.523272   0.000000
      4      1      1   0.000000   1.790141   4.141193   0.000000
     23      1      1   0.000000   3.607901   4.346661   0.000000

Bond Coeffs # ['bondID', 'bondCoeff', 'd']

      1   0.773157   1.137277
      2   0.773157   1.137277
      3   0.528783   1.375186
      4   1.459314   0.827800
      5   0.683052   1.209966
      6   1.465292   0.826110
      7   0.811665   1.109971
      8   0.852913   1.082798
      9   0.653145   1.237357
     10   0.535518   1.366511
     11   0.811665   1.109971
     12   0.964528   1.018222
     13   0.830263   1.097469
     14   0.441724   1.504612
     15   0.839356   1.091508
     16   0.829228   1.098153
     17   0.476083   1.449302
     18   0.829228   1.098153
     19   0.992354   1.003845
     20   0.582329   1.310436
     21   0.481454   1.441195
     22   1.343193   0.862841
     23   1.239029   0.898378
     24   1.095678   0.955341
     25   0.891660   1.059011
     26   0.586527   1.305738
     27   0.501239   1.412465
     28   0.858348   1.079365
     29   0.645856   1.244320
     30   0.821321   1.103427
     31   0.894793   1.057155
     32   0.483657   1.437908
     33   0.782973   1.130125
     34   0.897603   1.055499
     35   0.757162   1.149227
     36   0.767778   1.141254
     37   1.065614   0.968724
     38   0.689414   1.204370
     39   1.713803   0.763870
     40   0.583507   1.309112
     41   1.400244   0.845080
     42   0.864406   1.075576
     43   0.824730   1.101144
     44   1.436563   0.834330
     45   0.513557   1.395422
     46   0.755959   1.150140
     47   0.499452   1.414990
     48   1.184168   0.918953
     49   0.597441   1.293756
     50   1.059574   0.971481
     51   1.391061   0.847865
     52   0.413872   1.554415
     53   0.758230   1.148417
     54   0.560763   1.335397
     55   0.863439   1.076178
     56   1.582401   0.794954
     57   0.600537   1.290417
     58   1.584148   0.794515
     59   1.584148   0.794515
     60   1.643655   0.780000
     61   0.840769   1.090590
     62   0.924878   1.039819
     63   0.829280   1.098119
     64   1.050324   0.975750
     65   1.058869   0.971804
     66   1.021499   0.989421
     67   1.014490   0.992833
     68   0.772798   1.137541
     69   0.634543   1.255364
     70   0.974077   1.013219
     71   0.866139   1.074499
     72   0.866139   1.074499
     73   0.457298   1.478769
     74   0.703817   1.191983
     75   0.878958   1.066635
     76   0.703817   1.191983
     77   1.256838   0.891991
     78   1.256838   0.891991
     79   1.641136   0.780599
     80   0.738834   1.163393
     81   0.770010   1.139598
     82   0.770010   1.139598
     83   0.860546   1.077985
     84   0.822819   1.102422
     85   0.822819   1.102422
     86   0.441557   1.504896
     87   0.473946   1.452564
     88   0.526002   1.378815
     89   0.508051   1.402964
     90   0.601547   1.289333
     91   0.772872   1.137486
     92   0.623247   1.266689
     93   0.511137   1.398722
     94   0.935421   1.033942
     95   0.666340   1.225045
     96   2.720376   0.606297
     97   0.500293   1.413800
     98   0.546809   1.352329
     99   0.638407   1.251559
    100   0.546809   1.352329
    101   1.387048   0.849091
    102   0.813038   1.109033
    103   0.813038   1.109033
    104   1.017704   0.991264
    105   1.607246   0.788785
    106   1.174388   0.922772
    107   0.951415   1.025215
    108   0.746866   1.157121
    109   0.532475   1.370410
    110   0.746866   1.157121
    111   0.415506   1.551356
    112   0.678198   1.214288
    113   0.648844   1.241452
    114   0.654058   1.236493
    115   0.520729   1.385779
    116   2.378805   0.648366
    117   2.378805   0.648366
    118   0.610415   1.279933
    119   0.899799   1.054210
    120   0.656781   1.233928
    121   0.849695   1.084847
    122   0.694895   1.199611
    123   0.867379   1.073731
    124   0.873791   1.069784
    125   1.631369   0.782932
    126   0.462848   1.469877
    127   0.462848   1.469877
    128   0.600561   1.290392
    129   0.600561   1.290392
    130   0.502496   1.410697
    131   2.354745   0.651670
    132   1.775056   0.750575
    133   1.098762   0.954000
    134   0.454873   1.482706
    135   0.486130   1.434246
    136   0.483566   1.438044
    137   0.959260   1.021014
    138   0.758582   1.148150
    139   0.996483   1.001763
    140   0.544865   1.354738
    141   0.544865   1.354738
    142   1.105171   0.951229
    143   2.956495   0.581583
    144   1.105171   0.951229
    145   0.496842   1.418701
    146   0.921260   1.041859
    147   0.674133   1.217944
    148   0.605794   1.284806
    149   1.159947   0.928498
    150   1.103108   0.952118
    151   0.712617   1.184601
    152   1.492625   0.818511
    153   1.574694   0.796896
    154   0.589582   1.302351
    155   0.832971   1.095683
    156   0.943125   1.029711
    157   0.794969   1.121566
    158   0.487447   1.432308
    159   1.229679   0.901787
    160   0.496389   1.419347
    161   0.757848   1.148706

Bonds # ['ID', 'type', 'atom1', 'atom2']

         1         1        54         6
         2         2         6        54
         3         3        27        11
         4         4        55        66
         5         5        28        23
         6         6        37        80
         7         7        16        69
         8         8        29        55
         9         9        40        29
        10        10         3        22
        11        11        69        16
        12        12        26        51
        13        13        63        17
        14        14         5        16
        15        15        47        34
        16        16        21        58
        17        17         7        14
        18        18        58        21
        19        19        52        30
        20        20        26        11
        21        21        24        12
        22        22        38        64
        23        23        29        72
        24        24        26        77
        25        25        17        52
        26        26        17        27
        27        27        14        27
        28        28        75        17
        29        29        57         7
        30        30        13        80
        31        31        77         2
        32        32        26        19
        33        33        50        24
        34        34        54        25
        35        35         5        59
        36        36        34        38
        37        37        33        53
        38        38        20        43
        39        39        59        73
        40        40        15        10
        41        41        66        52
        42        42        19        77
        43        43        17        68
        44        44        29        75
        45        45        10        30
        46        46        39        23
        47        47        13        37
        48        48        68        27
        49        49        14        19
        50        50        28        60
        51        51        61        41
        52        52        20         6
        53        53        12        74
        54        54        26         2
        55        55        50        33
        56        56        53        44
        57        57        51         3
        58        58        54        73
        59        59        73        54
        60        60        51        76
        61        61        35        38
        62        62         1        65
        63        63        55        15
        64        64        64        24
        65        65        16        67
        66        66        67         4
        67        67        47        38
        68        68        60        39
        69        69         1        50
        70        70        17        66
        71        71        36        49
        72        72        49        36
        73        73        12        20
        74        74        21        39
        75        75        33        24
        76        76        39        21
        77        77        65        22
        78        78        22        65
        79        79        57        63
        80        80        48        15
        81        81        42        23
        82        82        23        42
        83        83        34        50
        84        84         1        49
        85        85        49         1
        86        86         5        20
        87        87         8         9
        88        88        34         1
        89        89        18        32
        90        90         2        37
        91        91        35        25
        92        92         8        41
        93        93        21         9
        94        94        76         2
        95        95        59         6
        96        96        61        47
        97        97        30         3
        98        98         1        31
        99        99        37         4
       100       100        31         1
       101       101        50        64
       102       102        42        39
       103       103        39        42
       104       104        21        43
       105       105        72        48
       106       106        40        63
       107       107        71        20
       108       108        18        58
       109       109         8        35
       110       110        58        18
       111       111         5         2
       112       112        59        16
       113       113        36        34
       114       114        10        52
       115       115         3        13
       116       116        69        67
       117       117        67        69
       118       118         1        33
       119       119        71         5
       120       120        31        22
       121       121        44        32
       122       122        10        49
       123       123        33        44
       124       124        80         4
       125       125        65        53
       126       126         9         6
       127       127         6         9
       128       128        22        18
       129       129        18        22
       130       130        24        19
       131       131        63        68
       132       132        60        58
       133       133        61        36
       134       134        12        19
       135       135         8        25
       136       136        10        31
       137       137        16        73
       138       138        11        51
       139       139        60        23
       140       140        29         4
       141       141         4        29
       142       142        72        23
       143       143        74        71
       144       144        23        72
       145       145        30        11
       146       146        74         5
       147       147        32        20
       148       148        44        12
       149       149        12        71
       150       150        40        75
       151       151        41         9
       152       152        57        68
       153       153        40        69
       154       154         7        27
       155       155        43         6
       156       156        76        13
       157       157         8        47
       158       158        13        28
       159       159        48        42
       160       160        16        37
       161       161        35         7
