ITEM: TIMESTEP
0
ITEM: NUMBER OF ATOMS
80
ITEM: BOX BOUNDS pp pp pp
-1.0000000000000000e+01 1.0000000000000000e+01
-1.0000000000000000e+01 1.0000000000000000e+01
-1.0000000000000001e-01 1.0000000000000001e-01
ITEM: ATOMS id type xs ys zs
22 2 0.0211233 0.0191754 0.5
57 3 0.0874045 0.00739687 0.5
40 2 0.47183 0.0464174 0.5
30 2 0.491106 0.0247331 0.5
76 4 0.511574 0.0245606 0.5
67 4 0.550545 0.014523 0.5
25 2 0.61433 0.0437006 0.5
9 1 0.029814 0.0831744 0.5
43 3 0.133996 0.0757749 0.5
72 4 0.363424 0.0618466 0.5
38 2 0.413403 0.0591094 0.5
42 3 0.80693 0.0797472 0.5
68 4 0.983525 0.100277 0.5
52 3 0.080927 0.139814 0.5
61 4 0.412276 0.122168 0.5
73 4 0.373244 0.116233 0.5
49 3 0.480046 0.137952 0.5
1 1 0.988346 0.132924 0.5
47 3 0.387289 0.173485 0.5
74 4 0.438993 0.163736 0.5
60 3 0.965503 0.201011 0.5
32 2 0.155902 0.23861 0.5
3 1 0.442686 0.230765 0.5
55 3 0.130795 0.267804 0.5
15 1 0.256696 0.288347 0.5
34 2 0.348145 0.268622 0.5
29 2 0.461907 0.270143 0.5
66 4 0.796471 0.281626 0.5
53 3 0.935343 0.311994 0.5
56 3 0.147041 0.316561 0.5
24 2 0.188276 0.352375 0.5
50 3 0.297098 0.323569 0.5
2 1 0.334583 0.33036 0.5
63 4 0.598937 0.340552 0.5
7 1 0.90399 0.361691 0.5
64 4 0.0390534 0.370526 0.5
41 3 0.0986723 0.385004 0.5
5 1 0.557708 0.400494 0.5
35 2 0.554792 0.381056 0.5
54 3 0.923508 0.401986 0.5
51 3 0.418422 0.422596 0.5
17 1 0.618401 0.472308 0.5
27 2 0.679267 0.442555 0.5
71 4 0.0112766 0.525635 0.5
62 4 0.0543523 0.499604 0.5
19 1 0.291457 0.517288 0.5
69 4 0.46085 0.511752 0.5
39 2 0.626911 0.49426 0.5
8 1 0.463531 0.568065 0.5
65 4 0.489293 0.552264 0.5
37 2 0.724078 0.570876 0.5
46 3 0.801425 0.545062 0.5
44 3 0.192276 0.583313 0.5
16 1 0.252371 0.60729 0.5
75 4 0.0161619 0.632373 0.5
12 1 0.194243 0.642218 0.5
79 4 0.913349 0.655121 0.5
33 2 0.0146196 0.710968 0.5
26 2 0.513519 0.707948 0.5
21 2 0.096255 0.757891 0.5
59 3 0.154802 0.761413 0.5
70 4 0.257201 0.777493 0.5
18 1 0.751279 0.7524 0.5
20 1 0.982554 0.778165 0.5
10 1 0.419457 0.816647 0.5
13 1 0.430405 0.820364 0.5
45 3 0.569635 0.858464 0.5
80 4 0.556368 0.881447 0.5
11 1 0.620268 0.847463 0.5
78 4 0.845889 0.853381 0.5
23 2 0.955012 0.885552 0.5
48 3 0.200685 0.915732 0.5
6 1 0.343245 0.918587 0.5
14 1 0.381801 0.932781 0.5
36 2 0.391974 0.900451 0.5
31 2 0.477178 0.923878 0.5
58 3 0.962571 0.926496 0.5
77 4 0.517461 0.972635 0.5
28 2 0.545546 0.99337 0.5
4 1 0.779435 0.962242 0.5
ITEM: TIMESTEP
10
ITEM: NUMBER OF ATOMS
80
ITEM: BOX BOUNDS pp pp pp
-9.2585439463107626e+00 9.2585439463107626e+00
-9.2585439463107626e+00 9.2585439463107626e+00
-1.0000000000000001e-01 1.0000000000000001e-01
ITEM: ATOMS id type xs ys zs
22 2 0.0211189 0.0191433 0.5
57 3 0.0874045 0.00739687 0.5
40 2 0.471746 0.046522 0.5
30 2 0.491076 0.0246395 0.5
76 4 0.511688 0.0245617 0.5
67 4 0.550569 0.0146253 0.5
25 2 0.61433 0.0437006 0.5
9 1 0.0298867 0.0831498 0.5
43 3 0.133996 0.0757749 0.5
72 4 0.363421 0.0618468 0.5
38 2 0.413383 0.059114 0.5
42 3 0.80693 0.0797472 0.5
68 4 0.983481 0.100198 0.5
52 3 0.080927 0.139814 0.5
61 4 0.412276 0.122168 0.5
73 4 0.373244 0.116233 0.5
49 3 0.480046 0.137952 0.5
1 1 0.988322 0.13306 0.5
47 3 0.387289 0.173485 0.5
74 4 0.438993 0.163736 0.5
60 3 0.965503 0.201011 0.5
32 2 0.155948 0.238555 0.5
3 1 0.442639 0.230668 0.5
55 3 0.130748 0.267857 0.5
15 1 0.256662 0.288318 0.5
34 2 0.348153 0.268586 0.5
29 2 0.461954 0.27024 0.5
66 4 0.796471 0.281626 0.5
53 3 0.935357 0.311972 0.5
56 3 0.147031 0.316553 0.5
24 2 0.188286 0.352384 0.5
50 3 0.297032 0.323581 0.5
2 1 0.334674 0.330415 0.5
63 4 0.598937 0.340552 0.5
7 1 0.903943 0.361644 0.5
64 4 0.0390534 0.370526 0.5
41 3 0.0986723 0.385004 0.5
5 1 0.557737 0.400687 0.5
35 2 0.554763 0.380862 0.5
54 3 0.923542 0.402055 0.5
51 3 0.418422 0.422596 0.5
17 1 0.618317 0.472148 0.5
27 2 0.679286 0.442546 0.5
71 4 0.0112766 0.525635 0.5
62 4 0.0543523 0.499604 0.5
19 1 0.291457 0.517288 0.5
69 4 0.46085 0.511745 0.5
39 2 0.626977 0.494429 0.5
8 1 0.463445 0.568126 0.5
65 4 0.48938 0.55221 0.5
37 2 0.724078 0.570876 0.5
46 3 0.801425 0.545062 0.5
44 3 0.192271 0.583287 0.5
16 1 0.252417 0.607267 0.5
75 4 0.0161619 0.632373 0.5
12 1 0.194203 0.642268 0.5
79 4 0.913349 0.655121 0.5
33 2 0.0146199 0.710967 0.5
26 2 0.513519 0.707948 0.5
21 2 0.0962541 0.757891 0.5
59 3 0.154803 0.761413 0.5
70 4 0.257201 0.777493 0.5
18 1 0.751279 0.7524 0.5
20 1 0.982553 0.778166 0.5
10 1 0.419218 0.816566 0.5
13 1 0.430644 0.820445 0.5
45 3 0.569615 0.858423 0.5
80 4 0.556338 0.881499 0.5
11 1 0.620318 0.847452 0.5
78 4 0.845889 0.853381 0.5
23 2 0.955001 0.885492 0.5
48 3 0.200685 0.915732 0.5
6 1 0.343036 0.918564 0.5
14 1 0.381894 0.932968 0.5
36 2 0.39209 0.900287 0.5
31 2 0.477178 0.923878 0.5
58 3 0.962582 0.926555 0.5
77 4 0.517415 0.972601 0.5
28 2 0.54559 0.993285 0.5
4 1 0.779435 0.962242 0.5
ITEM: TIMESTEP
20
ITEM: NUMBER OF ATOMS
80
ITEM: BOX BOUNDS pp pp pp
-8.3378398064527559e+00 8.3378398064527559e+00
-8.3378398064527559e+00 8.3378398064527559e+00
-1.0000000000000001e-01 1.0000000000000001e-01
ITEM: ATOMS id type xs ys zs
22 2 0.021099 0.018999 0.5
57 3 0.0874046 0.00739685 0.5
40 2 0.471455 0.0469027 0.5
30 2 0.490941 0.0243153 0.5
76 4 0.512099 0.0245726 0.5
67 4 0.550656 0.0149926 0.5
25 2 0.61433 0.0437006 0.5
9 1 0.0301883 0.0830632 0.5
43 3 0.133996 0.0757749 0.5
72 4 0.363388 0.0618486 0.5
38 2 0.413311 0.0591351 0.5
42 3 0.80693 0.0797472 0.5
68 4 0.983303 0.0999127 0.5
52 3 0.0809271 0.139814 0.5
61 4 0.412277 0.122168 0.5
73 4 0.373243 0.116233 0.5
49 3 0.480047 0.137952 0.5
1 1 0.98822 0.13357 0.5
47 3 0.387289 0.173485 0.5
74 4 0.438993 0.163736 0.5
60 3 0.965501 0.201017 0.5
32 2 0.156124 0.238351 0.5
3 1 0.442465 0.230311 0.5
55 3 0.130565 0.268041 0.5
15 1 0.25652 0.288195 0.5
34 2 0.348187 0.268427 0.5
29 2 0.462128 0.270597 0.5
66 4 0.796471 0.281626 0.5
53 3 0.935421 0.31187 0.5
56 3 0.146982 0.316525 0.5
24 2 0.188342 0.352433 0.5
50 3 0.296805 0.323635 0.5
2 1 0.335009 0.330642 0.5
63 4 0.598937 0.340552 0.5
7 1 0.903752 0.361484 0.5
64 4 0.0390534 0.370526 0.5
41 3 0.0986723 0.385004 0.5
5 1 0.557839 0.40137 0.5
35 2 0.55466 0.380179 0.5
54 3 0.923668 0.402315 0.5
51 3 0.418422 0.422596 0.5
17 1 0.617988 0.471595 0.5
27 2 0.679383 0.442498 0.5
71 4 0.0112766 0.525635 0.5
62 4 0.0543523 0.499604 0.5
19 1 0.291457 0.517288 0.5
69 4 0.460848 0.511693 0.5
39 2 0.627209 0.49503 0.5
8 1 0.463132 0.568371 0.5
65 4 0.489696 0.552017 0.5
37 2 0.724078 0.570876 0.5
46 3 0.801425 0.545062 0.5
44 3 0.192223 0.583152 0.5
16 1 0.252634 0.60718 0.5
75 4 0.0161619 0.632373 0.5
12 1 0.194033 0.64249 0.5
79 4 0.913349 0.655121 0.5
33 2 0.0146336 0.710939 0.5
26 2 0.513519 0.707948 0.5
21 2 0.0962259 0.757889 0.5
59 3 0.154831 0.761414 0.5
70 4 0.257201 0.777493 0.5
18 1 0.751279 0.7524 0.5
20 1 0.98254 0.778194 0.5
10 1 0.41838 0.816281 0.5
13 1 0.431482 0.82073 0.5
45 3 0.569527 0.858273 0.5
80 4 0.556227 0.881692 0.5
11 1 0.620518 0.847409 0.5
78 4 0.845889 0.853381 0.5
23 2 0.954959 0.885264 0.5
48 3 0.200685 0.915732 0.5
6 1 0.342265 0.918484 0.5
14 1 0.382233 0.933645 0.5
36 2 0.392521 0.89969 0.5
31 2 0.477178 0.923878 0.5
58 3 0.962624 0.926783 0.5
77 4 0.51724 0.972472 0.5
28 2 0.5458 0.992956 0.5
4 1 0.779435 0.962242 0.5
ITEM: TIMESTEP
30
ITEM: NUMBER OF ATOMS
80
ITEM: BOX BOUNDS pp pp pp
-7.6540188352197021e+00 7.6540188352197021e+00
-7.6540188352197021e+00 7.6540188352197021e+00
-1.0000000000000001e-01 1.0000000000000001e-01
ITEM: ATOMS id type xs ys zs
22 2 0.0210368 0.0186634 0.5
57 3 0.0874195 0.00739427 0.5
40 2 0.470917 0.0476549 0.5
30 2 0.490616 0.0237166 0.5
76 4 0.512881 0.0246152 0.5
67 4 0.550841 0.015704 0.5
25 2 0.61433 0.0437006 0.5
9 1 0.0308425 0.0828886 0.5
43 3 0.133996 0.0757749 0.5
72 4 0.363274 0.0618548 0.5
38 2 0.413162 0.0591843 0.5
42 3 0.80693 0.0797472 0.5
68 4 0.982916 0.0993587 0.5
52 3 0.0809385 0.139827 0.5
61 4 0.412297 0.122172 0.5
73 4 0.373223 0.11623 0.5
49 3 0.480064 0.137941 0.5
1 1 0.988007 0.13457 0.5
47 3 0.387284 0.173481 0.5
74 4 0.438976 0.163727 0.5
60 3 0.965482 0.201071 0.5
32 2 0.156481 0.237936 0.5
3 1 0.442121 0.229621 0.5
55 3 0.130178 0.268369 0.5
15 1 0.256168 0.287903 0.5
34 2 0.348265 0.268066 0.5
29 2 0.462477 0.271311 0.5
66 4 0.796471 0.281626 0.5
53 3 0.935575 0.311628 0.5
56 3 0.146864 0.316485 0.5
24 2 0.188489 0.35256 0.5
50 3 0.29638 0.323768 0.5
2 1 0.335708 0.331162 0.5
63 4 0.598944 0.340546 0.5
7 1 0.903339 0.361194 0.5
64 4 0.0390534 0.370526 0.5
41 3 0.0986723 0.385004 0.5
5 1 0.558016 0.402656 0.5
35 2 0.554457 0.378877 0.5
54 3 0.923927 0.402848 0.5
51 3 0.418422 0.422596 0.5
17 1 0.617313 0.470582 0.5
27 2 0.679649 0.44236 0.5
71 4 0.0112766 0.525635 0.5
62 4 0.0543523 0.499604 0.5
19 1 0.291459 0.517283 0.5
69 4 0.460841 0.511539 0.5
39 2 0.627637 0.496205 0.5
8 1 0.462517 0.568906 0.5
65 4 0.490316 0.551635 0.5
37 2 0.724078 0.570876 0.5
46 3 0.801425 0.545062 0.5
44 3 0.192073 0.582815 0.5
16 1 0.253158 0.60701 0.5
75 4 0.0161619 0.632373 0.5
12 1 0.193658 0.643001 0.5
79 4 0.913349 0.655121 0.5
33 2 0.0146897 0.710821 0.5
26 2 0.513519 0.707948 0.5
21 2 0.0961161 0.757883 0.5
59 3 0.154941 0.761421 0.5
70 4 0.257201 0.777493 0.5
18 1 0.751279 0.7524 0.5
20 1 0.982483 0.778312 0.5
10 1 0.41679 0.815731 0.5
13 1 0.433078 0.821264 0.5
45 3 0.56932 0.857976 0.5
80 4 0.556004 0.882082 0.5
11 1 0.620948 0.847317 0.5
78 4 0.845889 0.853381 0.5
23 2 0.954872 0.884794 0.5
48 3 0.200685 0.915732 0.5
6 1 0.340731 0.918334 0.5
14 1 0.382902 0.93497 0.5
36 2 0.39338 0.89853 0.5
31 2 0.477177 0.923878 0.5
58 3 0.962711 0.927254 0.5
77 4 0.516885 0.972195 0.5
28 2 0.546314 0.99227 0.5
4 1 0.779435 0.962242 0.5
ITEM: TIMESTEP
40
ITEM: NUMBER OF ATOMS
80
ITEM: BOX BOUNDS pp pp pp
-7.1730624185348644e+00 7.1730624185348644e+00
-7.1730624185348644e+00 7.1730624185348644e+00
-1.0000000000000001e-01 1.0000000000000001e-01
ITEM: ATOMS id type xs ys zs
22 2 0.020876 0.0180665 0.5
57 3 0.0874922 0.00738193 0.5
40 2 0.470114 0.0488617 0.5
30 2 0.489989 0.0228246 0.5
76 4 0.514073 0.0247233 0.5
67 4 0.551195 0.0168165 0.5
25 2 0.614335 0.0437044 0.5
9 1 0.0319385 0.0825824 0.5
43 3 0.133996 0.0757749 0.5
72 4 0.363028 0.061868 0.5
38 2 0.412908 0.0592581 0.5
42 3 0.80693 0.0797472 0.5
68 4 0.982254 0.098484 0.5
52 3 0.080995 0.139891 0.5
61 4 0.412364 0.122199 0.5
73 4 0.373156 0.11622 0.5
49 3 0.480126 0.137902 0.5
1 1 0.987659 0.136131 0.5
47 3 0.387225 0.173449 0.5
74 4 0.438932 0.163673 0.5
60 3 0.965427 0.201236 0.5
32 2 0.157065 0.237259 0.5
3 1 0.441601 0.228598 0.5
55 3 0.129526 0.268846 0.5
15 1 0.255501 0.287357 0.5
34 2 0.348409 0.267424 0.5
29 2 0.463038 0.272461 0.5
66 4 0.796471 0.281626 0.5
53 3 0.935858 0.311187 0.5
56 3 0.146651 0.316441 0.5
24 2 0.188762 0.352814 0.5
50 3 0.295729 0.324014 0.5
2 1 0.336892 0.332095 0.5
63 4 0.598993 0.340502 0.5
7 1 0.90263 0.360761 0.5
64 4 0.0390534 0.370526 0.5
41 3 0.0986723 0.385004 0.5
5 1 0.558226 0.404596 0.5
35 2 0.554107 0.376877 0.5
54 3 0.924354 0.403722 0.5
51 3 0.418422 0.422596 0.5
17 1 0.616237 0.469101 0.5
27 2 0.680184 0.442067 0.5
71 4 0.0112766 0.525635 0.5
62 4 0.0543523 0.499604 0.5
19 1 0.291481 0.517232 0.5
69 4 0.46083 0.511231 0.5
39 2 0.628271 0.498084 0.5
8 1 0.461541 0.569823 0.5
65 4 0.491304 0.551026 0.5
37 2 0.724078 0.570876 0.5
46 3 0.801425 0.545062 0.5
44 3 0.191762 0.582192 0.5
16 1 0.254099 0.606777 0.5
75 4 0.0161619 0.632373 0.5
12 1 0.193006 0.643909 0.5
79 4 0.913349 0.655121 0.5
33 2 0.0148178 0.710553 0.5
26 2 0.513519 0.707948 0.5
21 2 0.0958704 0.757868 0.5
59 3 0.155187 0.761436 0.5
70 4 0.257201 0.777493 0.5
18 1 0.751279 0.7524 0.5
20 1 0.982355 0.77858 0.5
10 1 0.414347 0.814824 0.5
13 1 0.435571 0.822043 0.5
45 3 0.568947 0.857497 0.5
80 4 0.555635 0.882721 0.5
11 1 0.62169 0.847156 0.5
78 4 0.845889 0.853381 0.5
23 2 0.954728 0.884015 0.5
48 3 0.200685 0.915732 0.5
6 1 0.338277 0.918099 0.5
14 1 0.383963 0.937075 0.5
36 2 0.394715 0.896788 0.5
31 2 0.477173 0.923861 0.5
58 3 0.962854 0.928033 0.5
77 4 0.516329 0.971718 0.5
28 2 0.547263 0.99112 0.5
4 1 0.779435 0.962242 0.5
ITEM: TIMESTEP
50
ITEM: NUMBER OF ATOMS
80
ITEM: BOX BOUNDS pp pp pp
-6.8527230180150580e+00 6.8527230180150580e+00
-6.8527230180150580e+00 6.8527230180150580e+00
-1.0000000000000001e-01 1.0000000000000001e-01
ITEM: ATOMS id type xs ys zs
22 2 0.0205636 0.0171625 0.5
57 3 0.0876631 0.00735334 0.5
40 2 0.469072 0.0505658 0.5
30 2 0.488994 0.0216259 0.5
76 4 0.515665 0.0249332 0.5
67 4 0.551761 0.0183436 0.5
25 2 0.614379 0.0437357 0.5
9 1 0.033518 0.0821171 0.5
43 3 0.133996 0.0757749 0.5
72 4 0.362613 0.0618902 0.5
38 2 0.412505 0.0593384 0.5
42 3 0.80693 0.0797472 0.5
68 4 0.981282 0.0972691 0.5
52 3 0.0811286 0.140046 0.5
61 4 0.41251 0.122272 0.5
73 4 0.373012 0.116198 0.5
49 3 0.480261 0.137818 0.5
1 1 0.987173 0.138257 0.5
47 3 0.387041 0.173372 0.5
74 4 0.43886 0.163537 0.5
60 3 0.965314 0.201568 0.5
32 2 0.157898 0.236291 0.5
3 1 0.440932 0.227291 0.5
55 3 0.128571 0.269456 0.5
15 1 0.254445 0.286479 0.5
34 2 0.348662 0.266437 0.5
29 2 0.46383 0.274082 0.5
66 4 0.796471 0.281626 0.5
53 3 0.936297 0.310511 0.5
56 3 0.146326 0.31641 0.5
24 2 0.189161 0.353249 0.5
50 3 0.294837 0.324411 0.5
2 1 0.338628 0.333518 0.5
63 4 0.599129 0.340374 0.5
7 1 0.901576 0.36019 0.5
64 4 0.0390533 0.370526 0.5
41 3 0.0986723 0.385004 0.5
5 1 0.558402 0.407173 0.5
35 2 0.553572 0.374178 0.5
54 3 0.924968 0.404969 0.5
51 3 0.418422 0.422596 0.5
17 1 0.614753 0.467205 0.5
27 2 0.681058 0.441578 0.5
71 4 0.0112765 0.525636 0.5
62 4 0.0543524 0.499604 0.5
19 1 0.291545 0.51708 0.5
69 4 0.460816 0.510733 0.5
39 2 0.629101 0.500718 0.5
8 1 0.46018 0.571173 0.5
65 4 0.492679 0.550174 0.5
37 2 0.724076 0.570876 0.5
46 3 0.801426 0.545061 0.5
44 3 0.191254 0.581226 0.5
16 1 0.255512 0.606524 0.5
75 4 0.0161619 0.632373 0.5
12 1 0.192037 0.645279 0.5
79 4 0.913349 0.655121 0.5
33 2 0.0150398 0.710087 0.5
26 2 0.513519 0.707948 0.5
21 2 0.095448 0.757843 0.5
59 3 0.155609 0.761461 0.5
70 4 0.257201 0.777493 0.5
18 1 0.751279 0.7524 0.5
20 1 0.982133 0.779046 0.5
10 1 0.41104 0.813488 0.5
13 1 0.439015 0.823019 0.5
45 3 0.568374 0.856819 0.5
80 4 0.555089 0.883646 0.5
11 1 0.622809 0.846909 0.5
78 4 0.845889 0.853381 0.5
23 2 0.954522 0.882895 0.5
48 3 0.200685 0.915732 0.5
6 1 0.334852 0.917769 0.5
14 1 0.3854 0.940016 0.5
36 2 0.396481 0.894536 0.5
31 2 0.477207 0.9238 0.5
58 3 0.963061 0.929152 0.5
77 4 0.515582 0.971024 0.5
28 2 0.548718 0.989426 0.5
4 1 0.779435 0.962242 0.5
ITEM: TIMESTEP
60
ITEM: NUMBER OF ATOMS
80
ITEM: BOX BOUNDS pp pp pp
-6.6365072529476450e+00 6.6365072529476450e+00
-6.6365072529476450e+00 6.6365072529476450e+00
-1.0000000000000001e-01 1.0000000000000001e-01
ITEM: ATOMS id type xs ys zs
22 2 0.0200583 0.0159266 0.5
57 3 0.0879711 0.00729126 0.5
40 2 0.467847 0.0527842 0.5
30 2 0.487602 0.0201039 0.5
76 4 0.517614 0.0252778 0.5
67 4 0.552542 0.0202682 0.5
25 2 0.614514 0.0438271 0.5
9 1 0.0355799 0.0814969 0.5
43 3 0.133996 0.0757749 0.5
72 4 0.362001 0.0619225 0.5
38 2 0.411924 0.0593953 0.5
42 3 0.80693 0.0797472 0.5
68 4 0.979987 0.0957155 0.5
52 3 0.081369 0.140321 0.5
61 4 0.412752 0.122391 0.5
73 4 0.372759 0.116163 0.5
49 3 0.480486 0.137677 0.5
1 1 0.98655 0.140908 0.5
47 3 0.386675 0.173261 0.5
74 4 0.43877 0.163298 0.5
60 3 0.965127 0.202114 0.5
32 2 0.158986 0.235014 0.5
3 1 0.440175 0.225756 0.5
55 3 0.127295 0.270175 0.5
15 1 0.252972 0.285221 0.5
34 2 0.349026 0.265081 0.5
29 2 0.464853 0.276176 0.5
66 4 0.796471 0.281626 0.5
53 3 0.936911 0.309582 0.5
56 3 0.145881 0.316421 0.5
24 2 0.189679 0.35391 0.5
50 3 0.293707 0.324983 0.5
2 1 0.340939 0.335465 0.5
63 4 0.599389 0.340134 0.5
7 1 0.900153 0.359492 0.5
64 4 0.039048 0.370525 0.5
41 3 0.0986777 0.385006 0.5
5 1 0.55848 0.410324 0.5
35 2 0.552828 0.37082 0.5
54 3 0.925778 0.406596 0.5
51 3 0.418422 0.422596 0.5
17 1 0.612893 0.464969 0.5
27 2 0.682308 0.440875 0.5
71 4 0.0112716 0.525638 0.5
62 4 0.0543573 0.499601 0.5
19 1 0.291667 0.516782 0.5
69 4 0.460801 0.510026 0.5
39 2 0.630118 0.504104 0.5
8 1 0.458437 0.572973 0.5
65 4 0.494437 0.549081 0.5
37 2 0.72406 0.570882 0.5
46 3 0.801443 0.545056 0.5
44 3 0.190532 0.579898 0.5
16 1 0.257413 0.606295 0.5
75 4 0.0161619 0.632373 0.5
12 1 0.190736 0.647135 0.5
79 4 0.913349 0.655121 0.5
33 2 0.0153604 0.709391 0.5
26 2 0.513519 0.707948 0.5
21 2 0.0948333 0.757811 0.5
59 3 0.156233 0.761499 0.5
70 4 0.257201 0.777493 0.5
18 1 0.751279 0.7524 0.5
20 1 0.981804 0.779735 0.5
10 1 0.406908 0.811681 0.5
13 1 0.443406 0.824135 0.5
45 3 0.56758 0.855931 0.5
80 4 0.554355 0.884874 0.5
11 1 0.624337 0.846569 0.5
78 4 0.845889 0.853381 0.5
23 2 0.95425 0.88143 0.5
48 3 0.200685 0.915732 0.5
6 1 0.330486 0.917337 0.5
14 1 0.387167 0.943793 0.5
36 2 0.398583 0.891874 0.5
31 2 0.477337 0.923676 0.5
58 3 0.963332 0.93062 0.5
77 4 0.514663 0.970122 0.5
28 2 0.550709 0.987146 0.5
4 1 0.779435 0.962242 0.5
ITEM: TIMESTEP
70
ITEM: NUMBER OF ATOMS
80
ITEM: BOX BOUNDS pp pp pp
-6.5060493881640351e+00 6.5060493881640351e+00
-6.5060493881640351e+00 6.5060493881640351e+00
-1.0000000000000001e-01 1.0000000000000001e-01
ITEM: ATOMS id type xs ys zs
22 2 0.0193321 0.0143548 0.5
57 3 0.0884499 0.00716959 0.5
40 2 0.466514 0.0555006 0.5
30 2 0.485823 0.0182565 0.5
76 4 0.519856 0.0257799 0.5
67 4 0.553516 0.0225519 0.5
25 2 0.61478 0.0440039 0.5
9 1 0.0380804 0.0807541 0.5
43 3 0.134 0.0757747 0.5
72 4 0.361179 0.0619656 0.5
38 2 0.411145 0.0593983 0.5
42 3 0.80693 0.0797472 0.5
68 4 0.978382 0.093845 0.5
52 3 0.0817439 0.14074 0.5
61 4 0.413099 0.122547 0.5
73 4 0.372374 0.116114 0.5
49 3 0.480818 0.137475 0.5
1 1 0.985796 0.144001 0.5
47 3 0.386085 0.173124 0.5
74 4 0.438673 0.162942 0.5
60 3 0.964854 0.202908 0.5
32 2 0.160305 0.233426 0.5
3 1 0.439392 0.224066 0.5
55 3 0.125699 0.270972 0.5
15 1 0.251114 0.283571 0.5
34 2 0.349477 0.263371 0.5
29 2 0.466095 0.278718 0.5
66 4 0.796471 0.281626 0.5
53 3 0.937707 0.308399 0.5
56 3 0.145321 0.316495 0.5
24 2 0.190305 0.354818 0.5
50 3 0.292358 0.325738 0.5
2 1 0.343798 0.337925 0.5
63 4 0.599797 0.339774 0.5
7 1 0.898355 0.358687 0.5
64 4 0.0390245 0.370519 0.5
41 3 0.0987012 0.385011 0.5
5 1 0.558397 0.413943 0.5
35 2 0.55186 0.366874 0.5
54 3 0.92678 0.408583 0.5
51 3 0.418422 0.422596 0.5
17 1 0.610724 0.462484 0.5
27 2 0.683932 0.439966 0.5
71 4 0.0112524 0.52565 0.5
62 4 0.0543765 0.499589 0.5
19 1 0.291858 0.516307 0.5
69 4 0.460785 0.50911 0.5
39 2 0.631307 0.508184 0.5
8 1 0.456341 0.575203 0.5
65 4 0.496549 0.547767 0.5
37 2 0.724009 0.570899 0.5
46 3 0.801493 0.545039 0.5
44 3 0.189602 0.578216 0.5
16 1 0.259775 0.606126 0.5
75 4 0.0161619 0.632373 0.5
12 1 0.189112 0.64946 0.5
79 4 0.913349 0.655121 0.5
33 2 0.0157639 0.708442 0.5
26 2 0.513519 0.707948 0.5
21 2 0.0940387 0.757784 0.5
59 3 0.157066 0.761549 0.5
70 4 0.257201 0.777493 0.5
18 1 0.751279 0.7524 0.5
20 1 0.98137 0.780632 0.5
10 1 0.40203 0.809393 0.5
13 1 0.448676 0.825307 0.5
45 3 0.566557 0.854837 0.5
80 4 0.553446 0.886396 0.5
11 1 0.626268 0.846142 0.5
78 4 0.845889 0.853381 0.5
23 2 0.95391 0.87966 0.5
48 3 0.200685 0.915732 0.5
6 1 0.325277 0.916798 0.5
14 1 0.389197 0.948354 0.5
36 2 0.400911 0.888923 0.5
31 2 0.477606 0.92348 0.5
58 3 0.963664 0.932418 0.5
77 4 0.5136 0.969037 0.5
28 2 0.553235 0.984283 0.5
4 1 0.779435 0.962242 0.5
ITEM: TIMESTEP
80
ITEM: NUMBER OF ATOMS
80
ITEM: BOX BOUNDS pp pp pp
-6.4516067774611097e+00 6.4516067774611097e+00
-6.4516067774611097e+00 6.4516067774611097e+00
-1.0000000000000001e-01 1.0000000000000001e-01
ITEM: ATOMS id type xs ys zs
22 2 0.0183753 0.0124685 0.5
57 3 0.0891139 0.00696992 0.5
40 2 0.465163 0.0586487 0.5
30 2 0.483702 0.0161151 0.5
76 4 0.522302 0.026446 0.5
67 4 0.554641 0.0251322 0.5
25 2 0.615202 0.0442809 0.5
9 1 0.0409249 0.0799324 0.5
43 3 0.13403 0.0757732 0.5
72 4 0.360148 0.0620194 0.5
38 2 0.410163 0.0593245 0.5
42 3 0.80693 0.0797472 0.5
68 4 0.976509 0.0917028 0.5
52 3 0.0822604 0.141315 0.5
61 4 0.413549 0.122733 0.5
73 4 0.371849 0.116051 0.5
49 3 0.481272 0.13722 0.5
1 1 0.984939 0.147417 0.5
47 3 0.385253 0.172967 0.5
74 4 0.438578 0.162465 0.5
60 3 0.964486 0.20397 0.5
32 2 0.161796 0.231551 0.5
3 1 0.438639 0.222313 0.5
55 3 0.123807 0.271808 0.5
15 1 0.248963 0.281565 0.5
34 2 0.349967 0.261362 0.5
29 2 0.467526 0.281648 0.5
66 4 0.796471 0.281626 0.5
53 3 0.93868 0.306986 0.5
56 3 0.14466 0.316639 0.5
24 2 0.191023 0.355978 0.5
50 3 0.290835 0.326661 0.5
2 1 0.347129 0.340837 0.5
63 4 0.600358 0.33931 0.5
7 1 0.896205 0.3578 0.5
64 4 0.0389744 0.370507 0.5
41 3 0.0987513 0.385024 0.5
5 1 0.558098 0.417882 0.5
35 2 0.550673 0.36245 0.5
54 3 0.927956 0.410884 0.5
51 3 0.418422 0.422596 0.5
17 1 0.608351 0.459853 0.5
27 2 0.685892 0.438886 0.5
71 4 0.0112127 0.525674 0.5
62 4 0.0544162 0.499565 0.5
19 1 0.292118 0.515638 0.5
69 4 0.460775 0.50801 0.5
39 2 0.632646 0.512844 0.5
8 1 0.453947 0.577805 0.5
65 4 0.498953 0.546266 0.5
37 2 0.723913 0.570931 0.5
46 3 0.801589 0.545007 0.5
44 3 0.188489 0.576226 0.5
16 1 0.262535 0.60605 0.5
75 4 0.0161619 0.632367 0.5
12 1 0.187205 0.652195 0.5
79 4 0.913349 0.655121 0.5
33 2 0.0162299 0.707248 0.5
26 2 0.513519 0.707948 0.5
21 2 0.0930896 0.757773 0.5
59 3 0.158097 0.761611 0.5
70 4 0.257201 0.777493 0.5
18 1 0.751279 0.7524 0.5
20 1 0.980846 0.781695 0.5
10 1 0.39653 0.806653 0.5
13 1 0.454697 0.826442 0.5
45 3 0.565317 0.853551 0.5
80 4 0.552398 0.888177 0.5
11 1 0.628557 0.845646 0.5
78 4 0.845889 0.853381 0.5
23 2 0.953501 0.87766 0.5
48 3 0.200685 0.915732 0.5
6 1 0.319397 0.91616 0.5
14 1 0.391408 0.953584 0.5
36 2 0.403339 0.885819 0.5
31 2 0.478031 0.923201 0.5
58 3 0.964049 0.934505 0.5
77 4 0.512435 0.967815 0.5
28 2 0.556251 0.980897 0.5
4 1 0.779435 0.962242 0.5
ITEM: TIMESTEP
90
ITEM: NUMBER OF ATOMS
80
ITEM: BOX BOUNDS pp pp pp
-6.4599761182538877e+00 6.4599761182538877e+00
-6.4599761182538877e+00 6.4599761182538877e+00
-1.0000000000000001e-01 1.0000000000000001e-01
ITEM: ATOMS id type xs ys zs
22 2 0.0171985 0.0103106 0.5
57 3 0.0899565 0.00668329 0.5
40 2 0.463884 0.0621369 0.5
30 2 0.481334 0.0137374 0.5
76 4 0.52485 0.0272621 0.5
67 4 0.555866 0.0279282 0.5
25 2 0.615784 0.0446594 0.5
9 1 0.043993 0.0790785 0.5
43 3 0.134111 0.0757694 0.5
72 4 0.358921 0.0620838 0.5
38 2 0.408992 0.0591839 0.5
42 3 0.80693 0.0797472 0.5
68 4 0.974431 0.0893529 0.5
52 3 0.0829043 0.142044 0.5
61 4 0.414089 0.122937 0.5
73 4 0.371194 0.115977 0.5
49 3 0.481855 0.136932 0.5
1 1 0.984024 0.151009 0.5
47 3 0.384181 0.172791 0.5
74 4 0.43849 0.161867 0.5
60 3 0.964021 0.2053 0.5
32 2 0.163389 0.229439 0.5
3 1 0.437962 0.220584 0.5
55 3 0.121662 0.272645 0.5
15 1 0.246645 0.279271 0.5
34 2 0.350439 0.259138 0.5
29 2 0.469107 0.284885 0.5
66 4 0.796471 0.281626 0.5
53 3 0.939812 0.305382 0.5
56 3 0.143925 0.316848 0.5
24 2 0.191819 0.357369 0.5
50 3 0.289194 0.327721 0.5
2 1 0.350814 0.344098 0.5
63 4 0.601066 0.338773 0.5
7 1 0.893753 0.356859 0.5
64 4 0.0388951 0.370488 0.5
41 3 0.0988305 0.385043 0.5
5 1 0.557538 0.421979 0.5
35 2 0.549285 0.357677 0.5
54 3 0.929277 0.413429 0.5
51 3 0.418422 0.422596 0.5
17 1 0.605903 0.457181 0.5
27 2 0.688115 0.437688 0.5
71 4 0.0111509 0.525711 0.5
62 4 0.0544781 0.499528 0.5
19 1 0.292442 0.514777 0.5
69 4 0.460776 0.506771 0.5
39 2 0.634111 0.517927 0.5
8 1 0.451332 0.580688 0.5
65 4 0.501567 0.544621 0.5
37 2 0.72377 0.570978 0.5
46 3 0.801732 0.544959 0.5
44 3 0.187239 0.573999 0.5
16 1 0.265594 0.606087 0.5
75 4 0.0161619 0.632343 0.5
12 1 0.185073 0.655247 0.5
79 4 0.913349 0.655121 0.5
33 2 0.0167373 0.705845 0.5
26 2 0.513519 0.707948 0.5
21 2 0.0920197 0.757785 0.5
59 3 0.1593 0.761683 0.5
70 4 0.257201 0.777493 0.5
18 1 0.751279 0.7524 0.5
20 1 0.980253 0.782867 0.5
10 1 0.390567 0.803533 0.5
13 1 0.461297 0.827462 0.5
45 3 0.563885 0.852102 0.5
80 4 0.551262 0.890164 0.5
11 1 0.631124 0.845109 0.5
78 4 0.845889 0.853381 0.5
23 2 0.953026 0.875517 0.5
48 3 0.200685 0.915732 0.5
6 1 0.313066 0.915436 0.5
14 1 0.393695 0.959286 0.5
36 2 0.405747 0.882692 0.5
31 2 0.478606 0.922829 0.5
58 3 0.964477 0.936817 0.5
77 4 0.511216 0.966512 0.5
28 2 0.559667 0.977092 0.5
4 1 0.779435 0.962242 0.5
ITEM: TIMESTEP
100
ITEM: NUMBER OF ATOMS
80
ITEM: BOX BOUNDS pp pp pp
-6.5103403503834762e+00 6.5103403503834762e+00
-6.5103403503834762e+00 6.5103403503834762e+00
-1.0000000000000001e-01 1.0000000000000001e-01
ITEM: ATOMS id type xs ys zs
22 2 0.0158296 0.00793648 0.5
57 3 0.0909547 0.00630858 0.5
40 2 0.462753 0.0658663 0.5
30 2 0.47886 0.0112092 0.5
76 4 0.527402 0.0281976 0.5
67 4 0.557136 0.0308541 0.5
25 2 0.616516 0.0451285 0.5
9 1 0.0471633 0.0782338 0.5
43 3 0.134263 0.075763 0.5
72 4 0.357521 0.0621583 0.5
38 2 0.407659 0.0590041 0.5
42 3 0.80693 0.0797472 0.5
68 4 0.972219 0.0868655 0.5
52 3 0.0836461 0.142919 0.5
61 4 0.414699 0.123151 0.5
73 4 0.370427 0.115894 0.5
49 3 0.482565 0.136637 0.5
1 1 0.983105 0.154631 0.5
47 3 0.382888 0.172596 0.5
74 4 0.43841 0.161156 0.5
60 3 0.963459 0.206891 0.5
32 2 0.165015 0.22715 0.5
3 1 0.437398 0.218948 0.5
55 3 0.119315 0.273445 0.5
15 1 0.244285 0.276776 0.5
34 2 0.350847 0.256787 0.5
29 2 0.470794 0.28834 0.5
66 4 0.796471 0.281626 0.5
53 3 0.941075 0.303633 0.5
56 3 0.143145 0.317111 0.5
24 2 0.192678 0.358955 0.5
50 3 0.287489 0.328892 0.5
2 1 0.354717 0.347585 0.5
63 4 0.601909 0.33819 0.5
7 1 0.891058 0.355893 0.5
64 4 0.0387897 0.370462 0.5
41 3 0.098936 0.385068 0.5
5 1 0.556671 0.426102 0.5
35 2 0.547727 0.352682 0.5
54 3 0.930708 0.416144 0.5
51 3 0.418422 0.422596 0.5
17 1 0.603519 0.454554 0.5
27 2 0.690515 0.436436 0.5
71 4 0.011069 0.525761 0.5
62 4 0.0545599 0.499478 0.5
19 1 0.292818 0.513737 0.5
69 4 0.460788 0.505447 0.5
39 2 0.635676 0.523262 0.5
8 1 0.44858 0.583749 0.5
65 4 0.504307 0.542885 0.5
37 2 0.723585 0.57104 0.5
46 3 0.801918 0.544897 0.5
44 3 0.185904 0.571621 0.5
16 1 0.268839 0.606247 0.5
75 4 0.0161616 0.632293 0.5
12 1 0.182786 0.658504 0.5
79 4 0.913349 0.655121 0.5
33 2 0.0172676 0.70428 0.5
26 2 0.513519 0.707948 0.5
21 2 0.0908644 0.757824 0.5
59 3 0.160638 0.761763 0.5
70 4 0.257201 0.777493 0.5
18 1 0.751279 0.7524 0.5
20 1 0.979618 0.784092 0.5
10 1 0.384305 0.800124 0.5
13 1 0.468294 0.828315 0.5
45 3 0.5623 0.850525 0.5
80 4 0.550081 0.892297 0.5
11 1 0.633891 0.844553 0.5
78 4 0.845889 0.853381 0.5
23 2 0.952493 0.87332 0.5
48 3 0.200685 0.915732 0.5
6 1 0.306516 0.914647 0.5
14 1 0.395926 0.965216 0.5
36 2 0.408031 0.879646 0.5
31 2 0.47931 0.922366 0.5
58 3 0.964932 0.939284 0.5
77 4 0.509996 0.965181 0.5
28 2 0.563358 0.972998 0.5
4 1 0.779435 0.962242 0.5
ITEM: TIMESTEP
110
ITEM: NUMBER OF ATOMS
80
ITEM: BOX BOUNDS pp pp pp
-6.5748217733584147e+00 6.5748217733584147e+00
-6.5748217733584147e+00 6.5748217733584147e+00
-1.0000000000000001e-01 1.0000000000000001e-01
ITEM: ATOMS id type xs ys zs
22 2 0.0143135 0.00541043 0.5
57 3 0.092079 0.00584803 0.5
40 2 0.461827 0.069743 0.5
30 2 0.476405 0.00860652 0.5
76 4 0.52988 0.0292125 0.5
67 4 0.558427 0.0338414 0.5
25 2 0.617378 0.0456696 0.5
9 1 0.0503311 0.0774289 0.5
43 3 0.134498 0.0757544 0.5
72 4 0.355967 0.0622428 0.5
38 2 0.40619 0.0588131 0.5
42 3 0.80693 0.0797472 0.5
68 4 0.969939 0.084302 0.5
52 3 0.0844601 0.14393 0.5
61 4 0.415349 0.123376 0.5
73 4 0.369571 0.115804 0.5
49 3 0.483395 0.136361 0.5
1 1 0.982229 0.158159 0.5
47 3 0.381403 0.172376 0.5
74 4 0.438336 0.160339 0.5
60 3 0.962803 0.208733 0.5
32 2 0.166619 0.224726 0.5
3 1 0.436973 0.217454 0.5
55 3 0.116812 0.274181 0.5
15 1 0.241965 0.274144 0.5
34 2 0.351156 0.254383 0.5
29 2 0.472545 0.291938 0.5
66 4 0.796471 0.281626 0.5
53 3 0.942445 0.301781 0.5
56 3 0.142346 0.317428 0.5
24 2 0.193592 0.360697 0.5
50 3 0.285758 0.330155 0.5
2 1 0.358744 0.351192 0.5
63 4 0.602873 0.337581 0.5
7 1 0.888181 0.354922 0.5
64 4 0.0386639 0.370432 0.5
41 3 0.0990618 0.385099 0.5
5 1 0.555456 0.430161 0.5
35 2 0.546036 0.347566 0.5
54 3 0.932216 0.418967 0.5
51 3 0.41843 0.422605 0.5
17 1 0.601323 0.452028 0.5
27 2 0.693021 0.435175 0.5
71 4 0.0109716 0.52582 0.5
62 4 0.0546573 0.499419 0.5
19 1 0.293233 0.512537 0.5
69 4 0.46081 0.504086 0.5
39 2 0.637311 0.528717 0.5
8 1 0.445764 0.586891 0.5
65 4 0.507101 0.541103 0.5
37 2 0.723368 0.571115 0.5
46 3 0.802137 0.544824 0.5
44 3 0.184535 0.569173 0.5
16 1 0.272169 0.606531 0.5
75 4 0.0161609 0.632212 0.5
12 1 0.18041 0.661868 0.5
79 4 0.913349 0.655121 0.5
33 2 0.0178072 0.7026 0.5
26 2 0.513519 0.707948 0.5
21 2 0.0896538 0.75789 0.5
59 3 0.162076 0.761848 0.5
70 4 0.257201 0.777493 0.5
18 1 0.751279 0.7524 0.5
20 1 0.978964 0.785319 0.5
10 1 0.377882 0.79652 0.5
13 1 0.475513 0.828967 0.5
45 3 0.56062 0.848856 0.5
80 4 0.548882 0.894532 0.5
11 1 0.636797 0.843991 0.5
78 4 0.845889 0.853381 0.5
23 2 0.951906 0.871139 0.5
48 3 0.200685 0.915732 0.5
6 1 0.29994 0.913815 0.5
14 1 0.397993 0.971158 0.5
36 2 0.410116 0.876746 0.5
31 2 0.48011 0.921814 0.5
58 3 0.965394 0.941832 0.5
77 4 0.508822 0.963866 0.5
28 2 0.567201 0.968746 0.5
4 1 0.779435 0.962242 0.5
ITEM: TIMESTEP
120
ITEM: NUMBER OF ATOMS
80
ITEM: BOX BOUNDS pp pp pp
-6.6235466959661267e+00 6.6235466959661267e+00
-6.6235466959661267e+00 6.6235466959661267e+00
-1.0000000000000001e-01 1.0000000000000001e-01
ITEM: ATOMS id type xs ys zs
22 2 0.0126989 0.00278789 0.5
57 3 0.0933038 0.0053019 0.5
40 2 0.461128 0.0737037 0.5
30 2 0.474052 0.00598475 0.5
76 4 0.532251 0.0302568 0.5
67 4 0.559742 0.0368496 0.5
25 2 0.618358 0.046262 0.5
9 1 0.0534183 0.0766821 0.5
43 3 0.134828 0.0757439 0.5
72 4 0.354266 0.0623376 0.5
38 2 0.404606 0.0586383 0.5
42 3 0.80693 0.0797472 0.5
68 4 0.967641 0.0817046 0.5
52 3 0.0853344 0.145068 0.5
61 4 0.416005 0.123619 0.5
73 4 0.368645 0.115711 0.5
49 3 0.484348 0.136127 0.5
1 1 0.981421 0.161507 0.5
47 3 0.379748 0.172124 0.5
74 4 0.438266 0.159421 0.5
60 3 0.962049 0.210826 0.5
32 2 0.168162 0.222188 0.5
3 1 0.4367 0.216127 0.5
55 3 0.114182 0.274836 0.5
15 1 0.23972 0.271421 0.5
34 2 0.351348 0.251981 0.5
29 2 0.47431 0.295614 0.5
66 4 0.796471 0.281626 0.5
53 3 0.9439 0.299854 0.5
56 3 0.141544 0.317801 0.5
24 2 0.194558 0.362563 0.5
50 3 0.284025 0.331501 0.5
2 1 0.362829 0.354836 0.5
63 4 0.603941 0.336961 0.5
7 1 0.885164 0.353959 0.5
64 4 0.0385238 0.370398 0.5