LAMMPS data file via write_data, version 23 Jun 2022, timestep = 10000

80 atoms
4 atom types

-4.802263485452143 4.802263485452143 xlo xhi
-4.802263485452143 4.802263485452143 ylo yhi
-0.1 0.1 zlo zhi

Atoms # sphere

58 3 1 1 -4.242315421357173 -4.1798206355191425 0 1 0 0
3 1 1.6 0.2441406249999999 -1.8214351615467357 -3.889564404077154 0 0 0 0
63 4 0.7 2.915451895043732 -0.8733868081097222 -3.9451071496153105 0 0 0 0
76 4 0.7 2.915451895043732 -0.7488754281585601 -4.425407615268102 0 0 0 0
69 4 0.7 2.915451895043732 -0.21915516901637755 -4.6222728717461985 0 0 0 0
11 1 1.6 0.2441406249999999 0.978193826127101 4.703372593484084 0 0 0 0
51 3 1 1 1.7471476240621335 -4.090411812423545 0 -1 1 0
64 4 0.7 2.915451895043732 2.1392201920942746 -4.633458776481957 0 0 0 0
30 2 1.3 0.4551661356395083 2.8340601633994575 -3.789967152094423 0 0 0 0
24 2 1.3 0.4551661356395083 3.7194674689797163 -4.470312284102238 0 0 0 0
23 2 1.3 0.4551661356395083 -4.782221898487095 -3.140867991285413 0 1 0 0
2 1 1.6 0.2441406249999999 -3.2214312066688073 -3.5468042178462795 0 0 0 0
54 3 1 1 -1.1198811608814827 -3.144452183829762 0 0 0 0
17 1 1.6 0.2441406249999999 0.2013066512516506 -3.566759392486449 0 0 0 0
59 3 1 1 1.3894795629031274 -3.2953032394176045 0 0 0 0
15 1 1.6 0.2441406249999999 2.3932145175648536 -2.5059940325296552 0 0 0 0
75 4 0.7 2.915451895043732 4.3286309600438875 -3.8763610748460358 0 0 0 0
22 2 1.3 0.4551661356395083 3.5707095728854013 -2.98323744542731 0 0 0 0
74 4 0.7 2.915451895043732 -4.404687621035601 -2.23579456361836 0 1 0 0
77 4 0.7 2.915451895043732 -3.940233978325219 -2.7265672164008836 0 0 0 0
14 1 1.6 0.2441406249999999 -2.185723646053544 -2.332981394977157 0 0 0 0
7 1 1.6 0.2441406249999999 -0.4640046434372014 -2.094077472552164 0 0 0 0
39 2 1.3 0.4551661356395083 0.9165394308950638 -2.394475757675756 0 0 0 0
61 4 0.7 2.915451895043732 1.5261983989186536 -1.466660008188803 0 -1 0 0
70 4 0.7 2.915451895043732 2.9165578540731447 -1.1572898370770606 0 0 0 0
71 4 0.7 2.915451895043732 3.737580352643426 -2.028908796201704 0 0 0 0
47 3 1 1 4.550255528405573 -1.9326730465840618 0 0 0 0
35 2 1.3 0.4551661356395083 3.864763531774906 -1.2855522620676845 0 0 0 0
79 4 0.7 2.915451895043732 -4.39639543268309 -1.5050003128894316 0 0 0 0
21 2 1.3 0.4551661356395083 -3.4091861161564525 -2.0584878588489377 0 0 0 0
5 1 1.6 0.2441406249999999 -1.5270283724300087 -1.07892484323715 0 0 0 0
52 3 1 1 -0.11777729423889927 -0.9135166741250029 0 0 0 0
36 2 1.3 0.4551661356395083 0.788500622506322 -1.2379603855630426 0 0 0 0
20 1 1.6 0.2441406249999999 2.0866750370509193 -0.44207112601866605 0 0 0 0
73 4 0.7 2.915451895043732 2.5128920483586965 -1.4388201443414887 0 0 0 0
28 2 1.3 0.4551661356395083 3.4042485164872494 -0.21696701055098444 0 0 0 0
1 1 1.6 0.2441406249999999 -4.330290290793157 -0.5695025676452952 0 0 0 0
13 1 1.6 0.2441406249999999 -2.8778277297173878 -0.8057895723435489 0 1 0 0
9 1 1.6 0.2441406249999999 -2.041113129431969 0.39531503527195877 0 0 0 0
6 1 1.6 0.2441406249999999 -0.6585824358516579 0.11644935223314956 0 0 0 0
12 1 1.6 0.2441406249999999 0.7804888491641631 0.13588240328416568 0 0 0 0
62 4 0.7 2.915451895043732 2.727713812963583 0.4682449960978978 0 0 1 0
56 3 1 1 4.32573046919597 0.1861247677032738 0 -1 0 0
66 4 0.7 2.915451895043732 -4.499449960754549 0.6653626725843749 0 1 0 0
27 2 1.3 0.4551661356395083 -3.5988851026812587 0.47098497459201916 0 0 0 0
43 3 1 1 -1.0595521202791103 1.185241377576431 0 0 0 0
57 3 1 1 -0.10611361816636755 0.9566701879508495 0 0 0 0
4 1 1.6 0.2441406249999999 0.8744888072019528 1.729822283291754 0 0 0 0
60 3 1 1 1.8986431664725556 0.9224161659721171 0 0 0 0
44 3 1 1 2.011097206589848 1.9193993223024925 0 0 0 0
38 2 1.3 0.4551661356395083 2.885617999509967 1.300415630237345 0 0 0 0
48 3 1 1 -4.080628092922584 1.4548560793575502 0 0 0 0
53 3 1 1 -4.55872014316484 2.280977595483299 0 0 0 0
25 2 1.3 0.4551661356395083 -3.414336289582166 2.563345403667314 0 0 0 0
40 2 1.3 0.4551661356395083 -2.8871436909256882 1.5159426712084665 0 1 0 0
26 2 1.3 0.4551661356395083 -1.7989087758449283 1.9196176131014315 0 0 0 0
16 1 1.6 0.2441406249999999 -0.4835765502828364 2.22692515628491 0 0 0 0
18 1 1.6 0.2441406249999999 2.9677373735987373 2.63397301346268 0 -1 0 0
10 1 1.6 0.2441406249999999 4.159106781776928 1.4545087081225496 0 -1 0 0
49 3 1 1 -4.096418398801146 3.2276406227517986 0 1 0 0
68 4 0.7 2.915451895043732 -2.892467358268053 3.5657101206513504 0 1 0 0
41 3 1 1 -2.5475280039368657 2.7855783784237076 0 0 -1 0
45 3 1 1 -1.937194348487119 3.7960519658996423 0 0 -1 0
50 3 1 1 -1.6946317206818047 2.9001803843084604 0 0 -1 0
34 2 1.3 0.4551661356395083 0.3812028884458982 3.4959738148713795 0 0 0 0
80 4 0.7 2.915451895043732 1.3055866810373757 3.6863730508899097 0 0 0 0
32 2 1.3 0.4551661356395083 1.4943298385798993 2.8615971463546934 0 0 0 0
72 4 0.7 2.915451895043732 4.063990759162688 2.5136062786512703 0 -1 0 0
65 4 0.7 2.915451895043732 4.580699890894027 2.9822653824018603 0 -1 0 0
31 2 1.3 0.4551661356395083 -4.742979012817077 4.718990582672782 0 0 0 0
46 3 1 1 -4.596288105543058 3.729475320920568 0 1 0 0
42 3 1 1 -3.5042979271184995 -4.799384028794265 0 0 1 0
55 3 1 1 -3.509633065092477 3.9698460789100745 0 1 -1 0
37 2 1.3 0.4551661356395083 -2.571364836744908 4.584074445093413 0 0 -1 0
33 2 1.3 0.4551661356395083 -0.8358337030773253 3.5403879968525773 0 0 0 0
29 2 1.3 0.4551661356395083 -1.1941824044394802 4.616662251151815 0 0 0 0
78 4 0.7 2.915451895043732 -0.2180366022734468 4.374289512699979 0 0 -1 0
8 1 1.6 0.2441406249999999 2.2782048296731174 3.9847414847069595 0 0 0 0
67 4 0.7 2.915451895043732 3.070097223971132 4.6679557394176365 0 0 -1 0
19 1 1.6 0.2441406249999999 3.8120343790042464 3.8306504098781753 0 -1 -1 0

Velocities

58 -0.0894331972188941 0.014054421782477254 0 0 0 0
3 -0.21706748753358693 -0.0465994287957213 0 0 0 0
63 0.032518851758589234 0.12769218694387885 0 0 0 0
76 -0.10682373983565137 -0.047105984783970434 0 0 0 0
69 0.1432141510981626 -0.022260647935510757 0 0 0 0
11 0.016447119110577266 -0.04557979919101194 0 0 0 0
51 -0.13525008096855537 -0.019650228632735512 0 0 0 0
64 -0.0005325627542858481 -0.0880079316543035 0 0 0 0
30 0.08083410333456299 0.008303073405390157 0 0 0 0
24 0.0335522068276674 -0.017485027441964646 0 0 0 0
23 -0.14209893948604996 -0.019883700186259318 0 0 0 0
2 0.09903968156655091 0.12187391235331334 0 0 0 0
54 -0.040894589142334035 0.06452788193545493 0 0 0 0
17 0.07040919912461353 -0.12215588935953603 0 0 0 0
59 0.08837464360291811 0.006052815927351528 0 0 0 0
15 0.19538363879925577 0.09261295911826185 0 0 0 0
75 0.09441261690897422 0.020434717779156893 0 0 0 0
22 -0.06566328202325776 0.1582853278474024 0 0 0 0
74 0.014439769762456716 0.19187778918777382 0 0 0 0
77 -0.1367462975828939 -0.05349734068105244 0 0 0 0
14 -0.1646764579390261 0.0732081788032544 0 0 0 0
7 -0.11825401335382814 0.22211251094006124 0 0 0 0
39 0.11494847181070345 0.10402608047052 0 0 0 0
61 0.0071289468835903065 0.034257685638207705 0 0 0 0
70 -0.12872768656107691 -0.028666452513531386 0 0 0 0
71 -0.09943188539183204 0.01070556801982141 0 0 0 0
47 -0.21812162559861156 0.05047624694801701 0 0 0 0
35 -0.19756361922418217 -0.04435141569086657 0 0 0 0
79 0.0765651655984768 -0.07489770561075236 0 0 0 0
21 -0.0492958054342026 -0.07765498017963804 0 0 0 0
5 0.08038155400012047 0.03562478180124042 0 0 0 0
52 0.06433064003600275 -0.0891930467928631 0 0 0 0
36 0.09831801414013354 0.1870221160040379 0 0 0 0
20 0.02176137546344025 -0.11672808176689771 0 0 0 0
73 -0.018126872860296364 -0.1541823751674305 0 0 0 0
28 -0.05660324669321567 0.1533924772963755 0 0 0 0
1 0.1367098198947429 -0.02174710934338331 0 0 0 0
13 0.08317446186739894 -0.08176776080265574 0 0 0 0
9 -0.028569886091845933 -0.10262208171836078 0 0 0 0
6 0.0636904617383517 0.048864695657057235 0 0 0 0
12 -0.05529472699574541 -0.15005856546871107 0 0 0 0
62 0.07796988803458207 0.014464238942721957 0 0 0 0
56 0.22451172430451055 -0.03920838365563452 0 0 0 0
66 0.2856254432675933 -0.29133639464169747 0 0 0 0
27 -0.14691237174974284 -0.014451858796611464 0 0 0 0
43 0.08168947930404397 0.018678430271397935 0 0 0 0
57 -0.005729991203272303 -0.12286312270405285 0 0 0 0
4 -0.08554646290975851 -0.007155630347553733 0 0 0 0
60 -0.2084819179686599 0.17521817365965586 0 0 0 0
44 0.05089259392745355 -0.12520325657731154 0 0 0 0
38 -0.12348232580359628 0.0967647057108565 0 0 0 0
48 -0.025153257079657456 0.043836943070803484 0 0 0 0
53 -0.07712104715215416 0.0010981351636832743 0 0 0 0
25 0.14115455518880102 0.05883641485004472 0 0 0 0
40 0.028951654136976836 -0.1948315688047899 0 0 0 0
26 0.10585629916091913 -0.009782936005529727 0 0 0 0
16 -0.1031171576442551 0.051083257796419194 0 0 0 0
18 0.01422600662036943 0.0116517531929661 0 0 0 0
10 -0.15754236688682552 0.14781517326995547 0 0 0 0
49 -0.07010895539191511 0.15370429192590915 0 0 0 0
68 -0.09234226823157614 0.07374710555289223 0 0 0 0
41 -0.09466590101287267 -0.015527912595165456 0 0 0 0
45 0.011264465495842743 -0.07544196255296533 0 0 0 0
50 0.16890731714232352 -0.07752649696344323 0 0 0 0
34 -0.08975666670946461 -0.06772664461661869 0 0 0 0
80 -0.01922534913537192 -0.09590447001192728 0 0 0 0
32 0.19266846631422907 0.005365826691460272 0 0 0 0
72 -0.0017327750030211666 0.11319637048023502 0 0 0 0
65 0.008448025352344773 0.04967405285294056 0 0 0 0
31 -0.10723552188201607 0.1925839577687153 0 0 0 0
46 0.0655834607901115 -0.02089135749007629 0 0 0 0
42 0.13164179489824146 -0.11755495437714138 0 0 0 0
55 -0.025002754742685186 0.17108937029049012 0 0 0 0
37 0.015611318478518228 -0.2511883750832083 0 0 0 0
33 0.08303455366507544 -0.020781911093079124 0 0 0 0
29 0.20338868231062618 -0.07080287908098794 0 0 0 0
78 -0.008035797552288063 -0.14578390815349182 0 0 0 0
8 -0.015463634126594265 0.017136910324794655 0 0 0 0
67 0.05903940094206785 0.08117842856229876 0 0 0 0
19 -0.04026749778682291 -0.014469390968857068 0 0 0 0
