LAMMPS data file.

     36 atoms
     78 bonds
      0 angles
      0 dihedrals
      0 impropers
      1 atom types
     78 bond types
      0 angle types
      0 dihedral types
      0 improper types
  -4.802263   4.802263 xlo xhi
  -4.802263   4.802263 ylo yhi
  -0.100000   0.100000 zlo zhi

Masses # ['atom_id', 'mass']

1 10000.0

Atoms # ['atomID', 'moleculeID', 'atomType', 'charge', 'x', 'y', 'z']

     58      1      1   0.000000  -4.242315  -4.179821   0.000000
      3      1      1   0.000000  -1.821435  -3.889564   0.000000
     11      1      1   0.000000   0.978194   4.703373   0.000000
     24      1      1   0.000000   3.719467  -4.470312   0.000000
      2      1      1   0.000000  -3.221431  -3.546804   0.000000
     14      1      1   0.000000  -2.185724  -2.332981   0.000000
      5      1      1   0.000000  -1.527028  -1.078925   0.000000
      9      1      1   0.000000  -2.041113   0.395315   0.000000
      6      1      1   0.000000  -0.658582   0.116449   0.000000
     12      1      1   0.000000   0.780489   0.135882   0.000000
     43      1      1   0.000000  -1.059552   1.185241   0.000000
     57      1      1   0.000000  -0.106114   0.956670   0.000000
      4      1      1   0.000000   0.874489   1.729822   0.000000
     44      1      1   0.000000   2.011097   1.919399   0.000000
     25      1      1   0.000000  -3.414336   2.563345   0.000000
     40      1      1   0.000000  -2.887144   1.515943   0.000000
     26      1      1   0.000000  -1.798909   1.919618   0.000000
     16      1      1   0.000000  -0.483577   2.226925   0.000000
     18      1      1   0.000000   2.967737   2.633973   0.000000
     49      1      1   0.000000  -4.096418   3.227641   0.000000
     41      1      1   0.000000  -2.547528   2.785578   0.000000
     45      1      1   0.000000  -1.937194   3.796052   0.000000
     50      1      1   0.000000  -1.694632   2.900180   0.000000
     34      1      1   0.000000   0.381203   3.495974   0.000000
     80      1      1   0.000000   1.305587   3.686373   0.000000
     32      1      1   0.000000   1.494330   2.861597   0.000000
     31      1      1   0.000000  -4.742979   4.718991   0.000000
     46      1      1   0.000000  -4.596288   3.729475   0.000000
     42      1      1   0.000000  -3.504298  -4.799384   0.000000
     55      1      1   0.000000  -3.509633   3.969846   0.000000
     37      1      1   0.000000  -2.571365   4.584074   0.000000
     33      1      1   0.000000  -0.835834   3.540388   0.000000
     29      1      1   0.000000  -1.194182   4.616662   0.000000
      8      1      1   0.000000   2.278205   3.984741   0.000000
     67      1      1   0.000000   3.070097   4.667956   0.000000
     19      1      1   0.000000   3.812034   3.830650   0.000000

Bond Coeffs # ['bondID', 'bondCoeff', 'd']

      1   0.727281   1.172597
      2   0.685046   1.208204
      3   1.040269   0.980454
      4   1.350319   0.860561
      5   0.876060   1.068398
      6   0.988931   1.005581
      7   0.920847   1.042092
      8   1.396884   0.846096
      9   0.799009   1.118727
     10   0.609204   1.281205
     11   1.160871   0.928129
     12   0.551204   1.346926
     13   0.693894   1.200476
     14   0.693894   1.200476
     15   0.540754   1.359879
     16   0.507209   1.404127
     17   0.391289   1.598642
     18   0.753115   1.152310
     19   1.117086   0.946143
     20   0.871536   1.071168
     21   0.629943   1.259939
     22   1.335651   0.865274
     23   1.335651   0.865274
     24   0.606439   1.284122
     25   0.458060   1.477538
     26   0.693042   1.201214
     27   0.481354   1.441344
     28   0.434777   1.516585
     29   0.533074   1.369640
     30   0.782253   1.130646
     31   0.966174   1.017354
     32   0.502725   1.410375
     33   0.977372   1.011510
     34   0.392764   1.595637
     35   0.742275   1.160693
     36   1.564751   0.799424
     37   1.564751   0.799424
     38   0.600558   1.290394
     39   0.420809   1.541550
     40   0.625113   1.264796
     41   0.625113   1.264796
     42   0.410228   1.561303
     43   1.076973   0.963602
     44   0.466228   1.464539
     45   1.248838   0.894843
     46   1.993192   0.708313
     47   0.914181   1.045885
     48   0.677159   1.215220
     49   0.767405   1.141531
     50   0.482788   1.439202
     51   0.674240   1.217847
     52   0.498371   1.416523
     53   0.585532   1.306847
     54   0.585532   1.306847
     55   0.763173   1.144692
     56   0.528925   1.375001
     57   0.528925   1.375001
     58   0.865962   1.074609
     59   0.999342   1.000329
     60   0.478137   1.446186
     61   1.028408   0.986092
     62   1.122666   0.943789
     63   0.543094   1.356946
     64   0.543094   1.356946
     65   1.433179   0.835314
     66   1.433179   0.835314
     67   0.816015   1.107009
     68   0.795150   1.121438
     69   0.392237   1.596709
     70   0.548084   1.350754
     71   0.641295   1.248737
     72   0.453215   1.485416
     73   1.087861   0.958768
     74   1.087861   0.958768
     75   1.103115   0.952116
     76   0.777134   1.134363
     77   0.705790   1.190316
     78   0.701372   1.194059

Bonds # ['ID', 'type', 'atom1', 'atom2']

         1         1        25        40
         2         2        12        57
         3         3        43        57
         4         4        41        50
         5         5        11        80
         6         6         6        57
         7         7        43        26
         8         8        80        32
         9         9        67        19
        10        10        34        32
        11        11        45        50
        12        12        11        34
        13        13        46        19
        14        14        19        46
        15        15        16        33
        16        16         9        40
        17        17         3        14
        18        18         4        44
        19        19        49        55
        20        20        50        33
        21        21         9        43
        22        22        58        31
        23        23        31        58
        24        24         2        42
        25        25         5         6
        26        26        58         2
        27        27         3         2
        28        28        18         8
        29        29        32         8
        30        30        45        33
        31        31        80         8
        32        32         9         6
        33        33        45        37
        34        34         2        14
        35        35        40        26
        36        36        24        67
        37        37        67        24
        38        38         4        32
        39        39         8        19
        40        40         3        29
        41        41        29         3
        42        42         5         9
        43        43        58        42
        44        44        18        19
        45        45        25        41
        46        46        49        46
        47        47         8        67
        48        48        24        31
        49        49         6        43
        50        50         6        12
        51        51        34        33
        52        52        14         5
        53        53        19        24
        54        54        24        19
        55        55        26        41
        56        56        31        19
        57        57        19        31
        58        58        44        32
        59        59        31        46
        60        60         4        16
        61        61        26        50
        62        62        34        80
        63        63        37         3
        64        64         3        37
        65        65        42        55
        66        66        55        42
        67        67        45        29
        68        68        55        37
        69        69        12         4
        70        70        26        16
        71        71        57         4
        72        72        11         8
        73        73        42        37
        74        74        37        42
        75        75        25        49
        76        76        33        29
        77        77        43        16
        78        78        44        18
