ITEM: TIMESTEP
0
ITEM: NUMBER OF ATOMS
80
ITEM: BOX BOUNDS pp pp pp
-1.0000000000000000e+01 1.0000000000000000e+01
-1.0000000000000000e+01 1.0000000000000000e+01
-1.0000000000000001e-01 1.0000000000000001e-01
ITEM: ATOMS id type xs ys zs
24 2 0.4231 0.0490251 0.5
41 3 0.542456 0.0508683 0.5
47 3 0.579404 0.0395843 0.5
70 4 0.799312 0.0437819 0.5
15 1 0.955199 0.0309851 0.5
19 1 0.158034 0.0770884 0.5
63 4 0.180821 0.0643656 0.5
77 4 0.214259 0.0569554 0.5
30 2 0.74505 0.063527 0.5
2 1 0.113831 0.154165 0.5
37 2 0.140602 0.1054 0.5
67 4 0.60178 0.122259 0.5
58 3 0.825854 0.132179 0.5
76 4 0.253775 0.188853 0.5
64 4 0.616658 0.173911 0.5
59 3 0.645576 0.191505 0.5
3 1 0.221352 0.259157 0.5
52 3 0.376287 0.256743 0.5
45 3 0.451611 0.233541 0.5
23 2 0.895475 0.240508 0.5
72 4 0.0270313 0.314631 0.5
1 1 0.123833 0.267121 0.5
21 2 0.167626 0.296695 0.5
79 4 0.178216 0.269811 0.5
69 4 0.492847 0.284069 0.5
35 2 0.571208 0.292316 0.5
54 3 0.638916 0.266895 0.5
28 2 0.761487 0.310789 0.5
55 3 0.756427 0.263403 0.5
71 4 0.773622 0.264915 0.5
50 3 0.803134 0.274591 0.5
22 2 0.942363 0.299034 0.5
74 4 0.97818 0.27645 0.5
39 2 0.495112 0.340165 0.5
36 2 0.734535 0.335688 0.5
68 4 0.764225 0.328948 0.5
40 2 0.947541 0.325466 0.5
14 1 0.0836207 0.41324 0.5
48 3 0.425323 0.410844 0.5
49 3 0.498447 0.403844 0.5
73 4 0.58127 0.411053 0.5
17 1 0.749234 0.369046 0.5
60 3 0.756136 0.371335 0.5
56 3 0.0678566 0.465791 0.5
5 1 0.168587 0.433369 0.5
42 3 0.234454 0.472886 0.5
7 1 0.390458 0.429736 0.5
78 4 0.704972 0.462114 0.5
13 1 0.937018 0.458999 0.5
27 2 0.011692 0.507735 0.5
65 4 0.202981 0.509688 0.5
9 1 0.434437 0.578799 0.5
75 4 0.507619 0.548906 0.5
20 1 0.883594 0.560472 0.5
31 2 0.347093 0.591773 0.5
43 3 0.463651 0.587253 0.5
4 1 0.737289 0.613369 0.5
18 1 0.0976172 0.652213 0.5
33 2 0.261835 0.660065 0.5
12 1 0.538147 0.639406 0.5
8 1 0.848732 0.641434 0.5
53 3 0.522265 0.706024 0.5
62 4 0.524289 0.721257 0.5
6 1 0.686246 0.735138 0.5
66 4 0.848438 0.691303 0.5
10 1 0.135822 0.766436 0.5
16 1 0.478477 0.757696 0.5
46 3 0.734381 0.74523 0.5
38 2 0.945365 0.75541 0.5
29 2 0.337347 0.794474 0.5
32 2 0.972738 0.80954 0.5
57 3 0.751999 0.851207 0.5
26 2 0.118992 0.898011 0.5
11 1 0.39376 0.932594 0.5
44 3 0.69173 0.89991 0.5
51 3 0.00713826 0.972708 0.5
25 2 0.0983504 0.975363 0.5
61 4 0.0640776 0.952308 0.5
34 2 0.520852 0.959396 0.5
80 4 0.778484 0.983848 0.5
ITEM: TIMESTEP
10
ITEM: NUMBER OF ATOMS
80
ITEM: BOX BOUNDS pp pp pp
-9.2486519055872716e+00 9.2486519055872716e+00
-9.2486519055872716e+00 9.2486519055872716e+00
-1.0000000000000001e-01 1.0000000000000001e-01
ITEM: ATOMS id type xs ys zs
24 2 0.4231 0.0490251 0.5
41 3 0.542414 0.0508811 0.5
47 3 0.579446 0.0395715 0.5
70 4 0.799312 0.0437819 0.5
15 1 0.955199 0.0309851 0.5
19 1 0.158008 0.0770209 0.5
63 4 0.180919 0.0643097 0.5
77 4 0.214264 0.0569543 0.5
30 2 0.74505 0.063527 0.5
2 1 0.1138 0.154222 0.5
37 2 0.140557 0.105467 0.5
67 4 0.60178 0.122259 0.5
58 3 0.825854 0.132179 0.5
76 4 0.253775 0.188853 0.5
64 4 0.616629 0.173894 0.5
59 3 0.645604 0.191522 0.5
3 1 0.221424 0.259128 0.5
52 3 0.376287 0.256743 0.5
45 3 0.451611 0.233541 0.5
23 2 0.895475 0.240508 0.5
72 4 0.0270313 0.314631 0.5
1 1 0.123757 0.267078 0.5
21 2 0.167636 0.296827 0.5
79 4 0.17821 0.26975 0.5
69 4 0.492847 0.284069 0.5
35 2 0.571208 0.292316 0.5
54 3 0.638916 0.266895 0.5
28 2 0.76155 0.310609 0.5
55 3 0.75632 0.263354 0.5
71 4 0.773677 0.264898 0.5
50 3 0.803194 0.274599 0.5
22 2 0.94231 0.298911 0.5
74 4 0.978206 0.276434 0.5
39 2 0.495112 0.340165 0.5
36 2 0.7343 0.335601 0.5
68 4 0.764334 0.328994 0.5
40 2 0.947568 0.325605 0.5
14 1 0.0836322 0.413201 0.5
48 3 0.425407 0.410799 0.5
49 3 0.498447 0.403844 0.5
73 4 0.58127 0.411053 0.5
17 1 0.749055 0.369205 0.5
60 3 0.756369 0.371454 0.5
56 3 0.0678451 0.46583 0.5
5 1 0.168587 0.433369 0.5
42 3 0.234454 0.472886 0.5
7 1 0.390374 0.429781 0.5
78 4 0.704972 0.462114 0.5
13 1 0.937018 0.458999 0.5
27 2 0.011692 0.507735 0.5
65 4 0.202981 0.509688 0.5
9 1 0.434313 0.578764 0.5
75 4 0.507619 0.548906 0.5
20 1 0.883594 0.560472 0.5
31 2 0.347093 0.591773 0.5
43 3 0.463775 0.587289 0.5
4 1 0.737289 0.613369 0.5
18 1 0.0976172 0.652213 0.5
33 2 0.261835 0.660065 0.5
12 1 0.538147 0.639406 0.5
8 1 0.848732 0.641404 0.5
53 3 0.522252 0.705925 0.5
62 4 0.524303 0.721356 0.5
6 1 0.686186 0.735126 0.5
66 4 0.848437 0.691333 0.5
10 1 0.135822 0.766436 0.5
16 1 0.478476 0.757696 0.5
46 3 0.734441 0.745243 0.5
38 2 0.945357 0.755392 0.5
29 2 0.337347 0.794474 0.5
32 2 0.972747 0.809557 0.5
57 3 0.751999 0.851207 0.5
26 2 0.118992 0.898011 0.5
11 1 0.39376 0.932594 0.5
44 3 0.69173 0.89991 0.5
51 3 0.00713826 0.972708 0.5
25 2 0.0983787 0.975382 0.5
61 4 0.0640493 0.952289 0.5
34 2 0.520852 0.959396 0.5
80 4 0.778484 0.983848 0.5
ITEM: TIMESTEP
20
ITEM: NUMBER OF ATOMS
80
ITEM: BOX BOUNDS pp pp pp
-8.3209075691229462e+00 8.3209075691229462e+00
-8.3209075691229462e+00 8.3209075691229462e+00
-1.0000000000000001e-01 1.0000000000000001e-01
ITEM: ATOMS id type xs ys zs
24 2 0.4231 0.0490251 0.5
41 3 0.542249 0.0509315 0.5
47 3 0.579611 0.0395211 0.5
70 4 0.799313 0.0437818 0.5
15 1 0.955199 0.0309851 0.5
19 1 0.157898 0.0767781 0.5
63 4 0.181255 0.0641116 0.5
77 4 0.214317 0.0569399 0.5
30 2 0.74505 0.0635272 0.5
2 1 0.113674 0.154452 0.5
37 2 0.140404 0.105694 0.5
67 4 0.60178 0.122259 0.5
58 3 0.825854 0.132179 0.5
76 4 0.253775 0.188853 0.5
64 4 0.616515 0.173824 0.5
59 3 0.645719 0.191592 0.5
3 1 0.221727 0.259004 0.5
52 3 0.376287 0.256743 0.5
45 3 0.451611 0.233541 0.5
23 2 0.895474 0.240507 0.5
72 4 0.0270313 0.314631 0.5
1 1 0.123442 0.266912 0.5
21 2 0.16766 0.297337 0.5
79 4 0.178199 0.26953 0.5
69 4 0.492847 0.284066 0.5
35 2 0.571208 0.292316 0.5
54 3 0.638916 0.266895 0.5
28 2 0.761765 0.309989 0.5
55 3 0.755912 0.263151 0.5
71 4 0.773869 0.26481 0.5
50 3 0.803462 0.27462 0.5
22 2 0.942104 0.298482 0.5
74 4 0.978315 0.276366 0.5
39 2 0.495111 0.340163 0.5
36 2 0.733434 0.33528 0.5
68 4 0.764742 0.329125 0.5
40 2 0.947666 0.326103 0.5
14 1 0.0836711 0.413038 0.5
48 3 0.425718 0.410631 0.5
49 3 0.498448 0.403849 0.5
73 4 0.58127 0.411053 0.5
17 1 0.748419 0.369834 0.5
60 3 0.757197 0.371906 0.5
56 3 0.0677968 0.465991 0.5
5 1 0.168596 0.433371 0.5
42 3 0.234455 0.472885 0.5
7 1 0.390064 0.42995 0.5
78 4 0.704972 0.462114 0.5
13 1 0.937018 0.458999 0.5
27 2 0.011692 0.507735 0.5
65 4 0.202981 0.509689 0.5
9 1 0.433866 0.578634 0.5
75 4 0.507619 0.548906 0.5
20 1 0.883597 0.560465 0.5
31 2 0.347093 0.591773 0.5
43 3 0.464222 0.587418 0.5
4 1 0.737289 0.613369 0.5
18 1 0.0976172 0.652213 0.5
33 2 0.261835 0.660065 0.5
12 1 0.538152 0.639387 0.5
8 1 0.84873 0.641278 0.5
53 3 0.522214 0.70557 0.5
62 4 0.524374 0.721693 0.5
6 1 0.685954 0.735077 0.5
66 4 0.848437 0.691466 0.5
10 1 0.135822 0.766436 0.5
16 1 0.478438 0.757732 0.5
46 3 0.734673 0.745291 0.5
38 2 0.945313 0.755306 0.5
29 2 0.337347 0.794474 0.5
32 2 0.972791 0.809644 0.5
57 3 0.751999 0.851207 0.5
26 2 0.118992 0.898011 0.5
11 1 0.39376 0.932594 0.5
44 3 0.69173 0.89991 0.5
51 3 0.00713826 0.972708 0.5
25 2 0.098495 0.97546 0.5
61 4 0.063933 0.952211 0.5
34 2 0.520852 0.959396 0.5
80 4 0.778484 0.983848 0.5
ITEM: TIMESTEP
30
ITEM: NUMBER OF ATOMS
80
ITEM: BOX BOUNDS pp pp pp
-7.6275285614451809e+00 7.6275285614451809e+00
-7.6275285614451809e+00 7.6275285614451809e+00
-1.0000000000000001e-01 1.0000000000000001e-01
ITEM: ATOMS id type xs ys zs
24 2 0.4231 0.0490251 0.5
41 3 0.541899 0.0510384 0.5
47 3 0.579961 0.0394143 0.5
70 4 0.799331 0.0437753 0.5
15 1 0.955193 0.0309916 0.5
19 1 0.15765 0.0762738 0.5
63 4 0.181892 0.0637233 0.5
77 4 0.214507 0.0568867 0.5
30 2 0.745032 0.0635337 0.5
2 1 0.113384 0.154978 0.5
37 2 0.140115 0.106112 0.5
67 4 0.60178 0.122259 0.5
58 3 0.825854 0.132179 0.5
76 4 0.253775 0.188853 0.5
64 4 0.616268 0.173674 0.5
59 3 0.645966 0.191742 0.5
3 1 0.222399 0.258721 0.5
52 3 0.376287 0.256743 0.5
45 3 0.451611 0.233541 0.5
23 2 0.895455 0.240484 0.5
72 4 0.0270313 0.314631 0.5
1 1 0.122746 0.266565 0.5
21 2 0.167687 0.298397 0.5
79 4 0.178195 0.2691 0.5
69 4 0.492846 0.284034 0.5
35 2 0.571207 0.292316 0.5
54 3 0.638917 0.266895 0.5
28 2 0.762161 0.308828 0.5
55 3 0.755071 0.2627 0.5
71 4 0.774231 0.264584 0.5
50 3 0.80409 0.274642 0.5
22 2 0.941687 0.297687 0.5
74 4 0.978566 0.276203 0.5
39 2 0.49511 0.34015 0.5
36 2 0.731704 0.334633 0.5
68 4 0.76557 0.329314 0.5
40 2 0.947852 0.327084 0.5
14 1 0.0837038 0.412662 0.5
48 3 0.42634 0.410293 0.5
49 3 0.49845 0.403893 0.5
73 4 0.58127 0.411053 0.5
17 1 0.74718 0.371177 0.5
60 3 0.758792 0.372837 0.5
56 3 0.0676937 0.466345 0.5
5 1 0.168658 0.433382 0.5
42 3 0.234481 0.472877 0.5
7 1 0.389442 0.430287 0.5
78 4 0.704972 0.462114 0.5
13 1 0.937015 0.458996 0.5
27 2 0.0116911 0.50774 0.5
65 4 0.202967 0.509705 0.5
9 1 0.432999 0.57838 0.5
75 4 0.507619 0.548906 0.5
20 1 0.883624 0.560401 0.5
31 2 0.347085 0.591775 0.5
43 3 0.465097 0.587671 0.5
4 1 0.737289 0.613369 0.5
18 1 0.0976172 0.652213 0.5
33 2 0.261835 0.660065 0.5
12 1 0.538174 0.639293 0.5
8 1 0.848705 0.64104 0.5
53 3 0.522164 0.704899 0.5
62 4 0.524557 0.72231 0.5
6 1 0.685467 0.734975 0.5
66 4 0.848435 0.691767 0.5
10 1 0.135822 0.766436 0.5
16 1 0.478282 0.757881 0.5
46 3 0.735161 0.745394 0.5
38 2 0.945202 0.755086 0.5
29 2 0.337347 0.794474 0.5
32 2 0.972902 0.809863 0.5
57 3 0.751999 0.851207 0.5
26 2 0.118993 0.898008 0.5
11 1 0.39376 0.932594 0.5
44 3 0.69173 0.89991 0.5
51 3 0.00714407 0.972701 0.5
25 2 0.098749 0.975635 0.5
61 4 0.0636782 0.95204 0.5
34 2 0.520852 0.959396 0.5
80 4 0.778484 0.983848 0.5
ITEM: TIMESTEP
40
ITEM: NUMBER OF ATOMS
80
ITEM: BOX BOUNDS pp pp pp
-7.1358933623450680e+00 7.1358933623450680e+00
-7.1358933623450680e+00 7.1358933623450680e+00
-1.0000000000000001e-01 1.0000000000000001e-01
ITEM: ATOMS id type xs ys zs
24 2 0.4231 0.0490251 0.5
41 3 0.541309 0.0512184 0.5
47 3 0.58055 0.0392342 0.5
70 4 0.799404 0.0437485 0.5
15 1 0.955152 0.0310374 0.5
19 1 0.157218 0.075407 0.5
63 4 0.182891 0.0630953 0.5
77 4 0.214924 0.0567697 0.5
30 2 0.744959 0.0635605 0.5
2 1 0.112854 0.15594 0.5
37 2 0.139661 0.106763 0.5
67 4 0.60178 0.122259 0.5
58 3 0.825854 0.132179 0.5
76 4 0.253776 0.188849 0.5
64 4 0.615848 0.173419 0.5
59 3 0.646386 0.191997 0.5
3 1 0.223593 0.258223 0.5
52 3 0.376287 0.256743 0.5
45 3 0.451611 0.233541 0.5
23 2 0.89538 0.240391 0.5
72 4 0.0270313 0.314631 0.5
1 1 0.121514 0.265986 0.5
21 2 0.167711 0.300162 0.5
79 4 0.178207 0.268416 0.5
69 4 0.492842 0.283929 0.5
35 2 0.571185 0.292324 0.5
54 3 0.638939 0.266887 0.5
28 2 0.762754 0.307075 0.5
55 3 0.753684 0.261908 0.5
71 4 0.774792 0.264149 0.5
50 3 0.805221 0.274652 0.5
22 2 0.941024 0.296511 0.5
74 4 0.979027 0.275892 0.5
39 2 0.495107 0.34012 0.5
36 2 0.728921 0.333587 0.5
68 4 0.766918 0.329542 0.5
40 2 0.948129 0.328665 0.5
14 1 0.0836798 0.411988 0.5
48 3 0.427347 0.409748 0.5
49 3 0.498457 0.404028 0.5
73 4 0.58127 0.411053 0.5
17 1 0.745215 0.373464 0.5
60 3 0.761295 0.374337 0.5
56 3 0.0675453 0.46694 0.5
5 1 0.168802 0.433393 0.5
42 3 0.234598 0.472858 0.5
7 1 0.388435 0.430832 0.5
78 4 0.704972 0.462114 0.5
13 1 0.936976 0.458971 0.5
27 2 0.0116919 0.507794 0.5
65 4 0.202917 0.509763 0.5
9 1 0.431678 0.577967 0.5
75 4 0.50762 0.548905 0.5
20 1 0.883705 0.560214 0.5
31 2 0.347018 0.591785 0.5
43 3 0.466484 0.588074 0.5
4 1 0.737289 0.613369 0.5
18 1 0.0976172 0.652213 0.5
33 2 0.261835 0.660065 0.5
12 1 0.538232 0.639057 0.5
8 1 0.848626 0.640695 0.5
53 3 0.522113 0.70387 0.5
62 4 0.524908 0.723234 0.5
6 1 0.684649 0.734803 0.5
66 4 0.848432 0.6923 0.5
10 1 0.135822 0.766436 0.5
16 1 0.477925 0.758222 0.5
46 3 0.735978 0.745565 0.5
38 2 0.944993 0.754673 0.5
29 2 0.337347 0.794474 0.5
32 2 0.97311 0.810276 0.5
57 3 0.751999 0.851207 0.5
26 2 0.119003 0.89797 0.5
11 1 0.39376 0.932594 0.5
44 3 0.69173 0.89991 0.5
51 3 0.00718491 0.972655 0.5
25 2 0.0991785 0.975968 0.5
61 4 0.0632389 0.951744 0.5
34 2 0.520852 0.959396 0.5
80 4 0.778484 0.983848 0.5
ITEM: TIMESTEP
50
ITEM: NUMBER OF ATOMS
80
ITEM: BOX BOUNDS pp pp pp
-6.7953026376639265e+00 6.7953026376639265e+00
-6.7953026376639265e+00 6.7953026376639265e+00
-1.0000000000000001e-01 1.0000000000000001e-01
ITEM: ATOMS id type xs ys zs
24 2 0.4231 0.0490251 0.5
41 3 0.540448 0.0514815 0.5
47 3 0.581412 0.0389711 0.5
70 4 0.799569 0.0436887 0.5
15 1 0.955045 0.0311576 0.5
19 1 0.156558 0.0741007 0.5
63 4 0.184278 0.0622078 0.5
77 4 0.215645 0.0565719 0.5
30 2 0.744794 0.0636203 0.5
2 1 0.112032 0.157417 0.5
37 2 0.139034 0.107661 0.5
67 4 0.60178 0.122259 0.5
58 3 0.825854 0.132179 0.5
76 4 0.253792 0.188813 0.5
64 4 0.615231 0.173043 0.5
59 3 0.647003 0.192373 0.5
3 1 0.225409 0.257501 0.5
52 3 0.376287 0.256743 0.5
45 3 0.451611 0.233541 0.5
23 2 0.89521 0.240182 0.5
72 4 0.0270313 0.314631 0.5
1 1 0.119639 0.265162 0.5
21 2 0.167728 0.302719 0.5
79 4 0.178235 0.267459 0.5
69 4 0.492833 0.283711 0.5
35 2 0.571116 0.292348 0.5
54 3 0.639018 0.266857 0.5
28 2 0.763536 0.304776 0.5
55 3 0.751696 0.260686 0.5
71 4 0.775558 0.26345 0.5
50 3 0.806949 0.274639 0.5
22 2 0.940104 0.294978 0.5
74 4 0.979746 0.275395 0.5
39 2 0.495093 0.340073 0.5
36 2 0.725001 0.332133 0.5
68 4 0.768833 0.329802 0.5
40 2 0.948499 0.330903 0.5
14 1 0.083552 0.410955 0.5
48 3 0.42877 0.408975 0.5
49 3 0.498474 0.404299 0.5
73 4 0.58127 0.411053 0.5
17 1 0.74247 0.376821 0.5
60 3 0.764755 0.376409 0.5
56 3 0.0673761 0.467794 0.5
5 1 0.169045 0.433395 0.5
42 3 0.234868 0.472831 0.5
7 1 0.387009 0.431605 0.5
78 4 0.704972 0.462114 0.5
13 1 0.936859 0.458893 0.5
27 2 0.0117008 0.50795 0.5
65 4 0.20281 0.509888 0.5
9 1 0.429926 0.577377 0.5
75 4 0.507636 0.54889 0.5
20 1 0.883865 0.559845 0.5
31 2 0.34683 0.591815 0.5
43 3 0.468387 0.588636 0.5
4 1 0.737287 0.613369 0.5
18 1 0.0976172 0.652213 0.5
33 2 0.261835 0.660065 0.5
12 1 0.538358 0.638636 0.5
8 1 0.848471 0.64026 0.5
53 3 0.522067 0.702483 0.5
62 4 0.52547 0.724462 0.5
6 1 0.68346 0.734554 0.5
66 4 0.848428 0.693106 0.5
10 1 0.135822 0.766436 0.5
16 1 0.477302 0.758817 0.5
46 3 0.737167 0.745814 0.5
38 2 0.944666 0.754026 0.5
29 2 0.337347 0.794474 0.5
32 2 0.973438 0.810923 0.5
57 3 0.751999 0.851207 0.5
26 2 0.119032 0.897854 0.5
11 1 0.39376 0.932594 0.5
44 3 0.69173 0.89991 0.5
51 3 0.00728878 0.972536 0.5
25 2 0.0998014 0.976523 0.5
61 4 0.0625896 0.951304 0.5
34 2 0.520852 0.959396 0.5
80 4 0.778484 0.983848 0.5
ITEM: TIMESTEP
60
ITEM: NUMBER OF ATOMS
80
ITEM: BOX BOUNDS pp pp pp
-6.5501496562126160e+00 6.5501496562126160e+00
-6.5501496562126160e+00 6.5501496562126160e+00
-1.0000000000000001e-01 1.0000000000000001e-01
ITEM: ATOMS id type xs ys zs
24 2 0.4231 0.0490251 0.5
41 3 0.5393 0.0518322 0.5
47 3 0.58256 0.0386205 0.5
70 4 0.79985 0.0435864 0.5
15 1 0.954848 0.0313793 0.5
19 1 0.155629 0.0722956 0.5
63 4 0.186055 0.0610651 0.5
77 4 0.216724 0.0562854 0.5
30 2 0.744513 0.0637225 0.5
2 1 0.110884 0.159417 0.5
37 2 0.138247 0.108808 0.5
67 4 0.60178 0.122258 0.5
58 3 0.825854 0.132179 0.5
76 4 0.253836 0.188706 0.5
64 4 0.614405 0.172541 0.5
59 3 0.64783 0.192875 0.5
3 1 0.227883 0.256575 0.5
52 3 0.376287 0.256743 0.5
45 3 0.451611 0.233541 0.5
23 2 0.894914 0.239817 0.5
72 4 0.0270313 0.314631 0.5
1 1 0.117077 0.264131 0.5
21 2 0.167741 0.306103 0.5
79 4 0.178272 0.266226 0.5
69 4 0.492818 0.283353 0.5
35 2 0.570995 0.292382 0.5
54 3 0.639184 0.266796 0.5
28 2 0.764485 0.302034 0.5
55 3 0.749091 0.258971 0.5
71 4 0.776532 0.26244 0.5
50 3 0.809329 0.274595 0.5
22 2 0.938932 0.293129 0.5
74 4 0.980751 0.274701 0.5
39 2 0.495039 0.340021 0.5
36 2 0.719946 0.330291 0.5
68 4 0.771319 0.330107 0.5
40 2 0.948963 0.33381 0.5
14 1 0.083282 0.409526 0.5
48 3 0.430597 0.407972 0.5
49 3 0.498526 0.404737 0.5
73 4 0.58127 0.411053 0.5
17 1 0.738938 0.381284 0.5
60 3 0.769159 0.378993 0.5
56 3 0.0672126 0.468908 0.5
5 1 0.169392 0.433374 0.5
42 3 0.235341 0.472797 0.5
7 1 0.385153 0.432611 0.5
78 4 0.704972 0.462114 0.5
13 1 0.936642 0.458717 0.5
27 2 0.0117204 0.508254 0.5
65 4 0.202633 0.510105 0.5
9 1 0.427782 0.576598 0.5
75 4 0.507699 0.548836 0.5
20 1 0.884113 0.559271 0.5
31 2 0.34647 0.591875 0.5
43 3 0.470752 0.589353 0.5
4 1 0.737263 0.613363 0.5
18 1 0.0976171 0.652212 0.5
33 2 0.261835 0.660065 0.5
12 1 0.538604 0.638011 0.5
8 1 0.848239 0.639759 0.5
53 3 0.522025 0.70076 0.5
62 4 0.526274 0.725978 0.5
6 1 0.681879 0.734223 0.5
66 4 0.848423 0.694211 0.5
10 1 0.135822 0.766436 0.5
16 1 0.476371 0.759702 0.5
46 3 0.738748 0.746146 0.5
38 2 0.944206 0.753118 0.5
29 2 0.337347 0.794474 0.5
32 2 0.973897 0.811832 0.5
57 3 0.751999 0.851207 0.5
26 2 0.119089 0.897627 0.5
11 1 0.39376 0.932594 0.5
44 3 0.69173 0.89991 0.5
51 3 0.00746121 0.972324 0.5
25 2 0.100624 0.977343 0.5
61 4 0.0617351 0.950701 0.5
34 2 0.520852 0.959396 0.5
80 4 0.778484 0.983848 0.5
ITEM: TIMESTEP
70
ITEM: NUMBER OF ATOMS
80
ITEM: BOX BOUNDS pp pp pp
-6.3810037004922053e+00 6.3810037004922053e+00
-6.3810037004922053e+00 6.3810037004922053e+00
-1.0000000000000001e-01 1.0000000000000001e-01
ITEM: ATOMS id type xs ys zs
24 2 0.4231 0.0490251 0.5
41 3 0.537866 0.0522698 0.5
47 3 0.583993 0.0381828 0.5
70 4 0.800265 0.0434354 0.5
15 1 0.954543 0.0317213 0.5
19 1 0.154403 0.0699626 0.5
63 4 0.188203 0.0596935 0.5
77 4 0.218198 0.0559121 0.5
30 2 0.744098 0.0638735 0.5
2 1 0.109397 0.161907 0.5
37 2 0.137332 0.110192 0.5
67 4 0.601777 0.122246 0.5
58 3 0.825854 0.132179 0.5
76 4 0.253922 0.188493 0.5
64 4 0.613371 0.171922 0.5
59 3 0.648867 0.193492 0.5
3 1 0.230994 0.255486 0.5
52 3 0.376287 0.256743 0.5
45 3 0.451609 0.233538 0.5
23 2 0.894462 0.239265 0.5
72 4 0.0270313 0.314631 0.5
1 1 0.113847 0.26295 0.5
21 2 0.167757 0.310296 0.5
79 4 0.178303 0.264729 0.5
69 4 0.4928 0.282835 0.5
35 2 0.570824 0.292419 0.5
54 3 0.639459 0.266706 0.5
28 2 0.765565 0.298998 0.5
55 3 0.745889 0.256737 0.5
71 4 0.777703 0.261088 0.5
50 3 0.812369 0.274516 0.5
22 2 0.937523 0.291017 0.5
74 4 0.98205 0.273818 0.5
39 2 0.494921 0.339977 0.5
36 2 0.713849 0.328113 0.5
68 4 0.774328 0.330482 0.5
40 2 0.949523 0.337358 0.5
14 1 0.0828413 0.407685 0.5
48 3 0.43278 0.406745 0.5
49 3 0.498648 0.405362 0.5
73 4 0.58127 0.411053 0.5
17 1 0.734672 0.386782 0.5
60 3 0.774427 0.381989 0.5
56 3 0.0670826 0.470271 0.5
5 1 0.169838 0.433305 0.5
42 3 0.236051 0.472762 0.5
7 1 0.382881 0.433842 0.5
78 4 0.704968 0.462124 0.5
13 1 0.936318 0.458397 0.5
27 2 0.0117495 0.508738 0.5
65 4 0.202386 0.510443 0.5
9 1 0.425303 0.57563 0.5
75 4 0.507834 0.548718 0.5
20 1 0.884447 0.558495 0.5
31 2 0.345892 0.591976 0.5
43 3 0.473503 0.590215 0.5
4 1 0.737183 0.613344 0.5
18 1 0.0976131 0.6522 0.5
33 2 0.261835 0.660065 0.5
12 1 0.539017 0.637176 0.5
8 1 0.847948 0.639222 0.5
53 3 0.521979 0.698748 0.5
62 4 0.527338 0.727759 0.5
6 1 0.679911 0.73381 0.5
66 4 0.848419 0.695623 0.5
10 1 0.135826 0.766448 0.5
16 1 0.475112 0.760891 0.5
46 3 0.740716 0.746558 0.5
38 2 0.943611 0.75194 0.5
29 2 0.337347 0.794474 0.5
32 2 0.974493 0.813009 0.5
57 3 0.751999 0.851207 0.5
26 2 0.119177 0.897266 0.5
11 1 0.39376 0.932594 0.5
44 3 0.691729 0.899911 0.5
51 3 0.00769706 0.972009 0.5
25 2 0.101637 0.978442 0.5
61 4 0.0606969 0.949926 0.5
34 2 0.520852 0.959396 0.5
80 4 0.778484 0.983848 0.5
ITEM: TIMESTEP
80
ITEM: NUMBER OF ATOMS
80
ITEM: BOX BOUNDS pp pp pp
-6.2771708880869124e+00 6.2771708880869124e+00
-6.2771708880869124e+00 6.2771708880869124e+00
-1.0000000000000001e-01 1.0000000000000001e-01
ITEM: ATOMS id type xs ys zs
24 2 0.4231 0.0490251 0.5
41 3 0.53617 0.0527881 0.5
47 3 0.58569 0.0376646 0.5
70 4 0.800819 0.0432336 0.5
15 1 0.954123 0.0321924 0.5
19 1 0.152876 0.0671306 0.5
63 4 0.190673 0.0581392 0.5
77 4 0.220076 0.0554639 0.5
30 2 0.743543 0.0640754 0.5
2 1 0.107586 0.164819 0.5
37 2 0.136334 0.111781 0.5
67 4 0.601768 0.122208 0.5
58 3 0.825854 0.132179 0.5
76 4 0.254054 0.188143 0.5
64 4 0.612149 0.171211 0.5
59 3 0.650104 0.194195 0.5
3 1 0.234662 0.254293 0.5
52 3 0.376287 0.256743 0.5
45 3 0.451597 0.233523 0.5
23 2 0.893845 0.2385 0.5
72 4 0.0270313 0.314631 0.5
1 1 0.11003 0.261693 0.5
21 2 0.167786 0.315216 0.5
79 4 0.178312 0.263001 0.5
69 4 0.492784 0.282159 0.5
35 2 0.57061 0.292454 0.5
54 3 0.63985 0.266603 0.5
28 2 0.766723 0.295846 0.5
55 3 0.742149 0.254006 0.5
71 4 0.779056 0.259378 0.5
50 3 0.81602 0.274409 0.5
22 2 0.935913 0.28871 0.5
74 4 0.983628 0.272776 0.5
39 2 0.494723 0.339952 0.5
36 2 0.706903 0.325675 0.5
68 4 0.777764 0.33096 0.5
40 2 0.950181 0.341468 0.5
14 1 0.0822128 0.405442 0.5
48 3 0.435247 0.405318 0.5
49 3 0.498873 0.406185 0.5
73 4 0.58127 0.411053 0.5
17 1 0.729802 0.393106 0.5
60 3 0.780406 0.385259 0.5
56 3 0.0670135 0.471856 0.5
5 1 0.17037 0.433173 0.5
42 3 0.237015 0.47273 0.5
7 1 0.380233 0.435277 0.5
78 4 0.704941 0.462194 0.5
13 1 0.935886 0.457895 0.5
27 2 0.0117824 0.509423 0.5
65 4 0.20207 0.510921 0.5
9 1 0.422571 0.574477 0.5
75 4 0.508052 0.54852 0.5
20 1 0.884861 0.557529 0.5
31 2 0.345067 0.592127 0.5
43 3 0.476542 0.591201 0.5
4 1 0.73702 0.613306 0.5
18 1 0.0975983 0.652156 0.5
33 2 0.261835 0.660065 0.5
12 1 0.53964 0.636135 0.5
8 1 0.847615 0.638679 0.5
53 3 0.521913 0.696515 0.5
62 4 0.528661 0.729768 0.5
6 1 0.677586 0.733323 0.5
66 4 0.848417 0.697333 0.5
10 1 0.135841 0.766492 0.5
16 1 0.473531 0.762371 0.5
46 3 0.743041 0.747046 0.5
38 2 0.942884 0.750502 0.5
29 2 0.337347 0.794474 0.5
32 2 0.97522 0.814447 0.5
57 3 0.752004 0.851203 0.5
26 2 0.119297 0.896761 0.5
11 1 0.39376 0.932594 0.5
44 3 0.691725 0.899914 0.5
51 3 0.00798577 0.971591 0.5
25 2 0.102802 0.979783 0.5
61 4 0.0595092 0.948978 0.5
34 2 0.520852 0.959396 0.5
80 4 0.778484 0.983848 0.5
ITEM: TIMESTEP
90
ITEM: NUMBER OF ATOMS
80
ITEM: BOX BOUNDS pp pp pp
-6.2272422797546652e+00 6.2272422797546652e+00
-6.2272422797546652e+00 6.2272422797546652e+00
-1.0000000000000001e-01 1.0000000000000001e-01
ITEM: ATOMS id type xs ys zs
24 2 0.4231 0.0490251 0.5
41 3 0.534246 0.0533755 0.5
47 3 0.587613 0.0370771 0.5
70 4 0.801509 0.0429825 0.5
15 1 0.95359 0.0327913 0.5
19 1 0.151069 0.0638654 0.5
63 4 0.193394 0.0564622 0.5
77 4 0.222341 0.0549605 0.5
30 2 0.742853 0.0643265 0.5
2 1 0.105485 0.168052 0.5
37 2 0.135315 0.113531 0.5
67 4 0.601751 0.122131 0.5
58 3 0.825854 0.132179 0.5
76 4 0.254234 0.187634 0.5
64 4 0.610767 0.170437 0.5
59 3 0.651516 0.194954 0.5
3 1 0.23876 0.253067 0.5
52 3 0.376281 0.256745 0.5
45 3 0.451572 0.233485 0.5
23 2 0.893081 0.237496 0.5
72 4 0.0270313 0.314631 0.5
1 1 0.105757 0.260442 0.5
21 2 0.167838 0.320724 0.5
79 4 0.178282 0.261092 0.5
69 4 0.492774 0.281335 0.5
35 2 0.570365 0.292483 0.5
54 3 0.640346 0.266485 0.5
28 2 0.767894 0.292765 0.5
55 3 0.737972 0.250842 0.5
71 4 0.780563 0.257314 0.5
50 3 0.820165 0.27429 0.5
22 2 0.934152 0.286285 0.5
74 4 0.985447 0.271624 0.5
39 2 0.494446 0.339938 0.5
36 2 0.699373 0.323079 0.5
68 4 0.781482 0.331573 0.5
40 2 0.950934 0.346025 0.5
14 1 0.0813922 0.402832 0.5
48 3 0.437898 0.403734 0.5
49 3 0.499225 0.407204 0.5
73 4 0.58127 0.411053 0.5
17 1 0.724511 0.399959 0.5
60 3 0.786902 0.388662 0.5
56 3 0.0670299 0.473623 0.5
5 1 0.170971 0.432972 0.5
42 3 0.238232 0.472708 0.5
7 1 0.37727 0.436884 0.5
78 4 0.70487 0.462384 0.5
13 1 0.935357 0.457196 0.5
27 2 0.0118101 0.510313 0.5
65 4 0.201692 0.51154 0.5
9 1 0.419688 0.573147 0.5
75 4 0.508351 0.548232 0.5
20 1 0.885346 0.556394 0.5
31 2 0.343978 0.592337 0.5
43 3 0.47976 0.592285 0.5
4 1 0.73676 0.613245 0.5
18 1 0.0975682 0.652066 0.5
33 2 0.261835 0.660065 0.5
12 1 0.540505 0.634903 0.5
8 1 0.847255 0.638155 0.5
53 3 0.52181 0.694146 0.5
62 4 0.530228 0.731958 0.5
6 1 0.674954 0.732771 0.5
66 4 0.848417 0.699313 0.5
10 1 0.135871 0.766582 0.5
16 1 0.471657 0.764106 0.5
46 3 0.745673 0.747598 0.5
38 2 0.942039 0.748832 0.5
29 2 0.337347 0.794474 0.5
32 2 0.976064 0.816117 0.5
57 3 0.752021 0.85119 0.5
26 2 0.119446 0.896114 0.5
11 1 0.39376 0.932594 0.5
44 3 0.691708 0.899928 0.5
51 3 0.00831243 0.971079 0.5
25 2 0.104069 0.981302 0.5
61 4 0.0582138 0.94787 0.5
34 2 0.520852 0.959396 0.5
80 4 0.778484 0.983848 0.5
ITEM: TIMESTEP
100
ITEM: NUMBER OF ATOMS
80
ITEM: BOX BOUNDS pp pp pp
-6.2201830223603842e+00 6.2201830223603842e+00
-6.2201830223603842e+00 6.2201830223603842e+00
-1.0000000000000001e-01 1.0000000000000001e-01
ITEM: ATOMS id type xs ys zs
24 2 0.4231 0.0490251 0.5
41 3 0.532144 0.0540174 0.5
47 3 0.589715 0.0364352 0.5
70 4 0.802321 0.0426871 0.5
15 1 0.952952 0.0335081 0.5
19 1 0.14902 0.0602612 0.5
63 4 0.19629 0.0547191 0.5
77 4 0.224953 0.0544253 0.5
30 2 0.742042 0.0646218 0.5
2 1 0.103144 0.171485 0.5
37 2 0.13433 0.115392 0.5
67 4 0.601725 0.122006 0.5
58 3 0.825854 0.132179 0.5
76 4 0.254455 0.186952 0.5
64 4 0.609259 0.16963 0.5
59 3 0.653071 0.195741 0.5
3 1 0.243161 0.251882 0.5
52 3 0.376265 0.25675 0.5
45 3 0.451534 0.233417 0.5
23 2 0.892194 0.236237 0.5
72 4 0.0270313 0.314631 0.5
1 1 0.101162 0.259283 0.5
21 2 0.167922 0.326616 0.5
79 4 0.178199 0.259061 0.5
69 4 0.492769 0.280379 0.5
35 2 0.570104 0.292501 0.5
54 3 0.640899 0.266328 0.5
28 2 0.769001 0.289895 0.5
55 3 0.733457 0.247332 0.5
71 4 0.782194 0.254913 0.5
50 3 0.82468 0.274186 0.5
22 2 0.932298 0.283823 0.5
74 4 0.987461 0.270409 0.5
39 2 0.494106 0.339919 0.5
36 2 0.691527 0.320421 0.5
68 4 0.785339 0.332352 0.5
40 2 0.951776 0.350877 0.5
14 1 0.0803865 0.399908 0.5
48 3 0.440624 0.402049 0.5
49 3 0.499721 0.40841 0.5
73 4 0.58127 0.411053 0.5
17 1 0.719003 0.407014 0.5
60 3 0.793741 0.392121 0.5
56 3 0.0671516 0.475523 0.5
5 1 0.171625 0.432729 0.5
42 3 0.239686 0.472703 0.5
7 1 0.374068 0.438621 0.5
78 4 0.704745 0.462752 0.5
13 1 0.93474 0.456321 0.5
27 2 0.0118205 0.511402 0.5
65 4 0.20126 0.512289 0.5
9 1 0.416761 0.571656 0.5
75 4 0.508714 0.547848 0.5
20 1 0.885893 0.555117 0.5
31 2 0.342623 0.592614 0.5
43 3 0.48305 0.593436 0.5
4 1 0.736395 0.61316 0.5
18 1 0.0975212 0.651925 0.5
33 2 0.261835 0.660065 0.5
12 1 0.541636 0.633503 0.5
8 1 0.846877 0.637674 0.5
53 3 0.521647 0.691732 0.5
62 4 0.532007 0.734282 0.5
6 1 0.672083 0.732169 0.5
66 4 0.848422 0.701525 0.5
10 1 0.135918 0.766723 0.5
16 1 0.46954 0.766044 0.5
46 3 0.748544 0.7482 0.5
38 2 0.941097 0.746969 0.5
29 2 0.337347 0.794474 0.5
32 2 0.977006 0.81798 0.5
57 3 0.752051 0.851165 0.5
26 2 0.119619 0.895341 0.5
11 1 0.39376 0.932594 0.5
44 3 0.691677 0.899953 0.5
51 3 0.00865953 0.970487 0.5
25 2 0.105384 0.982922 0.5
61 4 0.0568575 0.946619 0.5
34 2 0.520852 0.959396 0.5
80 4 0.778484 0.983848 0.5
ITEM: TIMESTEP
110
ITEM: NUMBER OF ATOMS
80
ITEM: BOX BOUNDS pp pp pp
-6.2429189233262168e+00 6.2429189233262168e+00
-6.2429189233262168e+00 6.2429189233262168e+00
-1.0000000000000001e-01 1.0000000000000001e-01
ITEM: ATOMS id type xs ys zs
24 2 0.4231 0.0490251 0.5
41 3 0.529916 0.0546978 0.5
47 3 0.591943 0.0357549 0.5
70 4 0.803235 0.0423547 0.5
15 1 0.952224 0.0343273 0.5
19 1 0.146782 0.0564329 0.5
63 4 0.199292 0.0529469 0.5
77 4 0.227856 0.053881 0.5
30 2 0.741128 0.0649542 0.5
2 1 0.100621 0.174995 0.5
37 2 0.133417 0.117327 0.5
67 4 0.60169 0.121827 0.5
58 3 0.825854 0.132179 0.5
76 4 0.254706 0.186094 0.5
64 4 0.607662 0.16882 0.5
59 3 0.654734 0.196527 0.5
3 1 0.247753 0.250808 0.5
52 3 0.37624 0.256758 0.5
45 3 0.451479 0.233316 0.5
23 2 0.891213 0.234709 0.5
72 4 0.0270289 0.314633 0.5
1 1 0.0963659 0.2583 0.5
21 2 0.168058 0.332646 0.5
79 4 0.178049 0.256975 0.5
69 4 0.492773 0.279312 0.5
35 2 0.569835 0.292508 0.5
54 3 0.641464 0.266097 0.5
28 2 0.769985 0.28729 0.5
55 3 0.728693 0.243569 0.5
71 4 0.783918 0.252202 0.5
50 3 0.829455 0.27413 0.5
22 2 0.930413 0.281399 0.5
74 4 0.989626 0.26916 0.5
39 2 0.493716 0.339881 0.5
36 2 0.683573 0.317798 0.5
68 4 0.789264 0.333297 0.5
40 2 0.952692 0.355877 0.5
14 1 0.0792001 0.396743 0.5
48 3 0.443325 0.400313 0.5
49 3 0.500372 0.40979 0.5
73 4 0.58127 0.411053 0.5
17 1 0.713434 0.414022 0.5
60 3 0.800757 0.395586 0.5
56 3 0.0673921 0.477505 0.5
5 1 0.172314 0.432494 0.5
42 3 0.24135 0.472721 0.5
7 1 0.370704 0.440447 0.5
78 4 0.704561 0.463351 0.5
13 1 0.934049 0.455315 0.5
27 2 0.0118 0.512673 0.5
65 4 0.200785 0.51315 0.5
9 1 0.413876 0.57002 0.5
75 4 0.509127 0.547366 0.5
20 1 0.886492 0.553726 0.5
31 2 0.341013 0.592964 0.5
43 3 0.486313 0.594623 0.5
4 1 0.735929 0.613054 0.5
18 1 0.0974579 0.651736 0.5
33 2 0.261835 0.660065 0.5
12 1 0.54305 0.631962 0.5
8 1 0.84649 0.637252 0.5
53 3 0.521403 0.689364 0.5
62 4 0.533956 0.736693 0.5
6 1 0.669044 0.731532 0.5
66 4 0.848431 0.703927 0.5
10 1 0.135982 0.766912 0.5
16 1 0.467238 0.768122 0.5
46 3 0.751583 0.748837 0.5
38 2 0.940081 0.744959 0.5
29 2 0.337347 0.794474 0.5
32 2 0.978023 0.81999 0.5
57 3 0.752097 0.851129 0.5
26 2 0.119809 0.894463 0.5
11 1 0.39376 0.932594 0.5
44 3 0.691632 0.899989 0.5
51 3 0.00900878 0.969837 0.5
25 2 0.106692 0.98456 0.5
61 4 0.0554859 0.945246 0.5
34 2 0.520852 0.959396 0.5
80 4 0.778484 0.983848 0.5
ITEM: TIMESTEP
120
ITEM: NUMBER OF ATOMS
80
ITEM: BOX BOUNDS pp pp pp
-6.2745899069168916e+00 6.2745899069168916e+00
-6.2745899069168916e+00 6.2745899069168916e+00
-1.0000000000000001e-01 1.0000000000000001e-01
ITEM: ATOMS id type xs ys zs
24 2 0.4231 0.0490251 0.5
41 3 0.52761 0.055402 0.5
47 3 0.594249 0.0350506 0.5
70 4 0.804229 0.0419928 0.5
15 1 0.95142 0.0352318 0.5
19 1 0.144417 0.0524939 0.5
63 4 0.202347 0.0511671 0.5
77 4 0.230994 0.0533454 0.5
30 2 0.740134 0.0653162 0.5
2 1 0.0979643 0.178473 0.5
37 2 0.132602 0.119307 0.5
67 4 0.601648 0.12159 0.5
58 3 0.825854 0.132179 0.5
76 4 0.254974 0.18506 0.5
64 4 0.606009 0.168029 0.5
59 3 0.656471 0.197289 0.5
3 1 0.252445 0.249902 0.5
52 3 0.376207 0.256768 0.5
45 3 0.451405 0.233182 0.5
23 2 0.89016 0.232901 0.5
72 4 0.0270119 0.314647 0.5
1 1 0.0914825 0.257557 0.5
21 2 0.168269 0.338586 0.5
79 4 0.177825 0.254895 0.5
69 4 0.49279 0.278151 0.5
35 2 0.569564 0.292503 0.5
54 3 0.642004 0.265759 0.5
28 2 0.770795 0.284965 0.5
55 3 0.723761 0.23964 0.5
71 4 0.785707 0.24921 0.5
50 3 0.834392 0.27415 0.5
22 2 0.928552 0.279079 0.5
74 4 0.991901 0.267894 0.5
39 2 0.493292 0.33981 0.5
36 2 0.675673 0.315294 0.5
68 4 0.793225 0.334392 0.5
40 2 0.95367 0.360902 0.5
14 1 0.0778301 0.393413 0.5
48 3 0.445918 0.398569 0.5
49 3 0.50118 0.411331 0.5