LAMMPS data file via write_data, version 23 Jun 2022, timestep = 10000

80 atoms
4 atom types

-4.809450790308598 4.809450790308598 xlo xhi
-4.809450790308598 4.809450790308598 ylo yhi
-0.1 0.1 zlo zhi

Atoms # sphere

28 2 1.3 0.4551661356395083 -4.202208690233305 -4.471409172333863 0 1 1 0
2 1 1.6 0.2441406249999999 -2.940854906322138 -4.269488839957554 0 1 1 0
73 4 0.7 2.915451895043732 -0.8631640571497234 4.385405521260901 0 0 -1 0
55 3 1 1 -1.6138784003453845 -4.341460004678806 0 1 0 0
19 1 1.6 0.2441406249999999 -0.44464870714622595 -4.306436533393944 0 0 0 0
38 2 1.3 0.4551661356395083 0.8983441406140313 -4.757464888523972 0 0 0 0
69 4 0.7 2.915451895043732 0.9760780899898842 -3.591894579742436 0 0 1 0
68 4 0.7 2.915451895043732 1.5822935531918656 -4.388086588806767 0 -1 1 0
8 1 1.6 0.2441406249999999 3.648669071618646 -4.117988113581822 0 -1 0 0
18 1 1.6 0.2441406249999999 -3.234904978748281 -2.8836235158213386 0 0 0 0
48 3 1 1 -2.067978214177074 -3.479306820002313 0 0 0 0
72 4 0.7 2.915451895043732 -1.302078364937993 -3.3848364079199325 0 0 0 0
66 4 0.7 2.915451895043732 0.35949932065824886 -3.5453522827278006 0 0 1 0
16 1 1.6 0.2441406249999999 1.0939712385284066 -2.483157680431811 0 0 1 0
14 1 1.6 0.2441406249999999 2.244212028259513 -3.5236699925023505 0 0 0 0
27 2 1.3 0.4551661356395083 3.5716020490774065 -2.7540384857928504 0 0 1 0
10 1 1.6 0.2441406249999999 -4.683890591401957 -3.139179928422767 0 0 1 0
21 2 1.3 0.4551661356395083 -3.893780179281713 -1.8184509340488977 0 0 0 0
77 4 0.7 2.915451895043732 -2.558793845152068 -2.006777931500783 0 0 0 0
61 4 0.7 2.915451895043732 -2.2816334843745616 -2.7387327574608697 0 1 0 0
26 2 1.3 0.4551661356395083 -1.413647384531063 -2.325679042066184 0 0 0 0
37 2 1.3 0.4551661356395083 -0.3872585570294902 -3.013984954484055 0 0 0 0
49 3 1 1 0.04692575847493963 -2.170146933949498 0 0 0 0
9 1 1.6 0.2441406249999999 2.4490558327242606 -2.1454713206734684 0 0 0 0
1 1 1.6 0.2441406249999999 4.390753028627546 -1.7331417273673932 0 0 0 0
62 4 0.7 2.915451895043732 -4.413249425608158 -0.9731435635900096 0 0 0 0
39 2 1.3 0.4551661356395083 -3.11921527267196 -0.9739355680506603 0 0 1 0
24 2 1.3 0.4551661356395083 -2.0268513425795476 -1.2920155888138378 0 0 0 0
20 1 1.6 0.2441406249999999 -0.6495321807280119 -1.215320531847861 0 0 0 0
59 3 1 1 0.7222644552408832 -1.521458761096996 0 0 0 0
17 1 1.6 0.2441406249999999 1.8322744245080989 -0.846782690874917 0 1 1 0
64 4 0.7 2.915451895043732 2.474521890421393 -0.007626302277694563 0 0 0 0
13 1 1.6 0.2441406249999999 3.187428654888329 -0.9888393162503974 0 -1 0 0
50 3 1 1 -4.0593681132861565 -0.3020402448578663 0 0 1 0
78 4 0.7 2.915451895043732 -3.7333934542849962 0.36514358840612715 0 0 0 0
32 2 1.3 0.4551661356395083 -2.886285551818675 0.19813472318737801 0 1 0 0
15 1 1.6 0.2441406249999999 -1.5712491681507346 0.04003188015103731 0 0 0 0
4 1 1.6 0.2441406249999999 0.3573169602468207 -0.21514645471139104 0 0 0 0
74 4 0.7 2.915451895043732 1.2250792723051065 0.553330348776707 0 0 0 0
71 4 0.7 2.915451895043732 1.7676077791465303 0.22201553260109375 0 0 0 0
58 3 1 1 3.209035089768279 0.21789333143343548 0 0 0 0
35 2 1.3 0.4551661356395083 4.504209543972265 -0.3852626779208279 0 0 0 0
52 3 1 1 -4.325070032189477 0.6092817923508145 0 1 0 0
51 3 1 1 4.331676400013486 1.7811300995134607 0 -1 0 0
40 2 1.3 0.4551661356395083 -3.305251610292001 1.150180466240883 0 0 0 0
45 3 1 1 -2.349820222238024 1.1740308383999523 0 0 0 0
29 2 1.3 0.4551661356395083 -0.5285830009108752 0.8723686211995831 0 0 0 0
43 3 1 1 -1.4732701761957627 1.2065631770911436 0 1 0 0
12 1 1.6 0.2441406249999999 0.7957970122003415 1.4804255500947514 0 0 0 0
5 1 1.6 0.2441406249999999 2.265592913636037 1.158790685918242 0 0 0 0
79 4 0.7 2.915451895043732 3.266972986969301 0.9392319879894879 0 0 0 0
34 2 1.3 0.4551661356395083 4.2419576483090475 0.720206878654368 0 -1 0 0
47 3 1 1 -4.336157414148592 1.4747741677646315 0 0 0 0
46 3 1 1 -3.107363581874182 2.1613644008225403 0 0 -1 0
44 3 1 1 -2.1361350204495992 2.0824192055352553 0 0 0 0
70 4 0.7 2.915451895043732 -1.8744128597260064 2.7543688940405744 0 0 0 0
60 3 1 1 -1.2901734793545558 2.149810592981165 0 0 0 0
57 3 1 1 -0.3111662843699845 1.9619786831720507 0 0 0 0
80 4 0.7 2.915451895043732 1.7769596879162641 2.2175890417555273 0 0 -1 0
56 3 1 1 2.4340228810569844 2.4808827254793755 0 0 -1 0
31 2 1.3 0.4551661356395083 3.3742578114541137 2.079074769951961 0 0 0 0
53 3 1 1 4.547967972558735 2.696495935555456 0 -1 0 0
6 1 1.6 0.2441406249999999 -4.700442368527208 3.670227932676636 0 1 -1 0
30 2 1.3 0.4551661356395083 -4.023427214354414 2.5613048854487337 0 1 0 0
41 3 1 1 -2.7241367439144293 2.840837495141476 0 0 0 0
25 2 1.3 0.4551661356395083 -0.7935729610697102 3.038520735924984 0 0 0 0
76 4 0.7 2.915451895043732 0.1692370279442157 2.79230242677248 0 0 0 0
33 2 1.3 0.4551661356395083 1.153952786029837 2.7978228113003984 0 0 0 0
11 1 1.6 0.2441406249999999 2.25817192691801 3.61295909650154 0 0 0 0
65 4 0.7 2.915451895043732 3.0844577977643954 2.8429228290610533 0 0 0 0
54 3 1 1 3.7898928401758925 3.006191700108131 0 0 0 0
22 2 1.3 0.4551661356395083 3.5614033855481777 4.07298087511593 0 0 -1 0
7 1 1.6 0.2441406249999999 -3.183726286200982 3.9528467628121993 0 1 0 0
3 1 1.6 0.2441406249999999 -1.775302993297292 3.9793215753224294 0 0 -1 0
75 4 0.7 2.915451895043732 -0.36943153110100013 3.8878628036617675 0 0 0 0
63 4 0.7 2.915451895043732 -0.03558271255056766 4.3505871386113215 0 0 0 0
36 2 1.3 0.4551661356395083 0.46739000354826565 3.6473079439934493 0 -1 -1 0
67 4 0.7 2.915451895043732 1.5441930725405966 4.373199215174716 0 0 0 0
23 2 1.3 0.4551661356395083 2.438194104382786 4.8038275084760675 0 0 0 0
42 3 1 1 4.434620656159983 4.58552507350815 0 0 -1 0

Velocities

28 -0.11361660304279383 0.011118456825329132 0 0 0 0
2 0.17376574300636263 0.011583332709850904 0 0 0 0
73 0.09718200094119117 0.09245924776671434 0 0 0 0
55 -0.22851786215844927 0.0597996570183092 0 0 0 0
19 -0.03215183170690416 -0.05114539631058287 0 0 0 0
38 0.19603343194917267 -0.09597117141071795 0 0 0 0
69 -0.17588028569780953 0.0014754459954497646 0 0 0 0
68 -0.10320593257872733 -0.025148541470962106 0 0 0 0
8 -0.14216372351759393 -0.12706211366470568 0 0 0 0
18 0.15102999750783794 -0.02750570310535518 0 0 0 0
48 -0.040840437885989005 -0.023262276238555268 0 0 0 0
72 -0.07477203870195054 0.032234425032401405 0 0 0 0
66 -0.05768476467045898 -0.10676176475748939 0 0 0 0
16 -0.08127676216356242 -0.07696942968951317 0 0 0 0
14 0.22300808428403807 0.09404077721960805 0 0 0 0
27 -0.024433652190472086 0.2946193442666611 0 0 0 0
10 -0.06989874510643913 0.059515504031652997 0 0 0 0
21 -0.005122476653243992 -0.13827145480503186 0 0 0 0
77 -0.08135379712876262 -0.033883297518155275 0 0 0 0
61 0.05883831943762453 -0.05815765206607137 0 0 0 0
26 -0.03498523990253538 -0.05593875380060713 0 0 0 0
37 0.05785313718756335 -0.15859064204773476 0 0 0 0
49 -0.07408279674375395 -0.038036119028795654 0 0 0 0
9 0.12388704053675041 0.009567945146023934 0 0 0 0
1 0.08795291402090159 0.15277708853911537 0 0 0 0
62 0.25485535217232963 0.03075562733854962 0 0 0 0
39 0.07103021285367893 -0.13178964660147668 0 0 0 0
24 0.04613692596546769 -0.09360812059578497 0 0 0 0
20 -0.10065382088081892 0.1749274245979044 0 0 0 0
59 0.03129827571381572 -0.15604464040527083 0 0 0 0
17 0.18734465019744542 0.10593898378195643 0 0 0 0
64 0.010510383200017289 -0.038801276600452385 0 0 0 0
13 -0.09180034046450153 0.23897207544926918 0 0 0 0
50 0.0766779858606531 -0.005380105658862808 0 0 0 0
78 0.06756269248111954 -0.008362815280027453 0 0 0 0
32 0.135388558146292 -0.09866440055098312 0 0 0 0
15 -0.14796695392208925 0.027370070148794154 0 0 0 0
4 -0.012573787024513521 0.014540112311265662 0 0 0 0
74 0.07946754960944616 -0.02266543737002868 0 0 0 0
71 -0.004579703310008348 0.09960062035701531 0 0 0 0
58 0.028713577098703022 0.16393472331744083 0 0 0 0
35 0.05623346623365703 -0.12470389040801938 0 0 0 0
52 -0.11648318137660037 -0.021099222950948814 0 0 0 0
51 0.011743863842142816 -0.016009866355441313 0 0 0 0
40 0.06925894394282933 -0.14432419484735706 0 0 0 0
45 -0.15793567677197143 0.1917195062976813 0 0 0 0
29 0.0022838147909349997 -0.24781764407582477 0 0 0 0
43 -0.0947677375069819 0.07038483312420389 0 0 0 0
12 -0.009895330513197593 0.060162698419047526 0 0 0 0
5 -0.027096821531511352 -0.07451287468234187 0 0 0 0
79 0.1262933138109533 0.17862126568225925 0 0 0 0
34 0.1213111312079691 0.2210186051623439 0 0 0 0
47 0.022369932252430242 -0.01951325087241999 0 0 0 0
46 -0.011639296382048067 -0.04119882257573223 0 0 0 0
44 -0.08820626152918988 0.19086746735440857 0 0 0 0
70 0.2440110933900332 0.06896410217941798 0 0 0 0
60 -0.20871140197475385 0.02817331670167715 0 0 0 0
57 -0.00320795834735265 -0.0946824985708241 0 0 0 0
80 -0.08403455912321499 -0.0768466311906313 0 0 0 0
56 0.001955816878047484 -0.0014422742022832291 0 0 0 0
31 -0.05218055264714173 0.09336655767743021 0 0 0 0
53 0.19868642571364548 -0.0445344517275343 0 0 0 0
6 0.07121462361577985 -0.1434421612071601 0 0 0 0
30 -0.03720217177603274 0.02326396929533632 0 0 0 0
41 -0.04452933469080877 -0.08469974836143504 0 0 0 0
25 0.015212126948048141 -0.048944999132813506 0 0 0 0
76 0.1264860557619798 0.09715769574808711 0 0 0 0
33 -0.20257337954680088 -0.005409295456655088 0 0 0 0
11 0.05520372346826995 0.0949745244157794 0 0 0 0
65 -0.1363219559915358 0.02345615148318013 0 0 0 0
54 -0.07518955917565989 -0.03136220592984571 0 0 0 0
22 -0.09558876185954475 0.02398503819235322 0 0 0 0
7 -0.006778287272457174 -0.056654123596846837 0 0 0 0
3 0.04157972287065402 -0.1019158200701139 0 0 0 0
75 0.03736946367107498 -0.17035613164215374 0 0 0 0
63 -0.21422426961096858 0.0808309584494419 0 0 0 0
36 0.018894520660596464 0.07698817750468964 0 0 0 0
67 -0.007257184831343721 -0.08931885045132218 0 0 0 0
23 -0.031777460029097086 -0.14392542807412814 0 0 0 0
42 0.024517826710134246 0.15556941581834244 0 0 0 0
