ITEM: TIMESTEP
0
ITEM: NUMBER OF ATOMS
80
ITEM: BOX BOUNDS pp pp pp
-1.0000000000000000e+01 1.0000000000000000e+01
-1.0000000000000000e+01 1.0000000000000000e+01
-1.0000000000000001e-01 1.0000000000000001e-01
ITEM: ATOMS id type xs ys zs
46 3 0.00541594 0.0257225 0.5
6 1 0.505447 0.0404198 0.5
26 2 0.123585 0.0860472 0.5
8 1 0.30708 0.096015 0.5
3 1 0.495038 0.0959129 0.5
36 2 0.0436809 0.145642 0.5
4 1 0.302208 0.210193 0.5
22 2 0.54395 0.165499 0.5
19 1 0.591016 0.198993 0.5
49 3 0.346062 0.25671 0.5
18 1 0.420733 0.255506 0.5
73 4 0.427454 0.213063 0.5
48 3 0.565671 0.230352 0.5
80 4 0.6482 0.302777 0.5
72 4 0.757677 0.27765 0.5
35 2 0.824198 0.293126 0.5
55 3 0.996865 0.309266 0.5
21 2 0.0291142 0.322129 0.5
9 1 0.434543 0.367665 0.5
79 4 0.476725 0.31646 0.5
74 4 0.647964 0.327286 0.5
71 4 0.686816 0.322926 0.5
52 3 0.870966 0.321374 0.5
42 3 0.897503 0.330067 0.5
59 3 0.0128746 0.383982 0.5
13 1 0.417765 0.377194 0.5
66 4 0.452334 0.375151 0.5
56 3 0.881324 0.41553 0.5
1 1 0.917737 0.40209 0.5
62 4 0.0149001 0.426301 0.5
12 1 0.638333 0.459938 0.5
14 1 0.756081 0.45673 0.5
61 4 0.79785 0.461587 0.5
64 4 0.93184 0.433012 0.5
76 4 0.211311 0.510841 0.5
20 1 0.501903 0.476905 0.5
60 3 0.573605 0.576978 0.5
29 2 0.897695 0.562264 0.5
31 2 0.930418 0.530553 0.5
78 4 0.139859 0.611548 0.5
53 3 0.161398 0.613152 0.5
77 4 0.293543 0.583351 0.5
38 2 0.694627 0.589515 0.5
58 3 0.760968 0.596408 0.5
24 2 0.237558 0.631615 0.5
44 3 0.413974 0.668592 0.5
32 2 0.796137 0.670049 0.5
28 2 0.874199 0.660881 0.5
30 2 0.879553 0.647481 0.5
43 3 0.94875 0.646798 0.5
34 2 0.276295 0.68705 0.5
41 3 0.421057 0.703011 0.5
37 2 0.537795 0.719712 0.5
45 3 0.532083 0.72034 0.5
54 3 0.565224 0.714259 0.5
67 4 0.674286 0.717693 0.5
5 1 0.757822 0.722225 0.5
16 1 0.830173 0.709787 0.5
63 4 0.26553 0.762555 0.5
70 4 0.514415 0.774773 0.5
23 2 0.57885 0.738625 0.5
33 2 0.734084 0.742083 0.5
68 4 0.730216 0.73993 0.5
7 1 0.768773 0.760206 0.5
75 4 0.395421 0.835275 0.5
65 4 0.721415 0.827405 0.5
69 4 0.849039 0.798206 0.5
40 2 0.0983452 0.887739 0.5
47 3 0.262561 0.863605 0.5
11 1 0.67602 0.873477 0.5
17 1 0.688397 0.889043 0.5
2 1 0.857195 0.871146 0.5
39 2 0.172184 0.900516 0.5
51 3 0.298322 0.905113 0.5
57 3 0.598495 0.909031 0.5
10 1 0.0887112 0.968439 0.5
50 3 0.43071 0.947935 0.5
15 1 0.521923 0.962862 0.5
25 2 0.554946 0.970355 0.5
27 2 0.83816 0.952838 0.5
ITEM: TIMESTEP
10
ITEM: NUMBER OF ATOMS
80
ITEM: BOX BOUNDS pp pp pp
-9.2751486826754341e+00 9.2751486826754341e+00
-9.2751486826754341e+00 9.2751486826754341e+00
-1.0000000000000001e-01 1.0000000000000001e-01
ITEM: ATOMS id type xs ys zs
46 3 0.00541594 0.0257225 0.5
6 1 0.505462 0.0403385 0.5
26 2 0.123585 0.0860472 0.5
8 1 0.30708 0.096015 0.5
3 1 0.495021 0.0960005 0.5
36 2 0.0436809 0.145642 0.5
4 1 0.302203 0.210187 0.5
22 2 0.543903 0.165466 0.5
19 1 0.59112 0.198954 0.5
49 3 0.346066 0.256715 0.5
18 1 0.420724 0.255561 0.5
73 4 0.427462 0.213009 0.5
48 3 0.565613 0.230424 0.5
80 4 0.648201 0.302737 0.5
72 4 0.757677 0.27765 0.5
35 2 0.824187 0.293119 0.5
55 3 0.996786 0.309235 0.5
21 2 0.0291934 0.322161 0.5
9 1 0.434608 0.367499 0.5
79 4 0.476725 0.31646 0.5
74 4 0.647963 0.327326 0.5
71 4 0.686816 0.322926 0.5
52 3 0.870899 0.321355 0.5
42 3 0.897581 0.330093 0.5
59 3 0.0128745 0.383979 0.5
13 1 0.417485 0.37731 0.5
66 4 0.452549 0.375201 0.5
56 3 0.881232 0.415564 0.5
1 1 0.917792 0.401976 0.5
62 4 0.0149002 0.426303 0.5
12 1 0.638333 0.459938 0.5
14 1 0.756023 0.456723 0.5
61 4 0.797908 0.461593 0.5
64 4 0.931876 0.433093 0.5
76 4 0.211311 0.510841 0.5
20 1 0.501903 0.476905 0.5
60 3 0.573605 0.576978 0.5
29 2 0.897642 0.562315 0.5
31 2 0.930471 0.530502 0.5
78 4 0.139782 0.611543 0.5
53 3 0.161475 0.613158 0.5
77 4 0.293543 0.583351 0.5
38 2 0.694627 0.589515 0.5
58 3 0.760968 0.596408 0.5
24 2 0.237558 0.631614 0.5
44 3 0.413963 0.668537 0.5
32 2 0.796106 0.669965 0.5
28 2 0.874148 0.661033 0.5
30 2 0.879622 0.647308 0.5
43 3 0.94875 0.646798 0.5
34 2 0.276295 0.68705 0.5
41 3 0.421068 0.703067 0.5
37 2 0.537808 0.719682 0.5
45 3 0.531807 0.720361 0.5
54 3 0.565338 0.714131 0.5
67 4 0.674286 0.717693 0.5
5 1 0.75793 0.721962 0.5
16 1 0.830236 0.709858 0.5
63 4 0.26553 0.762555 0.5
70 4 0.514415 0.774773 0.5
23 2 0.578999 0.738763 0.5
33 2 0.734002 0.742206 0.5
68 4 0.729945 0.739873 0.5
7 1 0.768967 0.760436 0.5
75 4 0.395421 0.835275 0.5
65 4 0.721415 0.827405 0.5
69 4 0.849039 0.798206 0.5
40 2 0.0983452 0.887739 0.5
47 3 0.262561 0.863605 0.5
11 1 0.675882 0.873304 0.5
17 1 0.688535 0.889217 0.5
2 1 0.857195 0.871146 0.5
39 2 0.172184 0.900516 0.5
51 3 0.298322 0.905113 0.5
57 3 0.598495 0.909031 0.5
10 1 0.0887112 0.968439 0.5
50 3 0.43071 0.947935 0.5
15 1 0.521785 0.962824 0.5
25 2 0.555085 0.970387 0.5
27 2 0.83816 0.952838 0.5
ITEM: TIMESTEP
20
ITEM: NUMBER OF ATOMS
80
ITEM: BOX BOUNDS pp pp pp
-8.3604844039462449e+00 8.3604844039462449e+00
-8.3604844039462449e+00 8.3604844039462449e+00
-1.0000000000000001e-01 1.0000000000000001e-01
ITEM: ATOMS id type xs ys zs
46 3 0.00541594 0.0257225 0.5
6 1 0.505511 0.0400673 0.5
26 2 0.123585 0.0860472 0.5
8 1 0.30708 0.096015 0.5
3 1 0.494959 0.0963327 0.5
36 2 0.0436809 0.145642 0.5
4 1 0.302165 0.210147 0.5
22 2 0.543719 0.165336 0.5
19 1 0.59152 0.198819 0.5
49 3 0.346104 0.256756 0.5
18 1 0.420691 0.255772 0.5
73 4 0.427496 0.212797 0.5
48 3 0.565397 0.23069 0.5
80 4 0.648202 0.302587 0.5
72 4 0.757677 0.27765 0.5
35 2 0.824124 0.293081 0.5
55 3 0.996494 0.309118 0.5
21 2 0.029486 0.322274 0.5
9 1 0.434831 0.366911 0.5
79 4 0.476725 0.316459 0.5
74 4 0.64796 0.327477 0.5
71 4 0.686818 0.322926 0.5
52 3 0.870676 0.3213 0.5
42 3 0.897867 0.330186 0.5
59 3 0.0128722 0.383953 0.5
13 1 0.41649 0.37772 0.5
66 4 0.453322 0.375379 0.5
56 3 0.880894 0.41569 0.5
1 1 0.917997 0.401558 0.5
62 4 0.0149017 0.426333 0.5
12 1 0.638333 0.459938 0.5
14 1 0.755799 0.456697 0.5
61 4 0.798132 0.461619 0.5
64 4 0.93201 0.433387 0.5
76 4 0.211311 0.510841 0.5
20 1 0.501903 0.476905 0.5
60 3 0.573605 0.576978 0.5
29 2 0.897442 0.562509 0.5
31 2 0.93067 0.530308 0.5
78 4 0.139501 0.611522 0.5
53 3 0.161756 0.613179 0.5
77 4 0.293543 0.583351 0.5
38 2 0.694626 0.589514 0.5
58 3 0.760969 0.596408 0.5
24 2 0.237545 0.631597 0.5
44 3 0.41392 0.668328 0.5
32 2 0.796002 0.669626 0.5
28 2 0.873993 0.661545 0.5
30 2 0.879869 0.646694 0.5
43 3 0.94875 0.646798 0.5
34 2 0.276307 0.687068 0.5
41 3 0.421111 0.703275 0.5
37 2 0.537825 0.719567 0.5
45 3 0.530807 0.720433 0.5
54 3 0.565759 0.713664 0.5
67 4 0.674286 0.717693 0.5
5 1 0.758265 0.721045 0.5
16 1 0.830513 0.710121 0.5
63 4 0.26553 0.762555 0.5
70 4 0.514415 0.774773 0.5
23 2 0.579562 0.739273 0.5
33 2 0.733689 0.742643 0.5
68 4 0.728975 0.739669 0.5
7 1 0.76965 0.761298 0.5
75 4 0.395421 0.835275 0.5
65 4 0.721417 0.827404 0.5
69 4 0.849039 0.798206 0.5
40 2 0.0983451 0.887736 0.5
47 3 0.262558 0.863601 0.5
11 1 0.675395 0.872694 0.5
17 1 0.689021 0.889828 0.5
2 1 0.857195 0.871146 0.5
39 2 0.172185 0.900517 0.5
51 3 0.298326 0.905116 0.5
57 3 0.598495 0.909031 0.5
10 1 0.0887108 0.968442 0.5
50 3 0.43071 0.947935 0.5
15 1 0.521294 0.962649 0.5
25 2 0.555589 0.970501 0.5
27 2 0.83816 0.952838 0.5
ITEM: TIMESTEP
30
ITEM: NUMBER OF ATOMS
80
ITEM: BOX BOUNDS pp pp pp
-7.6869754232366727e+00 7.6869754232366727e+00
-7.6869754232366727e+00 7.6869754232366727e+00
-1.0000000000000001e-01 1.0000000000000001e-01
ITEM: ATOMS id type xs ys zs
46 3 0.00541594 0.0257225 0.5
6 1 0.505591 0.0395914 0.5
26 2 0.123585 0.0860472 0.5
8 1 0.30708 0.096015 0.5
3 1 0.494819 0.0969974 0.5
36 2 0.0436809 0.145642 0.5
4 1 0.302049 0.210024 0.5
22 2 0.543334 0.165068 0.5
19 1 0.592347 0.198567 0.5
49 3 0.346195 0.256879 0.5
18 1 0.420647 0.256212 0.5
73 4 0.427565 0.212357 0.5
48 3 0.564968 0.231226 0.5
80 4 0.648205 0.30228 0.5
72 4 0.757677 0.27765 0.5
35 2 0.823957 0.29298 0.5
55 3 0.995913 0.308887 0.5
21 2 0.0300776 0.322467 0.5
9 1 0.435233 0.365789 0.5
79 4 0.476742 0.316439 0.5
74 4 0.647935 0.327786 0.5
71 4 0.68684 0.322923 0.5
52 3 0.870278 0.321216 0.5
42 3 0.898424 0.330343 0.5
59 3 0.0128571 0.383893 0.5
13 1 0.414577 0.378511 0.5
66 4 0.454816 0.37573 0.5
56 3 0.880223 0.415942 0.5
1 1 0.918414 0.400747 0.5
62 4 0.0149064 0.426431 0.5
12 1 0.638333 0.459938 0.5
14 1 0.755336 0.456643 0.5
61 4 0.798595 0.461673 0.5
64 4 0.932272 0.433973 0.5
76 4 0.211311 0.510841 0.5
20 1 0.501903 0.476905 0.5
60 3 0.573605 0.576978 0.5
29 2 0.897033 0.562905 0.5
31 2 0.931079 0.529912 0.5
78 4 0.138951 0.611481 0.5
53 3 0.162306 0.61322 0.5
77 4 0.293543 0.583351 0.5
38 2 0.694609 0.589513 0.5
58 3 0.760986 0.59641 0.5
24 2 0.237488 0.631514 0.5
44 3 0.413832 0.667901 0.5
32 2 0.795809 0.668892 0.5
28 2 0.87375 0.66247 0.5
30 2 0.880356 0.645491 0.5
43 3 0.948758 0.646798 0.5
34 2 0.276365 0.68715 0.5
41 3 0.421199 0.703702 0.5
37 2 0.537798 0.719328 0.5
45 3 0.528856 0.720566 0.5
54 3 0.566595 0.712746 0.5
67 4 0.674286 0.717693 0.5
5 1 0.758808 0.719315 0.5
16 1 0.831131 0.710682 0.5
63 4 0.26553 0.762555 0.5
70 4 0.514413 0.774778 0.5
23 2 0.580705 0.740291 0.5
33 2 0.733048 0.743493 0.5
68 4 0.727103 0.739263 0.5
7 1 0.770944 0.763036 0.5
75 4 0.395421 0.835275 0.5
65 4 0.721442 0.827378 0.5
69 4 0.849039 0.798206 0.5
40 2 0.0983278 0.887689 0.5
47 3 0.26253 0.863569 0.5
11 1 0.674443 0.871551 0.5
17 1 0.689948 0.890997 0.5
2 1 0.8572 0.871123 0.5
39 2 0.172207 0.90052 0.5
51 3 0.298353 0.905148 0.5
57 3 0.598495 0.909031 0.5
10 1 0.0887056 0.968486 0.5
50 3 0.43071 0.947935 0.5
15 1 0.520354 0.962231 0.5
25 2 0.556577 0.970714 0.5
27 2 0.838154 0.952861 0.5
ITEM: TIMESTEP
40
ITEM: NUMBER OF ATOMS
80
ITEM: BOX BOUNDS pp pp pp
-7.2134662836763290e+00 7.2134662836763290e+00
-7.2134662836763290e+00 7.2134662836763290e+00
-1.0000000000000001e-01 1.0000000000000001e-01
ITEM: ATOMS id type xs ys zs
46 3 0.00541594 0.0257225 0.5
6 1 0.505674 0.0389407 0.5
26 2 0.123585 0.0860472 0.5
8 1 0.30708 0.096015 0.5
3 1 0.49455 0.0980354 0.5
36 2 0.0436809 0.145642 0.5
4 1 0.301814 0.209774 0.5
22 2 0.542709 0.164641 0.5
19 1 0.593716 0.198184 0.5
49 3 0.346328 0.25713 0.5
18 1 0.420634 0.256942 0.5
73 4 0.427681 0.211626 0.5
48 3 0.564282 0.232119 0.5
80 4 0.648198 0.30177 0.5
72 4 0.757677 0.27765 0.5
35 2 0.823635 0.292785 0.5
55 3 0.994979 0.308514 0.5
21 2 0.0310457 0.322718 0.5
9 1 0.435805 0.364061 0.5
79 4 0.476809 0.316359 0.5
74 4 0.64786 0.328299 0.5
71 4 0.686923 0.322921 0.5
52 3 0.869696 0.321117 0.5
42 3 0.899296 0.330526 0.5
59 3 0.0128133 0.383809 0.5
13 1 0.411604 0.379754 0.5
66 4 0.457148 0.376296 0.5
56 3 0.879144 0.416351 0.5
1 1 0.919107 0.399505 0.5
62 4 0.0149163 0.426637 0.5
12 1 0.638333 0.459938 0.5
14 1 0.754572 0.456554 0.5
61 4 0.799359 0.461762 0.5
64 4 0.932689 0.434917 0.5
76 4 0.211311 0.510841 0.5
20 1 0.501903 0.476905 0.5
60 3 0.573605 0.576978 0.5
29 2 0.896365 0.563544 0.5
31 2 0.93175 0.529262 0.5
78 4 0.13808 0.611416 0.5
53 3 0.163176 0.613284 0.5
77 4 0.293543 0.583351 0.5
38 2 0.694531 0.589505 0.5
58 3 0.761064 0.596418 0.5
24 2 0.237352 0.631319 0.5
44 3 0.413688 0.6672 0.5
32 2 0.795491 0.667633 0.5
28 2 0.873479 0.66383 0.5
30 2 0.881105 0.643575 0.5
43 3 0.948813 0.646799 0.5
34 2 0.276501 0.687345 0.5
41 3 0.421343 0.704403 0.5
37 2 0.537693 0.718909 0.5
45 3 0.525791 0.720773 0.5
54 3 0.567933 0.71128 0.5
67 4 0.674277 0.717689 0.5
5 1 0.759506 0.716664 0.5
16 1 0.832197 0.71165 0.5
63 4 0.26553 0.762555 0.5
70 4 0.514396 0.774819 0.5
23 2 0.582554 0.741928 0.5
33 2 0.732005 0.744852 0.5
68 4 0.724192 0.738605 0.5
7 1 0.772925 0.765846 0.5
75 4 0.395421 0.835275 0.5
65 4 0.721537 0.827274 0.5
69 4 0.849038 0.798193 0.5
40 2 0.0982509 0.887529 0.5
47 3 0.26245 0.863476 0.5
11 1 0.672927 0.869816 0.5
17 1 0.691375 0.892833 0.5
2 1 0.857225 0.871036 0.5
39 2 0.172301 0.900537 0.5
51 3 0.298434 0.905242 0.5
57 3 0.598493 0.909028 0.5
10 1 0.0886886 0.968629 0.5
50 3 0.43071 0.947935 0.5
15 1 0.518888 0.961468 0.5
25 2 0.558165 0.971013 0.5
27 2 0.838131 0.952961 0.5
ITEM: TIMESTEP
50
ITEM: NUMBER OF ATOMS
80
ITEM: BOX BOUNDS pp pp pp
-6.9080930161852754e+00 6.9080930161852754e+00
-6.9080930161852754e+00 6.9080930161852754e+00
-1.0000000000000001e-01 1.0000000000000001e-01
ITEM: ATOMS id type xs ys zs
46 3 0.00541594 0.0257225 0.5
6 1 0.505732 0.0381695 0.5
26 2 0.123585 0.0860472 0.5
8 1 0.30708 0.0960144 0.5
3 1 0.494107 0.0994416 0.5
36 2 0.0436809 0.145642 0.5
4 1 0.301429 0.209366 0.5
22 2 0.541835 0.164057 0.5
19 1 0.595688 0.197668 0.5
49 3 0.346486 0.25754 0.5
18 1 0.420691 0.257971 0.5
73 4 0.427847 0.210573 0.5
48 3 0.563326 0.233416 0.5
80 4 0.648166 0.301031 0.5
72 4 0.757664 0.277648 0.5
35 2 0.823133 0.292474 0.5
55 3 0.993666 0.307993 0.5
21 2 0.0324283 0.322995 0.5
9 1 0.436517 0.361734 0.5
79 4 0.476963 0.316179 0.5
74 4 0.647709 0.329035 0.5
71 4 0.687105 0.322924 0.5
52 3 0.868943 0.321019 0.5
42 3 0.900491 0.330687 0.5
59 3 0.0127264 0.383709 0.5
13 1 0.407562 0.381476 0.5
66 4 0.460329 0.377104 0.5
56 3 0.877621 0.416932 0.5
1 1 0.920117 0.397839 0.5
62 4 0.0149329 0.426981 0.5
12 1 0.638333 0.459938 0.5
14 1 0.753475 0.456427 0.5
61 4 0.800456 0.46189 0.5
64 4 0.933275 0.436253 0.5
76 4 0.211311 0.510841 0.5
20 1 0.501903 0.476905 0.5
60 3 0.573605 0.576978 0.5
29 2 0.895423 0.564398 0.5
31 2 0.932706 0.528336 0.5
78 4 0.136869 0.611326 0.5
53 3 0.164362 0.613368 0.5
77 4 0.293543 0.583351 0.5
38 2 0.694353 0.589486 0.5
58 3 0.761238 0.596429 0.5
24 2 0.237137 0.630981 0.5
44 3 0.413483 0.666201 0.5
32 2 0.795018 0.66578 0.5
28 2 0.873249 0.665601 0.5
30 2 0.882092 0.640942 0.5
43 3 0.948976 0.646801 0.5
34 2 0.276742 0.68769 0.5
41 3 0.421549 0.705402 0.5
37 2 0.537489 0.718266 0.5
45 3 0.521598 0.721047 0.5
54 3 0.5698 0.709228 0.5
67 4 0.674232 0.717668 0.5
5 1 0.760267 0.71309 0.5
16 1 0.833769 0.713097 0.5
63 4 0.26553 0.762555 0.5
70 4 0.514349 0.774947 0.5
23 2 0.585131 0.744222 0.5
33 2 0.730559 0.746782 0.5
68 4 0.72024 0.737669 0.5
7 1 0.775577 0.76979 0.5
75 4 0.395421 0.835275 0.5
65 4 0.721743 0.827042 0.5
69 4 0.849033 0.798135 0.5
40 2 0.0980764 0.8872 0.5
47 3 0.262295 0.863295 0.5
11 1 0.67083 0.867481 0.5
17 1 0.693306 0.89538 0.5
2 1 0.857284 0.870871 0.5
39 2 0.17251 0.900573 0.5
51 3 0.298589 0.905422 0.5
57 3 0.598476 0.90901 0.5
10 1 0.0886539 0.968922 0.5
50 3 0.430699 0.947933 0.5
15 1 0.516889 0.960291 0.5
25 2 0.560392 0.9714 0.5
27 2 0.838079 0.953185 0.5
ITEM: TIMESTEP
60
ITEM: NUMBER OF ATOMS
80
ITEM: BOX BOUNDS pp pp pp
-6.7186332994312608e+00 6.7186332994312608e+00
-6.7186332994312608e+00 6.7186332994312608e+00
-1.0000000000000001e-01 1.0000000000000001e-01
ITEM: ATOMS id type xs ys zs
46 3 0.00541594 0.0257225 0.5
6 1 0.505744 0.0373309 0.5
26 2 0.123585 0.0860472 0.5
8 1 0.307081 0.0959974 0.5
3 1 0.493457 0.101183 0.5
36 2 0.0436809 0.145642 0.5
4 1 0.300879 0.208799 0.5
22 2 0.54073 0.163344 0.5
19 1 0.59827 0.197028 0.5
49 3 0.346652 0.258124 0.5
18 1 0.420832 0.259237 0.5
73 4 0.428062 0.209196 0.5
48 3 0.562105 0.235121 0.5
80 4 0.648098 0.300057 0.5
72 4 0.757616 0.277636 0.5
35 2 0.822454 0.292039 0.5
55 3 0.991983 0.307327 0.5
21 2 0.0342297 0.323268 0.5
9 1 0.437334 0.358897 0.5
79 4 0.477245 0.31588 0.5
74 4 0.64747 0.329997 0.5
71 4 0.687413 0.322936 0.5
52 3 0.868037 0.320932 0.5
42 3 0.901993 0.330778 0.5
59 3 0.012591 0.383603 0.5
13 1 0.402537 0.383664 0.5
66 4 0.464282 0.378163 0.5
56 3 0.875662 0.417687 0.5
1 1 0.921457 0.395803 0.5
62 4 0.0149574 0.427479 0.5
12 1 0.638325 0.459938 0.5
14 1 0.752053 0.45626 0.5
61 4 0.801886 0.462056 0.5
64 4 0.934018 0.437977 0.5
76 4 0.211311 0.510841 0.5
20 1 0.501903 0.476905 0.5
60 3 0.573605 0.576978 0.5
29 2 0.894217 0.565408 0.5
31 2 0.933946 0.527134 0.5
78 4 0.13533 0.611211 0.5
53 3 0.165818 0.613463 0.5
77 4 0.293543 0.583351 0.5
38 2 0.694051 0.589455 0.5
58 3 0.761517 0.596413 0.5
24 2 0.236861 0.630487 0.5
44 3 0.413216 0.664904 0.5
32 2 0.794393 0.663332 0.5
28 2 0.873111 0.667727 0.5
30 2 0.883276 0.637654 0.5
43 3 0.949299 0.646804 0.5
34 2 0.277101 0.688204 0.5
41 3 0.421816 0.706699 0.5
37 2 0.537183 0.717381 0.5
45 3 0.516377 0.721374 0.5
54 3 0.57217 0.7066 0.5
67 4 0.67412 0.717612 0.5
5 1 0.760986 0.708675 0.5
16 1 0.835859 0.71506 0.5
63 4 0.26553 0.762555 0.5
70 4 0.514262 0.775207 0.5
23 2 0.588375 0.747149 0.5
33 2 0.728751 0.7493 0.5
68 4 0.71536 0.73646 0.5
7 1 0.778808 0.774792 0.5
75 4 0.395421 0.835275 0.5
65 4 0.722067 0.826678 0.5
69 4 0.849049 0.798014 0.5
40 2 0.0977796 0.886665 0.5
47 3 0.262051 0.863012 0.5
11 1 0.668189 0.864576 0.5
17 1 0.695709 0.898614 0.5
2 1 0.857387 0.870624 0.5
39 2 0.172863 0.900636 0.5
51 3 0.298833 0.905705 0.5
57 3 0.598429 0.908968 0.5
10 1 0.0885984 0.969395 0.5
50 3 0.430639 0.947925 0.5
15 1 0.514417 0.95867 0.5
25 2 0.56324 0.97188 0.5
27 2 0.83799 0.953566 0.5
ITEM: TIMESTEP
70
ITEM: NUMBER OF ATOMS
80
ITEM: BOX BOUNDS pp pp pp
-6.6253560559459981e+00 6.6253560559459981e+00
-6.6253560559459981e+00 6.6253560559459981e+00
-1.0000000000000001e-01 1.0000000000000001e-01
ITEM: ATOMS id type xs ys zs
46 3 0.00541594 0.0257225 0.5
6 1 0.505703 0.036471 0.5
26 2 0.123585 0.0860472 0.5
8 1 0.307084 0.0959382 0.5
3 1 0.492582 0.103204 0.5
36 2 0.0436809 0.145642 0.5
4 1 0.300164 0.208099 0.5
22 2 0.539435 0.16255 0.5
19 1 0.601423 0.196283 0.5
49 3 0.346807 0.258881 0.5
18 1 0.421053 0.260649 0.5
73 4 0.428321 0.207518 0.5
48 3 0.56064 0.237192 0.5
80 4 0.64799 0.298864 0.5
72 4 0.75751 0.277613 0.5
35 2 0.821615 0.291479 0.5
55 3 0.989964 0.306533 0.5
21 2 0.0364222 0.323513 0.5
9 1 0.438216 0.355679 0.5
79 4 0.477693 0.315458 0.5
74 4 0.647138 0.331168 0.5
71 4 0.687852 0.322958 0.5
52 3 0.866998 0.320856 0.5
42 3 0.903763 0.330756 0.5
59 3 0.0124246 0.383495 0.5
13 1 0.396699 0.386268 0.5
66 4 0.468866 0.379466 0.5
56 3 0.873322 0.41861 0.5
1 1 0.923105 0.393488 0.5
62 4 0.0149901 0.428132 0.5
12 1 0.63828 0.45994 0.5
14 1 0.750362 0.456057 0.5
61 4 0.803622 0.462258 0.5
64 4 0.934885 0.440056 0.5
76 4 0.211311 0.510841 0.5
20 1 0.501903 0.476905 0.5
60 3 0.573605 0.576978 0.5
29 2 0.892774 0.566499 0.5
31 2 0.935449 0.52568 0.5
78 4 0.133497 0.611075 0.5
53 3 0.167478 0.613558 0.5
77 4 0.293547 0.583348 0.5
38 2 0.693613 0.589409 0.5
58 3 0.761898 0.596341 0.5
24 2 0.236549 0.629846 0.5
44 3 0.412893 0.663336 0.5
32 2 0.793655 0.660335 0.5
28 2 0.873107 0.670132 0.5
30 2 0.884591 0.633833 0.5
43 3 0.949809 0.646813 0.5
34 2 0.27758 0.68889 0.5
41 3 0.422138 0.708267 0.5
37 2 0.536784 0.716265 0.5
45 3 0.510323 0.721743 0.5
54 3 0.574971 0.703458 0.5
67 4 0.673894 0.717496 0.5
5 1 0.761561 0.703573 0.5
16 1 0.838431 0.717526 0.5
63 4 0.26553 0.762555 0.5
70 4 0.514138 0.77562 0.5
23 2 0.592151 0.750624 0.5
33 2 0.726649 0.752376 0.5
68 4 0.709773 0.735026 0.5
7 1 0.782449 0.780671 0.5
75 4 0.395421 0.835275 0.5
65 4 0.722494 0.826202 0.5
69 4 0.849135 0.797838 0.5
40 2 0.0973498 0.88591 0.5
47 3 0.261714 0.862622 0.5
11 1 0.665075 0.861165 0.5
17 1 0.698524 0.902452 0.5
2 1 0.857542 0.870299 0.5
39 2 0.173369 0.900726 0.5
51 3 0.299169 0.906095 0.5
57 3 0.598345 0.908894 0.5
10 1 0.0885217 0.970058 0.5
50 3 0.430492 0.947905 0.5
15 1 0.511568 0.95661 0.5
25 2 0.566646 0.972458 0.5
27 2 0.837862 0.954116 0.5
ITEM: TIMESTEP
80
ITEM: NUMBER OF ATOMS
80
ITEM: BOX BOUNDS pp pp pp
-6.6147278920825272e+00 6.6147278920825272e+00
-6.6147278920825272e+00 6.6147278920825272e+00
-1.0000000000000001e-01 1.0000000000000001e-01
ITEM: ATOMS id type xs ys zs
46 3 0.00541594 0.0257225 0.5
6 1 0.505611 0.0356247 0.5
26 2 0.123585 0.0860472 0.5
8 1 0.307091 0.0958211 0.5
3 1 0.49148 0.10543 0.5
36 2 0.0436809 0.145642 0.5
4 1 0.299299 0.207298 0.5
22 2 0.538012 0.161738 0.5
19 1 0.605055 0.195458 0.5
49 3 0.346936 0.259794 0.5
18 1 0.421342 0.262112 0.5
73 4 0.428616 0.205589 0.5
48 3 0.558974 0.239553 0.5
80 4 0.647848 0.297489 0.5
72 4 0.757338 0.277575 0.5
35 2 0.820639 0.290803 0.5
55 3 0.987672 0.305638 0.5
21 2 0.0389465 0.323708 0.5
9 1 0.439117 0.352239 0.5
79 4 0.478334 0.314918 0.5
74 4 0.646722 0.332514 0.5
71 4 0.688411 0.322986 0.5
52 3 0.865857 0.320801 0.5
42 3 0.905743 0.330587 0.5
59 3 0.0122472 0.383386 0.5
13 1 0.39029 0.389204 0.5
66 4 0.473879 0.380982 0.5
56 3 0.870684 0.419677 0.5
1 1 0.92501 0.391 0.5
62 4 0.015031 0.428928 0.5
12 1 0.638176 0.459943 0.5
14 1 0.748476 0.455822 0.5
61 4 0.805612 0.462489 0.5
64 4 0.935832 0.442426 0.5
76 4 0.211311 0.510841 0.5
20 1 0.501903 0.476905 0.5
60 3 0.573605 0.576978 0.5
29 2 0.891141 0.567586 0.5
31 2 0.937169 0.524017 0.5
78 4 0.13143 0.610921 0.5
53 3 0.169266 0.613644 0.5
77 4 0.293561 0.583336 0.5
38 2 0.693044 0.589351 0.5
58 3 0.762361 0.596185 0.5
24 2 0.236226 0.629079 0.5
44 3 0.412524 0.661543 0.5
32 2 0.792881 0.65687 0.5
28 2 0.873264 0.672715 0.5
30 2 0.885958 0.629648 0.5
43 3 0.950507 0.646837 0.5
34 2 0.278171 0.689729 0.5
41 3 0.422507 0.71006 0.5
37 2 0.536315 0.714954 0.5
45 3 0.503702 0.722144 0.5
54 3 0.578087 0.699915 0.5
67 4 0.673514 0.717292 0.5
5 1 0.761908 0.698006 0.5
16 1 0.841395 0.72042 0.5
63 4 0.265529 0.762561 0.5
70 4 0.513989 0.776185 0.5
23 2 0.596275 0.754512 0.5
33 2 0.724346 0.755917 0.5
68 4 0.703764 0.733441 0.5
7 1 0.786282 0.787155 0.5
75 4 0.395421 0.835275 0.5
65 4 0.722992 0.825663 0.5
69 4 0.849336 0.797635 0.5
40 2 0.096792 0.884948 0.5
47 3 0.261292 0.862132 0.5
11 1 0.661595 0.857344 0.5
17 1 0.701662 0.906756 0.5
2 1 0.857764 0.869928 0.5
39 2 0.174023 0.900846 0.5
51 3 0.299592 0.906586 0.5
57 3 0.598217 0.908786 0.5
10 1 0.088426 0.970901 0.5
50 3 0.430229 0.947873 0.5
15 1 0.508464 0.954153 0.5
25 2 0.570501 0.973136 0.5
27 2 0.837695 0.954831 0.5
ITEM: TIMESTEP
90
ITEM: NUMBER OF ATOMS
80
ITEM: BOX BOUNDS pp pp pp
-6.6685697180800112e+00 6.6685697180800112e+00
-6.6685697180800112e+00 6.6685697180800112e+00
-1.0000000000000001e-01 1.0000000000000001e-01
ITEM: ATOMS id type xs ys zs
46 3 0.00541594 0.0257225 0.5
6 1 0.505482 0.0348124 0.5
26 2 0.123585 0.0860472 0.5
8 1 0.307102 0.095643 0.5
3 1 0.490159 0.10778 0.5
36 2 0.0436809 0.145642 0.5
4 1 0.298311 0.206427 0.5
22 2 0.536536 0.160976 0.5
19 1 0.60904 0.194581 0.5
49 3 0.347028 0.260833 0.5
18 1 0.42168 0.263535 0.5
73 4 0.428934 0.203471 0.5
48 3 0.557162 0.2421 0.5
80 4 0.647682 0.295985 0.5
72 4 0.757093 0.277522 0.5
35 2 0.819558 0.290023 0.5
55 3 0.985188 0.304677 0.5
21 2 0.0417215 0.323841 0.5
9 1 0.439992 0.348745 0.5
79 4 0.479178 0.314271 0.5
74 4 0.646238 0.333987 0.5
71 4 0.689061 0.323018 0.5
52 3 0.864653 0.32078 0.5
42 3 0.907865 0.330249 0.5
59 3 0.012076 0.383279 0.5
13 1 0.383577 0.392366 0.5
66 4 0.479101 0.382666 0.5
56 3 0.867843 0.420854 0.5
1 1 0.927102 0.38845 0.5
62 4 0.0150793 0.429845 0.5
12 1 0.638002 0.45995 0.5
14 1 0.746476 0.455563 0.5
61 4 0.807786 0.462742 0.5
64 4 0.93682 0.445008 0.5
76 4 0.211311 0.510841 0.5
20 1 0.501903 0.476905 0.5
60 3 0.573605 0.576978 0.5
29 2 0.889366 0.568584 0.5
31 2 0.939049 0.522203 0.5
78 4 0.129199 0.610756 0.5
53 3 0.171098 0.613715 0.5
77 4 0.293586 0.583316 0.5
38 2 0.692363 0.589281 0.5
58 3 0.762879 0.595927 0.5
24 2 0.23592 0.628218 0.5
44 3 0.412122 0.65959 0.5
32 2 0.79217 0.653051 0.5
28 2 0.873588 0.675365 0.5
30 2 0.887299 0.6253 0.5
43 3 0.951366 0.646883 0.5
34 2 0.278854 0.690689 0.5
41 3 0.422909 0.712013 0.5
37 2 0.535807 0.713507 0.5
45 3 0.496754 0.722561 0.5
54 3 0.581396 0.696108 0.5
67 4 0.672963 0.716982 0.5
5 1 0.761973 0.692241 0.5
16 1 0.844631 0.723627 0.5
63 4 0.265526 0.762578 0.5
70 4 0.513827 0.776873 0.5
23 2 0.600583 0.758661 0.5
33 2 0.721935 0.759776 0.5
68 4 0.697593 0.731767 0.5
7 1 0.790102 0.793954 0.5
75 4 0.395421 0.835275 0.5
65 4 0.723526 0.825138 0.5
69 4 0.849685 0.797425 0.5
40 2 0.0961244 0.883809 0.5
47 3 0.260797 0.861558 0.5
11 1 0.657874 0.853233 0.5
17 1 0.705017 0.911352 0.5
2 1 0.858082 0.869567 0.5
39 2 0.174801 0.900991 0.5
51 3 0.300086 0.90716 0.5
57 3 0.598048 0.908645 0.5
10 1 0.0883157 0.971896 0.5
50 3 0.429834 0.947831 0.5
15 1 0.505234 0.951366 0.5
25 2 0.574669 0.973912 0.5
27 2 0.837494 0.955689 0.5
ITEM: TIMESTEP
100
ITEM: NUMBER OF ATOMS
80
ITEM: BOX BOUNDS pp pp pp
-6.7570332693457447e+00 6.7570332693457447e+00
-6.7570332693457447e+00 6.7570332693457447e+00
-1.0000000000000001e-01 1.0000000000000001e-01
ITEM: ATOMS id type xs ys zs
46 3 0.00541594 0.0257225 0.5
6 1 0.505336 0.0340382 0.5
26 2 0.123585 0.0860472 0.5
8 1 0.307118 0.0954094 0.5
3 1 0.488635 0.110184 0.5
36 2 0.0436809 0.145642 0.5
4 1 0.29723 0.20551 0.5
22 2 0.535083 0.160328 0.5
19 1 0.613249 0.193683 0.5
49 3 0.347074 0.261966 0.5
18 1 0.422049 0.264845 0.5
73 4 0.429266 0.201227 0.5
48 3 0.555259 0.244731 0.5
80 4 0.647507 0.294405 0.5
72 4 0.75678 0.277455 0.5
35 2 0.818398 0.289155 0.5
55 3 0.982589 0.303678 0.5
21 2 0.0446643 0.32391 0.5
9 1 0.440806 0.345344 0.5
79 4 0.480224 0.313529 0.5
74 4 0.645706 0.335538 0.5
71 4 0.689768 0.323045 0.5
52 3 0.863425 0.320809 0.5
42 3 0.910067 0.329731 0.5
59 3 0.0119247 0.383175 0.5
13 1 0.376753 0.39566 0.5
66 4 0.484384 0.384465 0.5
56 3 0.864888 0.422101 0.5
1 1 0.92931 0.385932 0.5
62 4 0.015134 0.430858 0.5
12 1 0.637754 0.459959 0.5
14 1 0.744433 0.455287 0.5
61 4 0.810076 0.463009 0.5
64 4 0.937819 0.447725 0.5
76 4 0.211311 0.510841 0.5
20 1 0.501903 0.476905 0.5
60 3 0.573605 0.576978 0.5
29 2 0.887494 0.56942 0.5
31 2 0.941033 0.520294 0.5
78 4 0.12687 0.610584 0.5
53 3 0.172906 0.613766 0.5
77 4 0.293621 0.583288 0.5
38 2 0.691593 0.589203 0.5
58 3 0.763422 0.595542 0.5
24 2 0.235658 0.627292 0.5
44 3 0.4117 0.657538 0.5
32 2 0.791618 0.648996 0.5
28 2 0.874069 0.67798 0.5
30 2 0.88857 0.620974 0.5
43 3 0.952348 0.646962 0.5
34 2 0.279607 0.691735 0.5
41 3 0.423322 0.714064 0.5
37 2 0.535293 0.71199 0.5
45 3 0.489652 0.722997 0.5
54 3 0.584827 0.692162 0.5
67 4 0.672235 0.716551 0.5
5 1 0.761732 0.686549 0.5
16 1 0.848012 0.727018 0.5
63 4 0.265521 0.762606 0.5
70 4 0.513664 0.77764 0.5
23 2 0.604936 0.762917 0.5
33 2 0.719494 0.763798 0.5
68 4 0.691468 0.730058 0.5
7 1 0.793748 0.800821 0.5
75 4 0.395421 0.835275 0.5
65 4 0.724063 0.824685 0.5
69 4 0.850199 0.797221 0.5
40 2 0.0953719 0.882534 0.5
47 3 0.260249 0.860921 0.5
11 1 0.654034 0.848947 0.5
17 1 0.708489 0.916084 0.5
2 1 0.858519 0.869264 0.5
39 2 0.175673 0.901157 0.5
51 3 0.300635 0.907797 0.5
57 3 0.597842 0.908473 0.5
10 1 0.0881957 0.973004 0.5
50 3 0.4293 0.947783 0.5
15 1 0.501994 0.948327 0.5
25 2 0.57902 0.974779 0.5
27 2 0.837266 0.95666 0.5
ITEM: TIMESTEP
110
ITEM: NUMBER OF ATOMS
80
ITEM: BOX BOUNDS pp pp pp
-6.8423124448676598e+00 6.8423124448676598e+00
-6.8423124448676598e+00 6.8423124448676598e+00
-1.0000000000000001e-01 1.0000000000000001e-01
ITEM: ATOMS id type xs ys zs
46 3 0.00541594 0.0257225 0.5
6 1 0.505194 0.033292 0.5
26 2 0.123585 0.0860472 0.5
8 1 0.307138 0.0951291 0.5
3 1 0.486914 0.112597 0.5
36 2 0.0436809 0.145642 0.5
4 1 0.296079 0.204566 0.5
22 2 0.533709 0.15983 0.5
19 1 0.617579 0.192783 0.5
49 3 0.347069 0.26317 0.5
18 1 0.422432 0.265991 0.5
73 4 0.429605 0.198902 0.5
48 3 0.553312 0.247377 0.5
80 4 0.647334 0.292793 0.5
72 4 0.756399 0.277375 0.5
35 2 0.817178 0.288208 0.5
55 3 0.979933 0.302665 0.5
21 2 0.0477124 0.323915 0.5
9 1 0.441535 0.342142 0.5
79 4 0.481472 0.3127 0.5
74 4 0.645147 0.337131 0.5
71 4 0.6905 0.323065 0.5
52 3 0.862203 0.320904 0.5
42 3 0.912305 0.329024 0.5
59 3 0.0118056 0.383071 0.5
13 1 0.369915 0.39902 0.5
66 4 0.489658 0.386335 0.5
56 3 0.86188 0.423389 0.5
1 1 0.931575 0.383511 0.5
62 4 0.0151941 0.431945 0.5
12 1 0.637435 0.459971 0.5
14 1 0.742396 0.455001 0.5
61 4 0.812433 0.463283 0.5
64 4 0.938813 0.450511 0.5
76 4 0.211311 0.510841 0.5
20 1 0.501903 0.476905 0.5
60 3 0.573605 0.576978 0.5
29 2 0.885548 0.570039 0.5
31 2 0.943082 0.518338 0.5
78 4 0.124491 0.610409 0.5
53 3 0.174639 0.613793 0.5
77 4 0.293662 0.583256 0.5
38 2 0.690756 0.589119 0.5
58 3 0.76396 0.594992 0.5
24 2 0.235465 0.626324 0.5
44 3 0.411267 0.655434 0.5
32 2 0.79131 0.644804 0.5
28 2 0.874689 0.680482 0.5
30 2 0.889775 0.61678 0.5
43 3 0.95341 0.647076 0.5
34 2 0.280411 0.692844 0.5
41 3 0.423699 0.716161 0.5
37 2 0.5348 0.710463 0.5
45 3 0.48253 0.723468 0.5
54 3 0.588344 0.688166 0.5
67 4 0.671337 0.715988 0.5
5 1 0.76118 0.681155 0.5
16 1 0.851428 0.730508 0.5
63 4 0.265514 0.762645 0.5
70 4 0.513504 0.778437 0.5
23 2 0.60922 0.767125 0.5
33 2 0.717069 0.767853 0.5
68 4 0.685515 0.728359 0.5
7 1 0.797107 0.807608 0.5
75 4 0.395421 0.835275 0.5
65 4 0.724591 0.824332 0.5
69 4 0.850885 0.797026 0.5
40 2 0.0945577 0.88116 0.5
47 3 0.259661 0.860239 0.5
11 1 0.650182 0.844616 0.5
17 1 0.712005 0.920857 0.5
2 1 0.859094 0.869059 0.5
39 2 0.176613 0.90134 0.5
51 3 0.301222 0.908479 0.5
57 3 0.597605 0.908271 0.5
10 1 0.08807 0.974195 0.5
50 3 0.42862 0.947735 0.5
15 1 0.498827 0.945092 0.5
25 2 0.583456 0.97573 0.5
27 2 0.837016 0.95772 0.5
ITEM: TIMESTEP
120
ITEM: NUMBER OF ATOMS
80
ITEM: BOX BOUNDS pp pp pp
-6.8898194426351003e+00 6.8898194426351003e+00
-6.8898194426351003e+00 6.8898194426351003e+00
-1.0000000000000001e-01 1.0000000000000001e-01
ITEM: ATOMS id type xs ys zs
46 3 0.00541594 0.0257225 0.5
6 1 0.505074 0.0325548 0.5
26 2 0.123585 0.0860472 0.5
8 1 0.307162 0.0948073 0.5
3 1 0.484984 0.115006 0.5
36 2 0.0436809 0.145642 0.5
4 1 0.29487 0.203599 0.5
22 2 0.532452 0.159493 0.5
19 1 0.621976 0.191895 0.5
49 3 0.347008 0.264433 0.5
18 1 0.422818 0.26694 0.5
73 4 0.42995 0.196512 0.5
48 3 0.551349 0.250015 0.5
80 4 0.647167 0.291168 0.5
72 4 0.755951 0.277284 0.5
35 2 0.815903 0.28718 0.5
55 3 0.977256 0.301639 0.5
21 2 0.0508344 0.323859 0.5
9 1 0.442165 0.339206 0.5
79 4 0.48293 0.311786 0.5
74 4 0.644573 0.338745 0.5
71 4 0.69124 0.323076 0.5
52 3 0.861005 0.321079 0.5
42 3 0.914556 0.32812 0.5
59 3 0.0117312 0.382966 0.5
13 1 0.363083 0.402418 0.5
66 4 0.494917 0.388254 0.5
56 3 0.858849 0.424699 0.5
1 1 0.933856 0.381231 0.5
62 4 0.0152591 0.433099 0.5
12 1 0.637041 0.459987 0.5
14 1 0.740391 0.454705 0.5
61 4 0.814831 0.463564 0.5
64 4 0.939796 0.453317 0.5
76 4 0.211311 0.510841 0.5
20 1 0.501903 0.476905 0.5
60 3 0.573605 0.576978 0.5
29 2 0.883523 0.570401 0.5
31 2 0.945181 0.516377 0.5
78 4 0.122081 0.610232 0.5
53 3 0.176271 0.613795 0.5
77 4 0.293705 0.583222 0.5