ITEM: TIMESTEP
250
ITEM: NUMBER OF ATOMS
49
ITEM: BOX BOUNDS pp pp pp
-4.8098621286031467e+00 4.8098621286031467e+00
-4.8115911562173164e+00 4.8115911562173164e+00
-1.0000000000000001e-01 1.0000000000000001e-01
ITEM: ATOMS id type xs ys zs
13 1 0.170362 0.00634113 0.500203
75 1 0.275653 0.97943 0.499559
30 1 0.29418 0.076398 0.499421
35 1 0.403857 0.0616761 0.500364
40 1 0.484641 0.976098 0.500034
66 1 0.600276 0.083004 0.49956
59 1 0.677589 0.100151 0.500438
49 1 0.766395 0.118479 0.499999
58 1 0.515832 0.0935076 0.500352
38 1 0.584098 0.178517 0.500627
37 1 0.703229 0.199105 0.500585
65 1 0.793669 0.185562 0.501188
11 1 0.13831 0.264183 0.499726
47 1 0.238184 0.326309 0.500368
6 1 0.291756 0.209506 0.500211
19 1 0.451861 0.211635 0.499106
72 1 0.551978 0.274126 0.500133
3 1 0.65702 0.316098 0.500178
69 1 0.757028 0.264543 0.499164
39 1 0.852716 0.262452 0.498776
2 1 0.107696 0.407444 0.500184
10 1 0.251826 0.450772 0.500135
8 1 0.362 0.349207 0.499463
21 1 0.509655 0.354599 0.499606
18 1 0.587598 0.4497 0.500288
48 1 0.782165 0.351663 0.499706
68 1 0.849483 0.410822 0.500036
80 1 0.788278 0.438458 0.50016
23 1 0.939285 0.359901 0.500318
27 1 0.139731 0.544429 0.500525
76 1 0.341247 0.539362 0.500263
46 1 0.382495 0.474803 0.500936
79 1 0.454999 0.435255 0.499828
56 1 0.467141 0.509984 0.500329
15 1 0.728754 0.533249 0.500594
54 1 0.847124 0.487355 0.500496
5 1 0.970768 0.476641 0.500306
33 1 0.0293201 0.599621 0.499874
16 1 0.259237 0.60651 0.49927
34 1 0.404019 0.593432 0.499731
17 1 0.125902 0.690524 0.500053
14 1 0.303604 0.754494 0.499466
28 1 0.0778636 0.820857 0.501299
62 1 0.18988 0.7785 0.5008
25 1 0.226049 0.869474 0.499923
22 1 0.0496226 0.945321 0.499365
74 1 0.131141 0.881345 0.499573
1 1 0.361106 0.914869 0.49931
24 1 0.610302 0.00425882 0.499596
ITEM: TIMESTEP
500
ITEM: NUMBER OF ATOMS
49
ITEM: BOX BOUNDS pp pp pp
-4.8086595909187348e+00 4.8086595909187348e+00
-4.8047022294991031e+00 4.8047022294991031e+00
-1.0000000000000001e-01 1.0000000000000001e-01
ITEM: ATOMS id type xs ys zs
13 1 0.16941 0.00689418 0.499335
75 1 0.275524 0.979622 0.500028
30 1 0.292799 0.0768921 0.498732
35 1 0.403221 0.0621048 0.50135
40 1 0.484207 0.976114 0.500093
66 1 0.599842 0.0830045 0.500514
59 1 0.677294 0.0999277 0.502155
49 1 0.765968 0.117555 0.499423
58 1 0.515443 0.0943992 0.500479
38 1 0.584307 0.178769 0.502557
37 1 0.70329 0.199111 0.501633
65 1 0.793549 0.184824 0.502136
11 1 0.138233 0.26357 0.499532
47 1 0.237678 0.326693 0.497998
6 1 0.291853 0.210873 0.50213
19 1 0.452472 0.212296 0.500156
72 1 0.551955 0.274832 0.500828
3 1 0.65739 0.31669 0.500476
69 1 0.757082 0.26459 0.499747
39 1 0.852576 0.262309 0.500348
2 1 0.107873 0.407674 0.498408
10 1 0.251804 0.451297 0.498808
8 1 0.362391 0.349194 0.499986
21 1 0.509159 0.354957 0.499608
18 1 0.586553 0.44937 0.500457
48 1 0.782834 0.351687 0.500279
68 1 0.849946 0.411098 0.502565
80 1 0.788808 0.438657 0.500046
23 1 0.939987 0.358927 0.500642
27 1 0.139997 0.545072 0.499766
76 1 0.341577 0.540578 0.500782
46 1 0.382451 0.474973 0.502223
79 1 0.454737 0.435158 0.498783
56 1 0.466863 0.509978 0.498889
15 1 0.728022 0.532676 0.501524
54 1 0.847108 0.487974 0.501415
5 1 0.97109 0.47665 0.499765
33 1 0.0297203 0.599968 0.498498
16 1 0.2591 0.606947 0.499641
34 1 0.404785 0.593893 0.497948
17 1 0.125778 0.691629 0.501648
14 1 0.304542 0.755182 0.499785
28 1 0.0787116 0.822313 0.501307
62 1 0.190595 0.779557 0.504099
25 1 0.226139 0.870483 0.501821
22 1 0.0487077 0.946015 0.498248
74 1 0.131423 0.883693 0.497697
1 1 0.36079 0.915193 0.498117
24 1 0.610088 0.00384153 0.500005
ITEM: TIMESTEP
750
ITEM: NUMBER OF ATOMS
49
ITEM: BOX BOUNDS pp pp pp
-4.8074570532343230e+00 4.8074570532343230e+00
-4.8106147875891683e+00 4.8106147875891683e+00
-1.0000000000000001e-01 1.0000000000000001e-01
ITEM: ATOMS id type xs ys zs
13 1 0.170628 0.00727494 0.500388
75 1 0.275849 0.979999 0.500089
30 1 0.294208 0.0767131 0.501222
35 1 0.40386 0.0628091 0.500996
40 1 0.484205 0.977148 0.500365
66 1 0.599782 0.0830052 0.499627
59 1 0.67676 0.10043 0.501836
49 1 0.766231 0.117679 0.499345
58 1 0.515594 0.0946264 0.49894
38 1 0.584948 0.178811 0.502931
37 1 0.703771 0.199114 0.501684
65 1 0.793881 0.18484 0.500345
11 1 0.138505 0.264241 0.497866
47 1 0.237601 0.327103 0.498759
6 1 0.292069 0.210489 0.503886
19 1 0.452455 0.212352 0.500743
72 1 0.552508 0.274437 0.50257
3 1 0.657922 0.31666 0.499266
69 1 0.757805 0.264214 0.49987
39 1 0.853372 0.262163 0.499272
2 1 0.107872 0.407976 0.497464
10 1 0.251612 0.451415 0.499408
8 1 0.362467 0.349361 0.499742
21 1 0.509694 0.354637 0.499967
18 1 0.588092 0.448879 0.50012
48 1 0.783163 0.351457 0.500484
68 1 0.850097 0.410143 0.503032
80 1 0.788891 0.438343 0.501683
23 1 0.940605 0.359966 0.503535
27 1 0.139313 0.545278 0.498789
76 1 0.342227 0.540359 0.500813
46 1 0.382979 0.475044 0.499919
79 1 0.454893 0.434984 0.498748
56 1 0.467151 0.509823 0.497956
15 1 0.729407 0.533609 0.501946
54 1 0.84791 0.486799 0.50219
5 1 0.972512 0.476487 0.499445
33 1 0.0294221 0.600128 0.49941
16 1 0.259384 0.606808 0.499776
34 1 0.405071 0.594706 0.498129
17 1 0.12568 0.691391 0.502859
14 1 0.303497 0.754652 0.499042
28 1 0.0802874 0.822488 0.501103
62 1 0.189104 0.779546 0.504723
25 1 0.226227 0.87007 0.500356
22 1 0.0495372 0.946572 0.499149
74 1 0.132247 0.883942 0.497849
1 1 0.360155 0.915522 0.4968
24 1 0.609871 0.00419672 0.499221
ITEM: TIMESTEP
1000
ITEM: NUMBER OF ATOMS
49
ITEM: BOX BOUNDS pp pp pp
-4.8062545155499112e+00 4.8062545155499112e+00
-4.8053006067246828e+00 4.8053006067246828e+00
-1.0000000000000001e-01 1.0000000000000001e-01
ITEM: ATOMS id type xs ys zs
13 1 0.169629 0.00687589 0.500611
75 1 0.2749 0.979055 0.499741
30 1 0.293271 0.0764484 0.501178
35 1 0.40415 0.063688 0.499463
40 1 0.484154 0.976878 0.501331
66 1 0.600262 0.0827916 0.499002
59 1 0.677245 0.100646 0.502905
49 1 0.766369 0.118293 0.501462
58 1 0.516127 0.0946383 0.497893
38 1 0.584998 0.179256 0.503524
37 1 0.704224 0.199875 0.501297
65 1 0.794391 0.185369 0.499937
11 1 0.138472 0.264604 0.496377
47 1 0.238041 0.327075 0.498334
6 1 0.291826 0.209961 0.504688
19 1 0.45221 0.212338 0.49844
72 1 0.552449 0.274764 0.500632
3 1 0.658144 0.316964 0.500751
69 1 0.75818 0.265354 0.498439
39 1 0.854385 0.262331 0.500823
2 1 0.107135 0.4083 0.499567
10 1 0.252001 0.451321 0.500159
8 1 0.362595 0.349224 0.499446
21 1 0.509532 0.354557 0.49821
18 1 0.587844 0.449288 0.499249
48 1 0.78362 0.351605 0.501453
68 1 0.850371 0.410344 0.501769
80 1 0.789327 0.438659 0.503104
23 1 0.940997 0.359472 0.503886
27 1 0.140135 0.544941 0.501832
76 1 0.342957 0.5411 0.499696
46 1 0.382879 0.475097 0.500038
79 1 0.455059 0.435085 0.498765
56 1 0.467329 0.510007 0.498985
15 1 0.72906 0.533217 0.500923
54 1 0.848143 0.487059 0.501839
5 1 0.973073 0.4768 0.499732
33 1 0.0305011 0.599951 0.498243
16 1 0.259739 0.606277 0.50026
34 1 0.405589 0.595055 0.496116
17 1 0.127232 0.69076 0.503986
14 1 0.304054 0.754603 0.49879
28 1 0.0804981 0.821886 0.502041
62 1 0.189926 0.779576 0.503446
25 1 0.226763 0.870136 0.500254
22 1 0.0489519 0.946133 0.498576
74 1 0.132302 0.884386 0.498873
1 1 0.361022 0.914462 0.496624
24 1 0.610081 0.00379533 0.499792
ITEM: TIMESTEP
1250
ITEM: NUMBER OF ATOMS
49
ITEM: BOX BOUNDS pp pp pp
-4.8050519778654994e+00 4.8050519778654994e+00
-4.7977731481186989e+00 4.7977731481186989e+00
-1.0000000000000001e-01 1.0000000000000001e-01
ITEM: ATOMS id type xs ys zs
13 1 0.169675 0.00522579 0.501035
75 1 0.27536 0.977984 0.500647
30 1 0.293336 0.0758498 0.50033
35 1 0.403949 0.0624984 0.498727
40 1 0.484342 0.976888 0.502597
66 1 0.600159 0.0825313 0.498773
59 1 0.677037 0.100735 0.503338
49 1 0.766623 0.117142 0.500535
58 1 0.515744 0.0940747 0.496477
38 1 0.585526 0.178693 0.503485
37 1 0.704727 0.199695 0.502055
65 1 0.795164 0.184115 0.500235
11 1 0.138981 0.263172 0.498168
47 1 0.239046 0.326662 0.498915
6 1 0.292461 0.209868 0.504032
19 1 0.453052 0.213232 0.499233
72 1 0.554119 0.275201 0.501746
3 1 0.659529 0.318058 0.501434
69 1 0.758885 0.264941 0.50018
39 1 0.854878 0.260642 0.499013
2 1 0.108411 0.407567 0.501138
10 1 0.252628 0.451783 0.49838
8 1 0.363018 0.349608 0.49946
21 1 0.510109 0.355415 0.499291
18 1 0.587303 0.45047 0.49946
48 1 0.785567 0.350731 0.502704
68 1 0.850579 0.409929 0.50244
80 1 0.789632 0.438225 0.504166
23 1 0.941527 0.359203 0.504471
27 1 0.139709 0.544548 0.503926
76 1 0.3422 0.541211 0.500422
46 1 0.383399 0.476014 0.498756
79 1 0.456784 0.436971 0.497175
56 1 0.467336 0.512254 0.4985
15 1 0.729502 0.53325 0.500747
54 1 0.848208 0.486747 0.50053
5 1 0.972184 0.476003 0.49972
33 1 0.0298317 0.599801 0.498514
16 1 0.258992 0.606625 0.502582
34 1 0.404732 0.596087 0.497428
17 1 0.125928 0.690364 0.503886
14 1 0.303164 0.754765 0.496646
28 1 0.0793995 0.821309 0.501843
62 1 0.18886 0.77947 0.503867
25 1 0.226483 0.870502 0.498539
22 1 0.0482926 0.945521 0.497356
74 1 0.131339 0.883341 0.497503
1 1 0.361248 0.914589 0.494398
24 1 0.610739 0.00346025 0.500238
ITEM: TIMESTEP
1500
ITEM: NUMBER OF ATOMS
49
ITEM: BOX BOUNDS pp pp pp
-4.8038494401810876e+00 4.8038494401810876e+00
-4.7979983416521117e+00 4.7979983416521117e+00
-1.0000000000000001e-01 1.0000000000000001e-01
ITEM: ATOMS id type xs ys zs
13 1 0.169607 0.00511871 0.502947
75 1 0.27539 0.977672 0.503238
30 1 0.293124 0.0752104 0.501711
35 1 0.403608 0.0622047 0.497496
40 1 0.484378 0.976527 0.500713
66 1 0.59928 0.0818686 0.498699
59 1 0.676002 0.10144 0.503851
49 1 0.765702 0.117001 0.500916
58 1 0.515402 0.0940593 0.496551
38 1 0.585237 0.178497 0.501527
37 1 0.704693 0.200054 0.50039
65 1 0.794471 0.183869 0.501403
11 1 0.139476 0.26295 0.498027
47 1 0.23894 0.326823 0.499201
6 1 0.293148 0.209326 0.501792
19 1 0.453864 0.213146 0.498417
72 1 0.553897 0.275077 0.502589
3 1 0.659066 0.318108 0.501186
69 1 0.758298 0.265093 0.50018
39 1 0.85431 0.260866 0.49794
2 1 0.109131 0.406929 0.500953
10 1 0.252887 0.451625 0.497817
8 1 0.3629 0.349847 0.501055
21 1 0.51004 0.355688 0.499947
18 1 0.587594 0.450656 0.499126
48 1 0.7848 0.351283 0.501759
68 1 0.85007 0.40964 0.500699
80 1 0.788839 0.437885 0.504786
23 1 0.94102 0.359081 0.504698
27 1 0.139917 0.54464 0.50482
76 1 0.342435 0.54104 0.500978
46 1 0.383474 0.475492 0.496704
79 1 0.456694 0.437242 0.497047
56 1 0.467272 0.512632 0.498738
15 1 0.730097 0.534284 0.499643
54 1 0.848088 0.486543 0.502084
5 1 0.97217 0.476029 0.50016
33 1 0.0294016 0.599841 0.499649
16 1 0.259444 0.607312 0.503836
34 1 0.404828 0.596412 0.497499
17 1 0.125448 0.690929 0.504278
14 1 0.303537 0.755503 0.497092
28 1 0.0785339 0.82215 0.501696
62 1 0.189565 0.779155 0.504162
25 1 0.225125 0.870624 0.499486
22 1 0.0475074 0.945784 0.496314
74 1 0.13044 0.884074 0.499367
1 1 0.360899 0.913536 0.493568
24 1 0.611066 0.00284782 0.501933
ITEM: TIMESTEP
1750
ITEM: NUMBER OF ATOMS
49
ITEM: BOX BOUNDS pp pp pp
-4.8026469024966758e+00 4.8026469024966758e+00
-4.7873998236541642e+00 4.7873998236541642e+00
-1.0000000000000001e-01 1.0000000000000001e-01
ITEM: ATOMS id type xs ys zs
13 1 0.169003 0.00543435 0.502848
75 1 0.273952 0.977279 0.504156
30 1 0.293085 0.0747352 0.501915
35 1 0.403529 0.062162 0.498834
40 1 0.484776 0.976672 0.501035
66 1 0.599661 0.0823969 0.498277
59 1 0.676632 0.100367 0.503509
49 1 0.765661 0.116098 0.501378
58 1 0.515589 0.0940442 0.496137
38 1 0.584692 0.178775 0.500137
37 1 0.704262 0.199561 0.499768
65 1 0.794137 0.182947 0.502109
11 1 0.138158 0.262299 0.499392
47 1 0.237712 0.326444 0.498564
6 1 0.291779 0.208956 0.502905
19 1 0.452946 0.212436 0.497303
72 1 0.5531 0.275164 0.503109
3 1 0.658592 0.317826 0.500988
69 1 0.758774 0.264533 0.49923
39 1 0.853954 0.259349 0.499714
2 1 0.109467 0.406763 0.50242
10 1 0.25201 0.451739 0.497436
8 1 0.362097 0.349124 0.502122
21 1 0.510478 0.355322 0.500842
18 1 0.588394 0.450393 0.499425
48 1 0.784713 0.350723 0.500568
68 1 0.850252 0.409349 0.499587
80 1 0.788682 0.438091 0.50522
23 1 0.9405 0.357169 0.507877
27 1 0.139772 0.545183 0.506143
76 1 0.341269 0.540999 0.50184
46 1 0.383645 0.476034 0.496201
79 1 0.45663 0.436956 0.499658
56 1 0.467635 0.512054 0.497783
15 1 0.730106 0.534332 0.498392
54 1 0.84825 0.486207 0.500583
5 1 0.972317 0.474631 0.500224
33 1 0.0290331 0.599192 0.501405
16 1 0.259213 0.607797 0.502903
34 1 0.404134 0.595515 0.496287
17 1 0.125431 0.691643 0.505385
14 1 0.304128 0.756259 0.499083
28 1 0.0781257 0.822692 0.502105
62 1 0.190246 0.77997 0.505829
25 1 0.22582 0.871929 0.499787
22 1 0.0470017 0.946596 0.495843
74 1 0.130718 0.884299 0.500303
1 1 0.361022 0.913419 0.494088
24 1 0.610773 0.00296407 0.501856
ITEM: TIMESTEP
2000
ITEM: NUMBER OF ATOMS
49
ITEM: BOX BOUNDS pp pp pp
-4.8014443648122640e+00 4.8014443648122640e+00
-4.7858340682687945e+00 4.7858340682687945e+00
-1.0000000000000001e-01 1.0000000000000001e-01
ITEM: ATOMS id type xs ys zs
13 1 0.16988 0.00441519 0.501738
75 1 0.27538 0.977446 0.503833
30 1 0.292858 0.0749084 0.503138
35 1 0.403756 0.0615985 0.496915
40 1 0.484777 0.97628 0.501828
66 1 0.599874 0.0813743 0.498119
59 1 0.676154 0.10103 0.503765
49 1 0.765935 0.116632 0.501516
58 1 0.515637 0.0932335 0.496312
38 1 0.58516 0.178313 0.500182
37 1 0.70446 0.199708 0.49688
65 1 0.794673 0.183786 0.500885
11 1 0.136896 0.263961 0.50028
47 1 0.237409 0.32664 0.498093
6 1 0.291041 0.209374 0.504316
19 1 0.453392 0.212696 0.495912
72 1 0.553541 0.27514 0.503937
3 1 0.658643 0.31745 0.5027
69 1 0.758661 0.264673 0.501083
39 1 0.854856 0.260885 0.499042
2 1 0.107832 0.408374 0.50221
10 1 0.251649 0.451895 0.498586
8 1 0.361814 0.348706 0.500855
21 1 0.510284 0.355282 0.501654
18 1 0.588023 0.451108 0.498658
48 1 0.784712 0.350975 0.501621
68 1 0.851656 0.410316 0.500442
80 1 0.790167 0.43849 0.50587
23 1 0.941433 0.358641 0.508244
27 1 0.139031 0.545137 0.506147
76 1 0.34062 0.540017 0.500961
46 1 0.383113 0.475457 0.497199
79 1 0.456091 0.436199 0.501693
56 1 0.467632 0.511486 0.496039
15 1 0.73043 0.534679 0.496491
54 1 0.849563 0.487008 0.501611
5 1 0.973771 0.475272 0.501651
33 1 0.0285467 0.600618 0.501924
16 1 0.258663 0.608023 0.50106
34 1 0.40374 0.594699 0.494876
17 1 0.125084 0.691461 0.50371
14 1 0.303197 0.757118 0.499862
28 1 0.0779616 0.82358 0.502929
62 1 0.188417 0.780318 0.505148
25 1 0.224422 0.871935 0.499265
22 1 0.0465584 0.948683 0.496434
74 1 0.129679 0.885496 0.501093
1 1 0.360614 0.913319 0.49592
24 1 0.611538 0.00243172 0.502803
ITEM: TIMESTEP
2250
ITEM: NUMBER OF ATOMS
49
ITEM: BOX BOUNDS pp pp pp
-4.8002418271278522e+00 4.8002418271278522e+00
-4.7915199101325214e+00 4.7915199101325214e+00
-1.0000000000000001e-01 1.0000000000000001e-01
ITEM: ATOMS id type xs ys zs
13 1 0.170094 0.00322012 0.504025
75 1 0.275947 0.977754 0.502766
30 1 0.29308 0.0753772 0.503623
35 1 0.403762 0.0611594 0.49767
40 1 0.485036 0.975066 0.500976
66 1 0.600609 0.0826106 0.495895
59 1 0.677643 0.101182 0.50388
49 1 0.767024 0.118267 0.502362
58 1 0.515964 0.0932618 0.494715
38 1 0.585392 0.178315 0.498928
37 1 0.705119 0.200108 0.497361
65 1 0.795491 0.18504 0.499618
11 1 0.138303 0.263964 0.500717
47 1 0.237696 0.326581 0.497825
6 1 0.292084 0.209217 0.502989
19 1 0.453442 0.212789 0.497084
72 1 0.554181 0.274634 0.504328
3 1 0.659536 0.317114 0.502412
69 1 0.760265 0.264379 0.501034
39 1 0.855438 0.261745 0.497683
2 1 0.106919 0.408611 0.499485
10 1 0.251572 0.451806 0.499429
8 1 0.361573 0.349368 0.499634
21 1 0.50972 0.354661 0.500383
18 1 0.588429 0.449641 0.498769
48 1 0.785524 0.351483 0.501473
68 1 0.850546 0.410054 0.500252
80 1 0.789436 0.438463 0.50607
23 1 0.941814 0.359054 0.506541
27 1 0.139146 0.545464 0.506218
76 1 0.339834 0.540624 0.500736
46 1 0.382644 0.476126 0.497798
79 1 0.454139 0.434738 0.5034
56 1 0.467753 0.50981 0.496652
15 1 0.729665 0.533748 0.49695
54 1 0.849273 0.486673 0.502006
5 1 0.973243 0.47595 0.502632
33 1 0.028729 0.600857 0.503024
16 1 0.258333 0.607572 0.500683
34 1 0.403911 0.593137 0.493656
17 1 0.125646 0.692143 0.503849
14 1 0.302536 0.756569 0.498161
28 1 0.0784299 0.823778 0.503787
62 1 0.188515 0.781137 0.504533
25 1 0.224712 0.872409 0.497919
22 1 0.0462915 0.947212 0.495824
74 1 0.130061 0.885791 0.501225
1 1 0.361052 0.91302 0.496414
24 1 0.611248 0.0034582 0.501798
ITEM: TIMESTEP
2500
ITEM: NUMBER OF ATOMS
49
ITEM: BOX BOUNDS pp pp pp
-4.7990392894434404e+00 4.7990392894434404e+00
-4.7880754614751000e+00 4.7880754614751000e+00
-1.0000000000000001e-01 1.0000000000000001e-01
ITEM: ATOMS id type xs ys zs
13 1 0.17027 0.00422243 0.504554
75 1 0.27635 0.977625 0.501674
30 1 0.293861 0.0752508 0.504216
35 1 0.404271 0.060477 0.495755
40 1 0.485599 0.974957 0.501394
66 1 0.600351 0.0827013 0.49718
59 1 0.67789 0.100277 0.502562
49 1 0.767418 0.117249 0.504013
58 1 0.515951 0.0936154 0.494227
38 1 0.585044 0.179028 0.499578
37 1 0.705044 0.199274 0.497595
65 1 0.795244 0.184484 0.500015
11 1 0.138013 0.264295 0.499932
47 1 0.237919 0.326485 0.498481
6 1 0.291851 0.209031 0.503637
19 1 0.453488 0.212992 0.496452
72 1 0.5532 0.275154 0.502677
3 1 0.658922 0.316737 0.502847
69 1 0.758941 0.264506 0.50044
39 1 0.854663 0.261617 0.498435
2 1 0.105932 0.408881 0.499703
10 1 0.250722 0.451565 0.498112
8 1 0.362204 0.349795 0.499076
21 1 0.510813 0.356199 0.497541
18 1 0.589024 0.450888 0.498363
48 1 0.784458 0.350887 0.50143
68 1 0.849916 0.409366 0.498958
80 1 0.788655 0.438448 0.5065
23 1 0.940967 0.359632 0.507214
27 1 0.13825 0.545583 0.506528
76 1 0.33927 0.539964 0.502376
46 1 0.382399 0.476624 0.498418
79 1 0.453745 0.434791 0.503251
56 1 0.467666 0.509971 0.497072
15 1 0.73027 0.534686 0.496171
54 1 0.848458 0.485829 0.500956
5 1 0.972516 0.476005 0.502209
33 1 0.0277496 0.600902 0.50334
16 1 0.257891 0.60756 0.50069
34 1 0.403208 0.592801 0.494193
17 1 0.124519 0.692105 0.502422
14 1 0.301308 0.756001 0.497847
28 1 0.0785068 0.824445 0.504325
62 1 0.187021 0.782328 0.503045
25 1 0.224736 0.873475 0.496484
22 1 0.0461309 0.948501 0.496064
74 1 0.129783 0.886674 0.500965
1 1 0.361282 0.912788 0.495729
24 1 0.61152 0.0037842 0.500645
ITEM: TIMESTEP
2750
ITEM: NUMBER OF ATOMS
49
ITEM: BOX BOUNDS pp pp pp
-4.7978367517590286e+00 4.7978367517590286e+00
-4.7832652752203799e+00 4.7832652752203799e+00
-1.0000000000000001e-01 1.0000000000000001e-01
ITEM: ATOMS id type xs ys zs
13 1 0.170153 0.00473936 0.505987
75 1 0.275647 0.977496 0.502521
30 1 0.294127 0.0751972 0.504707
35 1 0.404164 0.0598868 0.496466
40 1 0.485632 0.974464 0.501094
66 1 0.599663 0.0818615 0.498578
59 1 0.677053 0.09954 0.503381
49 1 0.766278 0.116164 0.50497
58 1 0.515429 0.093495 0.493694
38 1 0.584533 0.178671 0.50025
37 1 0.703951 0.198639 0.497037
65 1 0.794197 0.183384 0.501169
11 1 0.138358 0.263356 0.500658
47 1 0.237901 0.32706 0.497278
6 1 0.292089 0.209532 0.502924
19 1 0.452728 0.212081 0.496259
72 1 0.552382 0.274663 0.500503
3 1 0.658386 0.3165 0.502676
69 1 0.758106 0.263496 0.500897
39 1 0.854236 0.26 0.498778
2 1 0.107495 0.408231 0.499114
10 1 0.25095 0.452378 0.497598
8 1 0.36264 0.349675 0.499832
21 1 0.51043 0.355428 0.497737
18 1 0.588738 0.450353 0.498176
48 1 0.784927 0.350611 0.499354
68 1 0.84985 0.409304 0.499128
80 1 0.789079 0.438083 0.505793
23 1 0.940972 0.358556 0.504773
27 1 0.138471 0.546156 0.506831
76 1 0.339234 0.540452 0.501517
46 1 0.382575 0.476014 0.499255
79 1 0.454259 0.43514 0.503651
56 1 0.467577 0.51017 0.495704
15 1 0.730905 0.534413 0.494799
54 1 0.849439 0.485981 0.501318
5 1 0.973765 0.475974 0.502691
33 1 0.0282281 0.601322 0.502951
16 1 0.257914 0.608223 0.500929
34 1 0.403283 0.592851 0.494124
17 1 0.125009 0.692467 0.501901
14 1 0.301782 0.756357 0.498333
28 1 0.076606 0.82411 0.504805
62 1 0.187938 0.781951 0.502306
25 1 0.224946 0.872852 0.497297
22 1 0.046725 0.948128 0.495294
74 1 0.12934 0.885603 0.501726
1 1 0.361692 0.913094 0.496643
24 1 0.611714 0.00264231 0.499108
ITEM: TIMESTEP
3000
ITEM: NUMBER OF ATOMS
49
ITEM: BOX BOUNDS pp pp pp
-4.7966342140746159e+00 4.7966342140746159e+00
-4.7816085536136796e+00 4.7816085536136796e+00
-1.0000000000000001e-01 1.0000000000000001e-01
ITEM: ATOMS id type xs ys zs
13 1 0.170068 0.00380766 0.506127
75 1 0.276406 0.977394 0.5026
30 1 0.29299 0.0751091 0.503471
35 1 0.403383 0.0602833 0.497773
40 1 0.484939 0.974767 0.499983
66 1 0.599608 0.0807476 0.497554
59 1 0.676509 0.0996186 0.503837
49 1 0.766347 0.116134 0.504936
58 1 0.51523 0.0925864 0.496389
38 1 0.584529 0.177713 0.501327
37 1 0.704151 0.198197 0.497871
65 1 0.794548 0.183224 0.502321
11 1 0.137986 0.262994 0.499615
47 1 0.237619 0.326507 0.49782
6 1 0.292038 0.210015 0.503359
19 1 0.452221 0.211438 0.496711
72 1 0.552331 0.273612 0.501967
3 1 0.65781 0.316234 0.503819
69 1 0.758456 0.26425 0.502014
39 1 0.853997 0.26127 0.498652
2 1 0.107807 0.408229 0.499413
10 1 0.25109 0.451768 0.498079
8 1 0.362278 0.349496 0.499912
21 1 0.510585 0.355308 0.497766
18 1 0.588243 0.450878 0.498399
48 1 0.783836 0.35087 0.499556
68 1 0.849761 0.40884 0.499576
80 1 0.788918 0.438037 0.504145
23 1 0.941362 0.358061 0.504883
27 1 0.138106 0.545759 0.507474
76 1 0.339821 0.540589 0.502052
46 1 0.382332 0.476019 0.500409
79 1 0.455119 0.43566 0.502148
56 1 0.46712 0.511129 0.495776
15 1 0.730959 0.534046 0.494955
54 1 0.849053 0.485667 0.500746
5 1 0.973111 0.475275 0.502974
33 1 0.0279057 0.600981 0.503432
16 1 0.257702 0.607323 0.501322
34 1 0.403167 0.593978 0.493122
17 1 0.124342 0.692931 0.501054
14 1 0.301613 0.756386 0.498583
28 1 0.07701 0.824575 0.505899
62 1 0.187514 0.782044 0.502818
25 1 0.224955 0.872858 0.49572
22 1 0.046335 0.948779 0.495532
74 1 0.12963 0.886004 0.502191
1 1 0.361562 0.911649 0.496627
24 1 0.611176 0.00147273 0.49873
ITEM: TIMESTEP
3250
ITEM: NUMBER OF ATOMS
49
ITEM: BOX BOUNDS pp pp pp
-4.7954316763902041e+00 4.7954316763902041e+00
-4.7896850396662218e+00 4.7896850396662218e+00
-1.0000000000000001e-01 1.0000000000000001e-01
ITEM: ATOMS id type xs ys zs
13 1 0.169185 0.00264834 0.50501
75 1 0.275452 0.977064 0.503747
30 1 0.292085 0.074998 0.501137
35 1 0.402691 0.0601197 0.500015
40 1 0.48489 0.975476 0.497926
66 1 0.599549 0.0812983 0.496192
59 1 0.676897 0.0993994 0.501973
49 1 0.766041 0.116981 0.505906
58 1 0.515457 0.0929062 0.495466
38 1 0.583959 0.177706 0.499398
37 1 0.703302 0.198517 0.498617
65 1 0.79347 0.184381 0.501565
11 1 0.137123 0.263951 0.499981
47 1 0.237885 0.325957 0.495988
6 1 0.290712 0.208643 0.503453
19 1 0.452189 0.211096 0.495797
72 1 0.552321 0.273817 0.502746
3 1 0.657159 0.315293 0.504208
69 1 0.757696 0.264072 0.503179
39 1 0.853391 0.260956 0.498274
2 1 0.106472 0.408159 0.498701
10 1 0.250999 0.45093 0.49747
8 1 0.362529 0.348781 0.500805
21 1 0.51033 0.354659 0.49611
18 1 0.588391 0.449685 0.498099
48 1 0.782867 0.35048 0.5017
68 1 0.848661 0.408159 0.498762
80 1 0.788096 0.437841 0.502714
23 1 0.940075 0.358687 0.504602
27 1 0.138326 0.545162 0.506335
76 1 0.340554 0.540309 0.502314
46 1 0.382942 0.475673 0.500134
79 1 0.455703 0.435452 0.502798
56 1 0.467337 0.51099 0.495346
15 1 0.729988 0.534286 0.495005
54 1 0.848284 0.485353 0.500118
5 1 0.972907 0.475384 0.504027
33 1 0.0277396 0.601075 0.505685
16 1 0.257801 0.607137 0.501004
34 1 0.403259 0.594623 0.494199
17 1 0.124217 0.692172 0.499642
14 1 0.301447 0.755872 0.498637
28 1 0.0783645 0.824347 0.50569
62 1 0.18755 0.781322 0.504136
25 1 0.224788 0.872365 0.497252
22 1 0.0449139 0.947778 0.49581
74 1 0.129561 0.887095 0.501506
1 1 0.361613 0.911864 0.494981
24 1 0.611419 0.00212547 0.497487
ITEM: TIMESTEP
3500
ITEM: NUMBER OF ATOMS
49
ITEM: BOX BOUNDS pp pp pp
-4.7942291387057923e+00 4.7942291387057923e+00
-4.7972633430107878e+00 4.7972633430107878e+00
-1.0000000000000001e-01 1.0000000000000001e-01
ITEM: ATOMS id type xs ys zs
13 1 0.169751 0.00170189 0.504967
75 1 0.276064 0.976524 0.504367
30 1 0.291723 0.074737 0.501971
35 1 0.402803 0.0604354 0.49943
40 1 0.483888 0.974662 0.496361
66 1 0.599048 0.0817785 0.496791
59 1 0.67633 0.0993665 0.501306
49 1 0.766174 0.116056 0.506525
58 1 0.514769 0.092849 0.497087
38 1 0.584313 0.177916 0.500305
37 1 0.703611 0.198389 0.49917
65 1 0.793906 0.183272 0.501788
11 1 0.138027 0.264413 0.499306
47 1 0.237708 0.326528 0.495184
6 1 0.290512 0.2093 0.501844
19 1 0.451567 0.211311 0.495077
72 1 0.551804 0.274343 0.50252
3 1 0.657514 0.316123 0.503025
69 1 0.757668 0.263562 0.503421
39 1 0.853229 0.260368 0.499376
2 1 0.105689 0.408752 0.497826
10 1 0.251277 0.450968 0.496014
8 1 0.362076 0.349419 0.499943
21 1 0.508885 0.354835 0.497658
18 1 0.587166 0.449532 0.497007
48 1 0.783591 0.350684 0.500559
68 1 0.848995 0.408444 0.498814
80 1 0.787832 0.437415 0.499752
23 1 0.93987 0.358037 0.506564
27 1 0.138802 0.545171 0.506721
76 1 0.341086 0.540525 0.501647
46 1 0.382802 0.476139 0.501302
79 1 0.455658 0.43643 0.503172
56 1 0.467149 0.511394 0.496383
15 1 0.729319 0.533454 0.492503
54 1 0.847289 0.485574 0.500568
5 1 0.971922 0.475065 0.503685
33 1 0.0281091 0.600274 0.506938
16 1 0.25809 0.606593 0.502223
34 1 0.403624 0.594877 0.491344
17 1 0.123633 0.692228 0.500665
14 1 0.299713 0.754994 0.497412
28 1 0.0770499 0.82466 0.505682
62 1 0.185817 0.781849 0.503868
25 1 0.224044 0.872202 0.497408
22 1 0.0450485 0.947962 0.497675
74 1 0.129211 0.886312 0.501353
1 1 0.360928 0.911642 0.494769
24 1 0.609849 0.00256779 0.496943
ITEM: TIMESTEP
3750
ITEM: NUMBER OF ATOMS
49
ITEM: BOX BOUNDS pp pp pp
-4.7930266010213805e+00 4.7930266010213805e+00
-4.7976703578769877e+00 4.7976703578769877e+00
-1.0000000000000001e-01 1.0000000000000001e-01
ITEM: ATOMS id type xs ys zs
13 1 0.169744 0.00194353 0.504124
75 1 0.276515 0.978338 0.503576
30 1 0.290897 0.0764432 0.501596
35 1 0.402015 0.0603199 0.500458
40 1 0.483246 0.975343 0.496685
66 1 0.599056 0.0818115 0.497037
59 1 0.676395 0.0992287 0.498961
49 1 0.765593 0.116695 0.507394
58 1 0.514536 0.0931345 0.498791
38 1 0.583584 0.178149 0.498416
37 1 0.703309 0.198292 0.499936
65 1 0.793482 0.183482 0.50178
11 1 0.137508 0.264528 0.49812
47 1 0.237279 0.327013 0.494439
6 1 0.290465 0.209734 0.501961
19 1 0.451755 0.211823 0.49507
72 1 0.55114 0.274891 0.503454
3 1 0.657106 0.316089 0.503842
69 1 0.757181 0.263857 0.506114
39 1 0.853419 0.260695 0.501149
2 1 0.105797 0.408757 0.498875
10 1 0.250675 0.451705 0.496052
8 1 0.361546 0.349618 0.49888
21 1 0.508263 0.355053 0.498143
18 1 0.586926 0.44995 0.498326
48 1 0.782738 0.350638 0.500795
68 1 0.847168 0.408125 0.498626
80 1 0.786484 0.437819 0.49966
23 1 0.938838 0.358772 0.507503
27 1 0.138379 0.545865 0.507979
76 1 0.341194 0.541374 0.502223
46 1 0.382479 0.475857 0.501579
79 1 0.455105 0.436825 0.505365
56 1 0.466755 0.512089 0.496307
15 1 0.729043 0.534424 0.493339
54 1 0.846652 0.485113 0.50034
5 1 0.971386 0.475214 0.504916
33 1 0.0276041 0.59959 0.507039
16 1 0.25792 0.607274 0.5016
34 1 0.40357 0.596044 0.490165
17 1 0.123817 0.69217 0.501892
14 1 0.300835 0.756006 0.498547
28 1 0.0785758 0.824368 0.506743
62 1 0.186611 0.782045 0.504482
25 1 0.223807 0.872754 0.499118
22 1 0.0449149 0.948299 0.497288
74 1 0.129285 0.887324 0.499008
1 1 0.360788 0.911596 0.494844
24 1 0.609516 0.00281629 0.498012
ITEM: TIMESTEP
4000
ITEM: NUMBER OF ATOMS
49
ITEM: BOX BOUNDS pp pp pp
-4.7918240633369686e+00 4.7918240633369686e+00
-4.7966988433857116e+00 4.7966988433857116e+00
-1.0000000000000001e-01 1.0000000000000001e-01
ITEM: ATOMS id type xs ys zs
13 1 0.170456 0.000898037 0.503828
75 1 0.27695 0.978034 0.504187
30 1 0.291591 0.0759699 0.502487
35 1 0.402462 0.0590608 0.499258
40 1 0.483874 0.974044 0.497781
66 1 0.599495 0.0818761 0.497121
59 1 0.677027 0.0984474 0.499626
49 1 0.766178 0.116233 0.508611
58 1 0.514684 0.0925331 0.498121
38 1 0.583411 0.178062 0.497634
37 1 0.703051 0.197506 0.500367
65 1 0.793425 0.183472 0.502226
11 1 0.136454 0.264448 0.49834
47 1 0.236426 0.327084 0.492769
6 1 0.290381 0.209769 0.501683
19 1 0.451174 0.212186 0.495518
72 1 0.551416 0.274195 0.503864
3 1 0.658127 0.315387 0.505802
69 1 0.758248 0.262556 0.504746
39 1 0.853898 0.259888 0.501437
2 1 0.10641 0.408992 0.49913
10 1 0.250283 0.451918 0.495581
8 1 0.361195 0.349215 0.498797
21 1 0.508522 0.354429 0.497987
18 1 0.587233 0.448331 0.498387
48 1 0.783845 0.350083 0.500426
68 1 0.847863 0.408766 0.500011
80 1 0.786501 0.43723 0.498782
23 1 0.939072 0.359011 0.508134
27 1 0.137943 0.546047 0.508658
76 1 0.340789 0.540387 0.502624
46 1 0.382585 0.475391 0.502313
79 1 0.455213 0.435949 0.506559
56 1 0.467512 0.511265 0.494094
15 1 0.728547 0.533167 0.493417
54 1 0.846722 0.48523 0.499697
5 1 0.971766 0.475345 0.505025
33 1 0.0269094 0.600305 0.504732
16 1 0.258461 0.608103 0.499109
34 1 0.403606 0.594625 0.493076
17 1 0.123238 0.692677 0.50218
14 1 0.301129 0.756958 0.496348
28 1 0.0781136 0.824288 0.505407
62 1 0.18684 0.781845 0.504161
25 1 0.224013 0.872619 0.49848
22 1 0.0451549 0.948219 0.496154
74 1 0.129198 0.886721 0.497386
1 1 0.360914 0.91169 0.496917
24 1 0.609773 0.00257418 0.497525
ITEM: TIMESTEP
4250
ITEM: NUMBER OF ATOMS
49
ITEM: BOX BOUNDS pp pp pp
-4.7906215256525568e+00 4.7906215256525568e+00
-4.7901188933158965e+00 4.7901188933158965e+00
-1.0000000000000001e-01 1.0000000000000001e-01
ITEM: ATOMS id type xs ys zs
13 1 0.170657 0.000506884 0.505667
75 1 0.277656 0.97823 0.504588
30 1 0.292068 0.076583 0.502079
35 1 0.402799 0.0610994 0.499327
40 1 0.483772 0.975458 0.499083
66 1 0.598945 0.0810254 0.496
59 1 0.676284 0.0989915 0.498548
49 1 0.766349 0.114896 0.506992
58 1 0.514933 0.0926384 0.498485
38 1 0.584067 0.177553 0.495991
37 1 0.704276 0.197057 0.500615
65 1 0.794356 0.182501 0.501128
11 1 0.136659 0.263796 0.499017
47 1 0.236117 0.327566 0.492507
6 1 0.290361 0.21032 0.50142
19 1 0.451963 0.211948 0.496866
72 1 0.552615 0.274264 0.501901
3 1 0.658323 0.314963 0.508403
69 1 0.757818 0.262505 0.503438
39 1 0.853319 0.260014 0.49903
2 1 0.106923 0.407764 0.498207
10 1 0.250565 0.452181 0.496661
8 1 0.360756 0.350132 0.498685
21 1 0.508849 0.354323 0.498599
18 1 0.588177 0.448208 0.499583
48 1 0.783797 0.350165 0.501669
68 1 0.848189 0.407767 0.498001
80 1 0.787229 0.437367 0.500242
23 1 0.939557 0.359024 0.507309
27 1 0.138232 0.545743 0.508604
76 1 0.339468 0.540436 0.504265