LAMMPS (23 Jun 2022 - Update 4)
  using 1 OpenMP thread(s) per MPI task
# Compute elastic constant tensor for a crystal
#
# Written by Aidan Thompson (Sandia, athomps@sandia.gov)
#
#  This script uses the following three include files.
#
#   init.mod      (must be modified for different crystal structures)
# 	       	  Define units, deformation parameters and initial
#		  configuration of the atoms and simulation cell.
#
#
#   potential.mod    (must be modified for different pair styles)
# 		     Define pair style and other attributes
#		     not stored in restart file
#
#
#   displace.mod    (displace.mod should not need to be modified)
# 		    Perform positive and negative box displacements
# 		    in direction ${dir} and size ${up}.
# 		    It uses the resultant changes
#		    in stress to compute one
# 		    row of the elastic stiffness tensor
#
#		    Inputs variables:
#		    	   dir = the Voigt deformation component
#		    		    (1,2,3,4,5,6)
#		    Global constants:
#       	    	   up = the deformation magnitude (strain units)
#       		   cfac = conversion from LAMMPS pressure units to
#               	   output units for elastic constants
#
#
#  To run this on a different system, it should only be necessary to
#  modify the files init.mod and potential.mod. In order to calculate
#  the elastic constants correctly, care must be taken to specify
#  the correct units in init.mod (units, cfac and cunits). It is also
#  important to verify that the minimization of energy w.r.t atom
#  positions in the deformed cell is fully converged.
#  One indication of this is that the elastic constants are insensitive
#  to the choice of the variable ${up} in init.mod. Another is to check
#  the final max and two-norm forces reported in the log file. If you know
#  that minimization is not required, you can set maxiter = 0.0 in
#  init.mod.
#



variable dt equal 0.01
variable strain equal 0.05
variable srate equal 1e-4
variable M equal 1000 # averaging time for properties
variable strainsteps equal ${strain}/${dt}/${srate}
variable strainsteps equal 0.05/${dt}/${srate}
variable strainsteps equal 0.05/0.01/${srate}
variable strainsteps equal 0.05/0.01/0.0001


dimension 2
include init.mod
# NOTE: This script can be modified for different atomic structures,
# units, etc. See in.elastic for more info.
#

# Define the finite deformation size. Try several values of this
# variable to verify that results do not depend on it.
variable up equal 1.0e-1

# Define the amount of random jiggle for atoms
# This prevents atoms from staying on saddle points
variable atomjiggle equal 1.0e-6

# Uncomment one of these blocks, depending on what units
# you are using in LAMMPS and for output

# metal units, elastic constants in eV/A^3
#units		metal
#variable cfac equal 6.2414e-7
#variable cunits string eV/A^3

# Choose potential
# metal units, elastic constants in GPa
units		metal
atom_style	full
#pair_style      lj/cut 1.0
#pair_style      yukawa 1.0 2.0
#pair_modify     mix arithmetic
bond_style      harmonic
angle_style     harmonic
dihedral_style  zero
special_bonds   amber
variable cfac equal 1.0e-4
variable cunits string GPa
boundary	p p p

# Need to set mass to something, just to satisfy LAMMPS
#mass 1 1.0e-20
read_data network.lmp
Reading data file ...
  orthogonal box = (-4.81015 -4.81015 -0.1) to (4.81015 4.81015 0.1)
  1 by 1 by 1 MPI processor grid
WARNING: Atom style in data file differs from currently defined atom style (src/read_data.cpp:538)
  reading atoms ...
  49 atoms
WARNING: Bond style in data file differs from currently defined bond style (src/read_data.cpp:630)
  scanning bonds ...
  4 = max bonds/atom
  reading bonds ...
  99 bonds
Finding 1-2 1-3 1-4 neighbors ...
  special bond factors lj:    0        0        0.5     
  special bond factors coul:  0        0        0.8333333333333334
     6 = max # of 1-2 neighbors
    23 = max # of 1-3 neighbors
    99 = max # of 1-4 neighbors
    31 = max # of special neighbors
  special bonds CPU = 0.000 seconds
  read_data CPU = 0.003 seconds

# real units, elastic constants in GPa
#units		real
#variable cfac equal 1.01325e-4
#variable cunits string GPa

# Define minimization parameters
variable etol equal 0.0
variable ftol equal 5.0e-10
variable maxiter equal 100000
variable maxeval equal 20000
variable dmax equal 1.0e-2


include potential.mod
# NOTE: This script can be modified for different pair styles
# See in.elastic for more info.

# Setup neighbor style
neighbor 3.0 nsq
neigh_modify once no every 1 delay 0 check yes
comm_modify cutoff 2.0

# Setup minimization style
min_style	     cg
min_modify	     dmax ${dmax} line quadratic
min_modify	     dmax 0.01 line quadratic

timestep	0.001


# Setup output
thermo		500
thermo_style custom step temp pe ebond eangle edihed press pxx pyy pzz pxy pxz pyz lx ly lz vol
thermo_modify norm no


#change_box all triclinic
comm_modify mode single cutoff 10.0 vel yes
atom_modify sort 0 0



# Compute initial state

#dump rela all atom 1 traj_relax.lmpstrj
fix 3 all box/relax x 0 y 0 # xy 0  #MS comment: relax if the network is periodic
minimize ${etol} ${ftol} ${maxiter} ${maxeval}
minimize 0 ${ftol} ${maxiter} ${maxeval}
minimize 0 5e-10 ${maxiter} ${maxeval}
minimize 0 5e-10 100000 ${maxeval}
minimize 0 5e-10 100000 20000
Neighbor list info ...
  update every 1 steps, delay 0 steps, check yes
  max neighbors/atom: 2000, page size: 100000
  master list distance cutoff = 0
  ghost atom cutoff = 10
  0 neighbor lists, perpetual/occasional/extra = 0 0 0
WARNING: Inconsistent image flags (src/domain.cpp:819)
Per MPI rank memory allocation (min/avg/max) = 8.77 | 8.77 | 8.77 Mbytes
   Step          Temp          PotEng         E_bond        E_angle        E_dihed         Press           Pxx            Pyy            Pzz            Pxy            Pxz            Pyz             Lx             Ly             Lz           Volume    
         0   0              2.4166189e-11  2.4166189e-11  0              0             -0.039826162   -0.059850376   -0.019801948    0             -0.00034891117  0              0              9.6203         9.6203         0.2            92.550172    
       190   0              1.1085179e-18  1.1085179e-18  0              0              2.4546152e-07  6.4447818e-07 -1.5355515e-07  0              3.2625379e-05  0              0              9.6203015      9.6202989      0.2            92.550176    
Loop time of 0.00906985 on 1 procs for 190 steps with 49 atoms

100.0% CPU use with 1 MPI tasks x 1 OpenMP threads

Minimization stats:
  Stopping criterion = force tolerance
  Energy initial, next-to-last, final = 
    2.41661894279147e-11 1.14157628148395e-18 1.10851793690349e-18
  Force two-norm initial, final = 1.6671217e-05 4.874748e-10
  Force max component initial, final = 4.4664312e-06 1.2803024e-10
  Final line search alpha, max atom move = 1 1.2803024e-10
  Iterations, force evaluations = 190 380

MPI task timing breakdown:
Section |  min time  |  avg time  |  max time  |%varavg| %total
---------------------------------------------------------------
Pair    | 0          | 0          | 0          |   0.0 |  0.00
Bond    | 0.0012317  | 0.0012317  | 0.0012317  |   0.0 | 13.58
Neigh   | 0          | 0          | 0          |   0.0 |  0.00
Comm    | 0.0027975  | 0.0027975  | 0.0027975  |   0.0 | 30.84
Output  | 0          | 0          | 0          |   0.0 |  0.00
Modify  | 0          | 0          | 0          |   0.0 |  0.00
Other   |            | 0.005041   |            |       | 55.58

Nlocal:             49 ave          49 max          49 min
Histogram: 1 0 0 0 0 0 0 0 0 0
Nghost:            410 ave         410 max         410 min
Histogram: 1 0 0 0 0 0 0 0 0 0
Neighs:              0 ave           0 max           0 min
Histogram: 1 0 0 0 0 0 0 0 0 0

Total # of neighbors = 0
Ave neighs/atom = 0
Ave special neighs/atom = 20.653061
Neighbor list builds = 0
Dangerous builds = 0
#dump rela all atom 1 traj_relax.lmpstrj
thermo 100
unfix 3

fix 2d all enforce2d



#dump dump0 all xyz 1000000 cfg0.xyz
#dump_modify dump0 format line "%d %20.10g %20.10g %20.10g"
#minimize ${etol} ${ftol} ${maxiter} ${maxeval}

#undump rela

#write_restart restart.equil

# These formulas define the derivatives w.r.t. strain components
# Constants uses $, variables use v_


timestep        ${dt}
timestep        0.01
variable nsteps equal round(${strainsteps})
variable nsteps equal round(50000)

fix             4 all nve
fix             5 all langevin 0.1 0.1 1 904297
#fix		6 all press/berendsen y  0.0 0.0 1 x 0.0 0.0 10
fix             6 all nph y 0.0 0.0 10 ptemp 0.1 # x 0.0 0.0 10

# For PLUMED2
# fix 22 all plumed plumedfile plumed.dat outfile plumed.out

#fix             6 all nph x 0.0 0.0 10
fix     	9 all deform 1 x erate -${srate} units box remap x
fix     	9 all deform 1 x erate -0.0001 units box remap x

#fix     8 all deform 1 xy erate ${srate} units box remap x



#fix    10 all ave/time

dump 1 all atom 250 deform_dump.lammpstrj


#To avoid flying ice cube phenomenon:
#fix 21 all momentum 100 linear 1 1 1 angular


run  ${nsteps}
run  50000
WARNING: One or more atoms are time integrated more than once (src/modify.cpp:292)
WARNING: Inconsistent image flags (src/domain.cpp:819)
Per MPI rank memory allocation (min/avg/max) = 7.645 | 7.645 | 7.645 Mbytes
   Step          Temp          PotEng         E_bond        E_angle        E_dihed         Press           Pxx            Pyy            Pzz            Pxy            Pxz            Pyz             Lx             Ly             Lz           Volume    
       190   0              1.1085179e-18  1.1085179e-18  0              0              2.4546152e-07  6.4447818e-07 -1.5355515e-07  0              3.2625379e-05  0              0              9.6203015      9.6202989      0.2            92.550176    
       200   0.059091052    1.0956495e-05  1.0956495e-05  0              0              52.732394      90.75758       14.591642      0             -20.302959      0              0              9.6202053      9.6210139      0.2            92.556129    
       300   0.21248304     0.00065470142  0.00065470142  0              0              178.48         362.39962     -5.5714082      0             -295.27946      0              0              9.6192432      9.6176043      0.2            92.514075    
       400   0.26505284     0.00083025824  0.00083025824  0              0              496.94157      1035.6686     -41.926746      0              294.93129      0              0              9.6182812      9.6082885      0.2            92.415221    
       500   0.22046053     0.00072202964  0.00072202964  0              0              264.17309      478.99387      49.214649      0             -22.932805      0              0              9.6173192      9.6094045      0.2            92.41671     
       600   0.15718321     0.00075572629  0.00075572629  0              0              233.67055      629.14438     -161.93775      0             -332.28378      0              0              9.6163572      9.6143613      0.2            92.455132    
       700   0.20477465     0.00078055129  0.00078055129  0              0              405.65741      579.27997      231.88736      0              357.0288       0              0              9.6153951      9.6126544      0.2            92.42947     
       800   0.21650094     0.00068076634  0.00068076634  0              0             -82.630511     -13.978722     -151.40415      0             -86.239255      0              0              9.6144331      9.621286       0.2            92.50321     
       900   0.21734665     0.00098745672  0.00098745672  0              0              49.872735     -107.60303      207.20822      0             -178.02962      0              0              9.6134711      9.620376       0.2            92.485207    
      1000   0.22170727     0.00074770646  0.00074770646  0              0             -37.324758      60.506833     -135.32344      0             -17.563173      0              0              9.612509       9.6106012      0.2            92.381991    
      1100   0.22154884     0.00070739606  0.00070739606  0              0              469.70531      955.368       -16.106498      0             -177.10406      0              0              9.611547       9.6117765      0.2            92.384042    
      1200   0.19533208     0.00082632785  0.00082632785  0              0              113.74854     -37.026425      264.35525      0              14.679901      0              0              9.610585       9.6053216      0.2            92.31276     
      1300   0.19045348     0.00081327076  0.00081327076  0              0             -312.65988     -92.43652      -533.03217      0              51.957517      0              0              9.6096229      9.5933407      0.2            92.188387    
      1400   0.23764199     0.00083178337  0.00083178337  0              0              139.38946     -458.19741      736.84136      0              251.71583      0              0              9.6086609      9.5886915      0.2            92.134485    
      1500   0.17839643     0.00075119426  0.00075119426  0              0             -491.526       -186.38958     -796.81223      0             -326.70045      0              0              9.6076989      9.5959967      0.2            92.195447    
      1600   0.20125173     0.00095313022  0.00095313022  0              0              1281.1751      1817.9924      744.22516      0              197.55203      0              0              9.6067369      9.5753334      0.2            91.987708    
      1700   0.18886809     0.0010524273   0.0010524273   0              0             -385.98554     -79.047964     -693.05683      0             -120.19467      0              0              9.6057748      9.57586        0.2            91.983555    
      1800   0.21748365     0.00091342282  0.00091342282  0              0              713.5248       909.31019      517.60552      0             -285.01175      0              0              9.6048128      9.5639445      0.2            91.859897    
      1900   0.19563341     0.00081493742  0.00081493742  0              0             -595.84007     -968.63954     -223.19651      0             -135.74299      0              0              9.6038508      9.5706226      0.2            91.914831    
      2000   0.22533502     0.00097160554  0.00097160554  0              0             -512.89704     -947.53031     -78.427941      0             -67.961181      0              0              9.6028887      9.5716681      0.2            91.915664    
      2100   0.22006741     0.00071183656  0.00071183656  0              0              32.576092     -326.27972      391.25105      0             -443.327        0              0              9.6019267      9.5752284      0.2            91.940641    
      2200   0.19780709     0.0010213921   0.0010213921   0              0             -349.41852     -13.52159      -685.44002      0             -347.79534      0              0              9.6009647      9.5895278      0.2            92.068718    
      2300   0.22342194     0.00079827957  0.00079827957  0              0             -234.35434     -1441.029       972.17785      0             -476.70951      0              0              9.6000026      9.5771861      0.2            91.941012    
      2400   0.18719512     0.00082259833  0.00082259833  0              0             -820.71627     -687.25174     -954.30515      0             -339.52982      0              0              9.5990406      9.5928189      0.2            92.081858    
      2500   0.21398324     0.00080152954  0.00080152954  0              0              350.1844      -209.93274      910.17593      0              62.060708      0              0              9.5980786      9.5761509      0.2            91.912649    
      2600   0.19366504     0.00058235088  0.00058235088  0              0             -284.89045      165.67737     -735.57954      0              115.34629      0              0              9.5971165      9.5882002      0.2            92.019075    
      2700   0.20321267     0.00069239659  0.00069239659  0              0              446.69428      454.19408      439.00763      0              408.37194      0              0              9.5961545      9.5638224      0.2            91.775917    
      2800   0.21376454     0.00071549379  0.00071549379  0              0              403.33204      791.00213      15.530796      0             -583.89699      0              0              9.5951925      9.5720147      0.2            91.845323    
      2900   0.22751341     0.00067971564  0.00067971564  0              0             -85.859748      199.9859      -371.88296      0              379.17486      0              0              9.5942305      9.5712612      0.2            91.828885    
      3000   0.17461252     0.00075998744  0.00075998744  0              0              577.16986      409.36391      744.8281       0              362.37562      0              0              9.5932684      9.5632171      0.2            91.742509    
      3100   0.21445079     0.00078279112  0.00078279112  0              0             -321.32925      338.50259     -981.32052      0              515.8639       0              0              9.5923064      9.5769318      0.2            91.864864    
      3200   0.18444346     0.00055383361  0.00055383361  0              0              346.94055     -473.54404      1167.3145      0             -81.588771      0              0              9.5913444      9.5653416      0.2            91.744485    
      3300   0.21413224     0.00060763232  0.00060763232  0              0             -745.16743     -328.46064     -1161.9821      0              256.81155      0              0              9.5903823      9.5894129      0.2            91.966136    
      3400   0.22244095     0.00083459939  0.00083459939  0              0              832.2791       650.02297      1014.3828      0              91.384161      0              0              9.5894203      9.5788407      0.2            91.855529    
      3500   0.17920061     0.00093411414  0.00093411414  0              0             -189.95952      578.15047     -958.2409       0              348.62019      0              0              9.5884583      9.5945267      0.2            91.996719    
      3600   0.17444782     0.00079020881  0.00079020881  0              0              154.46189     -348.94298      657.73199      0              195.47457      0              0              9.5874962      9.5718667      0.2            91.770236    
      3700   0.19091249     0.00089192069  0.00089192069  0              0              3.6399371      438.26936     -431.13104      0              268.48016      0              0              9.5865342      9.5828931      0.2            91.866732    
      3800   0.2212279      0.00087734608  0.00087734608  0              0              790.8951       1352.7489      228.87281      0              485.03908      0              0              9.5855722      9.5896272      0.2            91.922064    
      3900   0.24079437     0.00073492458  0.00073492458  0              0              203.41897      405.25491      1.416324       0              347.25166      0              0              9.5846102      9.5920193      0.2            91.935765    
      4000   0.19664169     0.00078374987  0.00078374987  0              0              36.524162      163.32074     -90.421569      0             -36.098511      0              0              9.5836481      9.5933977      0.2            91.939748    
      4100   0.2333218      0.00080502728  0.00080502728  0              0              28.958838     -183.05877      240.84369      0              304.08679      0              0              9.5826861      9.5864016      0.2            91.863477    
      4200   0.25578529     0.0007386949   0.0007386949   0              0              90.233716      450.27486     -269.95839      0              266.57501      0              0              9.5817241      9.5854667      0.2            91.845297    
      4300   0.19605899     0.00082127362  0.00082127362  0              0              394.32533      555.50454      233.03568      0             -144.09674      0              0              9.580762       9.5806347      0.2            91.789781    
      4400   0.27216253     0.00092701226  0.00092701226  0              0              311.48462      920.12643     -297.31223      0              268.85335      0              0              9.5798         9.5817903      0.2            91.791635    
      4500   0.24414311     0.0009618161   0.0009618161   0              0              690.73389      1042.2565      339.08377      0             -53.65814       0              0              9.578838       9.5816797      0.2            91.781357    
      4600   0.19120989     0.00098947054  0.00098947054  0              0              177.87613      748.49778     -392.89004      0              449.38451      0              0              9.5778759      9.5872039      0.2            91.82505     
      4700   0.21495076     0.00082432538  0.00082432538  0              0              629.3098       838.58262      419.89269      0              281.71695      0              0              9.5769139      9.5821839      0.2            91.76775     
      4800   0.17587356     0.00078605825  0.00078605825  0              0             -295.17606     -184.27489     -406.21464      0              124.2021       0              0              9.5759519      9.5872671      0.2            91.807208    
      4900   0.14218664     0.00088843315  0.00088843315  0              0              113.43437     -204.5666       431.27845      0             -33.314084      0              0              9.5749899      9.5888938      0.2            91.813561    
      5000   0.23999407     0.00098124124  0.00098124124  0              0             -564.61919     -697.60689     -431.79262      0              258.57312      0              0              9.5740278      9.5907969      0.2            91.822557    
      5100   0.22638041     0.00061502057  0.00061502057  0              0              553.54216      778.6875       328.27637      0             -32.102496      0              0              9.5730658      9.5798511      0.2            91.708545    
      5200   0.21893311     0.00073119411  0.00073119411  0              0              46.624003      244.09235     -150.97628      0              82.596139      0              0              9.5721038      9.5838035      0.2            91.737161    
      5300   0.21932851     0.00059258194  0.00059258194  0              0             -107.98166     -299.09449      82.985504      0              507.53087      0              0              9.5711417      9.5787866      0.2            91.679924    
      5400   0.19500201     0.00081363456  0.00081363456  0              0              78.249439      156.27015      0.082567091    0              78.837859      0              0              9.5701797      9.5809311      0.2            91.691232    
      5500   0.19554937     0.00074452463  0.00074452463  0              0              172.81255      433.29807     -87.818711      0              172.6736       0              0              9.5692177      9.5782511      0.2            91.65637     
      5600   0.16913036     0.00058302435  0.00058302435  0              0              470.03935      677.50735      262.4471       0              998.93768      0              0              9.5682556      9.5809024      0.2            91.672524    
      5700   0.22234522     0.00085692679  0.00085692679  0              0              57.341478      487.06769     -372.49634      0             -138.83414      0              0              9.5672936      9.5812913      0.2            91.667027    
      5800   0.2530458      0.00059739691  0.00059739691  0              0              299.75778      52.617075      546.74304      0             -79.632456      0              0              9.5663316      9.5685178      0.2            91.535614    
      5900   0.19681557     0.00075144717  0.00075144717  0              0             -270.42063      162.62874     -703.6038       0              2.9871422      0              0              9.5653696      9.5793678      0.2            91.630193    
      6000   0.18822496     0.00066622008  0.00066622008  0              0              348.41201     -122.57648      819.21315      0              31.751002      0              0              9.5644075      9.5653911      0.2            91.487299    
      6100   0.15698002     0.00080363409  0.00080363409  0              0             -614.31731     -470.83092     -757.98131      0              40.617397      0              0              9.5634455      9.5723984      0.2            91.54511     
      6200   0.18150714     0.00099417189  0.00099417189  0              0              514.73176      445.3412       583.96302      0              830.74229      0              0              9.5624835      9.5572852      0.2            91.391381    
      6300   0.2448458      0.00067022144  0.00067022144  0              0             -21.50508       376.67959     -419.82162      0              392.21462      0              0              9.5615214      9.5684112      0.2            91.488569    
      6400   0.19301048     0.00067819019  0.00067819019  0              0              194.1364       95.127829      292.99273      0              396.10423      0              0              9.5605594      9.5679026      0.2            91.474501    
      6500   0.23056224     0.00068172415  0.00068172415  0              0             -252.10025     -259.44652     -244.89981      0              936.44493      0              0              9.5595974      9.5756891      0.2            91.539732    
      6600   0.17792294     0.00068962713  0.00068962713  0              0              496.26213      849.28209      143.10865      0              677.3122       0              0              9.5586353      9.5761921      0.2            91.535328    
      6700   0.20248681     0.0007633795   0.0007633795   0              0              33.461945     -16.350471      83.104868      0              185.30123      0              0              9.5576733      9.5754065      0.2            91.518607    
      6800   0.24141539     0.00086000895  0.00086000895  0              0             -28.130488      135.52585     -191.94501      0              714.6186       0              0              9.5567113      9.5730838      0.2            91.487198    
      6900   0.20472482     0.00077534915  0.00077534915  0              0              323.04293      339.96934      305.97841      0              148.21198      0              0              9.5557493      9.5671956      0.2            91.421722    
      7000   0.17074202     0.00079229399  0.00079229399  0              0              170.88666      694.54417     -352.88383      0              779.34815      0              0              9.5547872      9.5797323      0.2            91.532304    
      7100   0.22679        0.00085699829  0.00085699829  0              0              545.25431      654.60776      435.7375       0              313.91002      0              0              9.5538252      9.5743534      0.2            91.471698    
      7200   0.2212101      0.00086857555  0.00086857555  0              0              271.02333      939.58721     -397.69427      0              349.08491      0              0              9.5528632      9.5873667      0.2            91.586803    
      7300   0.22658609     0.00091276328  0.00091276328  0              0              397.37165      296.39238      498.2024       0             -70.639388      0              0              9.5519011      9.5898677      0.2            91.601468    
      7400   0.21907197     0.00086213109  0.00086213109  0              0             -26.810549      440.22333     -493.99169      0              562.25837      0              0              9.5509391      9.5953125      0.2            91.644245    
      7500   0.1639852      0.00073392423  0.00073392423  0              0              548.81999      725.2715       372.20378      0              529.76895      0              0              9.5499771      9.6022954      0.2            91.701701    
      7600   0.23405214     0.00070535184  0.00070535184  0              0              256.52189      888.82314     -375.92332      0              537.19136      0              0              9.549015       9.6089664      0.2            91.756165    
      7700   0.22114202     0.0010662813   0.0010662813   0              0              612.94373      839.19523      386.50927      0              644.42682      0              0              9.548053       9.6014778      0.2            91.675419    
      7800   0.214888       0.00072109815  0.00072109815  0              0              154.56202      595.64854     -286.67064      0              297.76454      0              0              9.547091       9.6116576      0.2            91.763369    
      7900   0.19785783     0.000754877    0.000754877    0              0             -356.13333     -826.09293      113.68218      0              305.12839      0              0              9.546129       9.6193287      0.2            91.827352    
      8000   0.18352232     0.00091274479  0.00091274479  0              0              367.15494      745.99288     -11.822406      0              257.59053      0              0              9.5451669      9.6124699      0.2            91.75263     
      8100   0.23632261     0.000840334    0.000840334    0              0             -279.26153     -442.03282     -116.62862      0              851.93648      0              0              9.5442049      9.6289359      0.2            91.900537    
      8200   0.21279966     0.00087705456  0.00087705456  0              0             -282.96971     -819.73414      253.6531       0              168.95246      0              0              9.5432429      9.6312798      0.2            91.913642    
      8300   0.19806459     0.00092256058  0.00092256058  0              0             -159.49539      125.14833     -444.32072      0              769.78237      0              0              9.5422808      9.6323512      0.2            91.9146      
      8400   0.22606        0.00080470491  0.00080470491  0              0              403.61132      210.22801      596.85648      0              364.31823      0              0              9.5413188      9.6197787      0.2            91.785375    
      8500   0.1968493      0.00085854317  0.00085854317  0              0             -204.92566      255.85772     -665.87984      0              399.0855       0              0              9.5403568      9.6286098      0.2            91.860372    
      8600   0.22106416     0.00087044923  0.00087044923  0              0              577.40766      378.82474      775.83726      0              1273.4267      0              0              9.5393947      9.6167445      0.2            91.737922    
      8700   0.16603923     0.00091602677  0.00091602677  0              0             -904.4241      -976.13579     -832.84828      0              1195.9145      0              0              9.5384327      9.6320054      0.2            91.874235    
      8800   0.12637502     0.00080066368  0.00080066368  0              0              570.15148      160.40347      979.72328      0              559.72731      0              0              9.5374707      9.6223086      0.2            91.772486    
      8900   0.19509521     0.0011087296   0.0011087296   0              0             -763.41672     -361.58947     -1165.4056      0              632.10715      0              0              9.5365086      9.6416122      0.2            91.947318    
      9000   0.20555568     0.00099855947  0.00099855947  0              0              916.81389      781.51222      1051.9705      0              713.72524      0              0              9.5355466      9.6230656      0.2            91.76119     
      9100   0.2154202      0.0010603293   0.0010603293   0              0             -1081.7836     -1173.6855     -990.01473      0              134.2709       0              0              9.5345846      9.6381358      0.2            91.895621    
      9200   0.22976891     0.00086842021  0.00086842021  0              0              451.0722       92.063712      809.92897      0             -97.731298      0              0              9.5336226      9.6254724      0.2            91.765621    
      9300   0.20939697     0.00091040922  0.00091040922  0              0             -363.56537     -26.520358     -700.76275      0              243.10084      0              0              9.5326605      9.6390412      0.2            91.885708    
      9400   0.23004488     0.00091957628  0.00091957628  0              0              734.3395       884.99621      583.56205      0              383.14042      0              0              9.5316985      9.6473847      0.2            91.955962    
      9500   0.24713551     0.00077804796  0.00077804796  0              0              188.37588      837.21334     -460.60055      0              512.99366      0              0              9.5307365      9.6409926      0.2            91.88576     
      9600   0.21180374     0.00093033287  0.00093033287  0              0              699.98854      1121.8368      277.99259      0              800.41079      0              0              9.5297744      9.6370777      0.2            91.839177    
      9700   0.23889768     0.00094451025  0.00094451025  0              0              126.82634      283.1069      -29.586017      0              763.30484      0              0              9.5288124      9.6477581      0.2            91.931678    
      9800   0.1869262      0.00087247725  0.00087247725  0              0             -564.78536     -895.80243     -233.87379      0              710.56661      0              0              9.5278504      9.6431144      0.2            91.878151    
      9900   0.15242905     0.0007814417   0.0007814417   0              0              788.15158      1124.8065      451.34276      0              504.84076      0              0              9.5268883      9.6366529      0.2            91.807317    
     10000   0.16714202     0.00079729556  0.00079729556  0              0             -30.131791      429.13207     -489.55017      0              229.9154       0              0              9.5259263      9.6463286      0.2            91.890215    
     10100   0.17020239     0.00089130676  0.00089130676  0              0              621.03605      671.87778      570.04581      0              419.49583      0              0              9.5249643      9.6536186      0.2            91.950372    
     10200   0.2225512      0.0010461182   0.0010461182   0              0             -39.535218      515.21753     -594.43855      0             -5.5398142      0              0              9.5240023      9.6668386      0.2            92.066993    
     10300   0.15905014     0.0010498481   0.0010498481   0              0              185.80495     -236.88386      608.38715      0              367.56447      0              0              9.5230402      9.649788       0.2            91.89532     
     10400   0.22313163     0.00085906771  0.00085906771  0              0             -146.85492      233.25772     -527.14012      0              290.86476      0              0              9.5220782      9.6585757      0.2            91.969713    
     10500   0.16486823     0.00095891988  0.00095891988  0              0              152.62424     -198.9273       504.00714      0              416.88094      0              0              9.5211162      9.6635517      0.2            92.007798    
     10600   0.2393063      0.00087963188  0.00087963188  0              0             -223.0462      -106.15385     -340.07078      0             -185.53969      0              0              9.5201541      9.6756093      0.2            92.113292    
     10700   0.19765577     0.00073363597  0.00073363597  0              0              384.43726      447.40795      321.34773      0              389.78956      0              0              9.5191921      9.6719224      0.2            92.068888    
     10800   0.18422795     0.00094898841  0.00094898841  0              0              133.5093       725.51981     -458.66131      0              15.937864      0              0              9.5182301      9.6807271      0.2            92.143388    
     10900   0.1951349      0.00080408289  0.00080408289  0              0              619.20318      691.52417      546.75696      0              520.7714       0              0              9.517268       9.6805759      0.2            92.132636    
     11000   0.22825009     0.00073446856  0.00073446856  0              0              148.10608      794.15227     -498.10201      0              154.55062      0              0              9.516306       9.6870917      0.2            92.185329    
     11100   0.24897741     0.00075609497  0.00075609497  0              0              272.22828      117.43671      426.84578      0              173.00491      0              0              9.515344       9.6803824      0.2            92.112168    
     11200   0.18107522     0.00081176347  0.00081176347  0              0             -502.19147     -646.25974     -358.29458      0              661.63654      0              0              9.514382       9.6852011      0.2            92.148703    
     11300   0.15633084     0.00091504303  0.00091504303  0              0              704.81382      1095.0131      314.48961      0             -44.958582      0              0              9.5134199      9.6816044      0.2            92.105168    
     11400   0.19034771     0.00082128919  0.00082128919  0              0              432.13286      1109.2675     -245.13675      0             -27.175218      0              0              9.5124579      9.6831303      0.2            92.110369    
     11500   0.21644833     0.00077051604  0.00077051604  0              0              206.39878      293.79472      118.8457       0             -218.85242      0              0              9.5114959      9.6889515      0.2            92.156422    
     11600   0.18233415     0.0009428709   0.0009428709   0              0             -45.72212       2.6450081     -94.230985      0              616.50637      0              0              9.5105338      9.6977693      0.2            92.230963    
     11700   0.20319435     0.0008435296   0.0008435296   0              0              286.95318      567.34168      6.4311688      0             -276.39384      0              0              9.5095718      9.6989324      0.2            92.232694    
     11800   0.14011304     0.0007585783   0.0007585783   0              0              92.042163      147.99015      35.953967      0              910.33946      0              0              9.5086098      9.7082882      0.2            92.312324    
     11900   0.1782299      0.00081728187  0.00081728187  0              0              565.37247      1212.096      -81.527076      0              567.36943      0              0              9.5076477      9.7134793      0.2            92.352339    
     12000   0.29835764     0.00072645687  0.00072645687  0              0              233.46646      325.21187      141.545        0              687.73972      0              0              9.5066857      9.7195036      0.2            92.400266    
     12100   0.23230793     0.00092951495  0.00092951495  0              0              309.00259      782.44904     -164.59338      0              228.04408      0              0              9.5057237      9.7212827      0.2            92.407828    
     12200   0.18603343     0.00068538448  0.00068538448  0              0              682.78188      1167.2614      198.19004      0              312.03381      0              0              9.5047617      9.7152489      0.2            92.341125    
     12300   0.20848436     0.00075548076  0.00075548076  0              0             -441.70046     -569.0589      -314.49427      0              119.54015      0              0              9.5037996      9.715003       0.2            92.329442    
     12400   0.24169701     0.00065912344  0.00065912344  0              0              540.72676      726.11077      355.15626      0              417.34294      0              0              9.5028376      9.7187939      0.2            92.35612     
     12500   0.21903761     0.00077535425  0.00077535425  0              0              150.58593      696.3385      -395.30472      0              366.68458      0              0              9.5018756      9.717427       0.2            92.333782    
     12600   0.22170064     0.0010399313   0.0010399313   0              0              151.37671     -139.59535      442.18477      0              209.50397      0              0              9.5009135      9.7149371      0.2            92.300777    
     12700   0.18405211     0.00071862198  0.00071862198  0              0             -34.333071      413.51853     -482.34879      0              51.146858      0              0              9.4999515      9.7218516      0.2            92.357119    
     12800   0.26912539     0.00051571836  0.00051571836  0              0              226.58662     -117.96257      570.97635      0              420.40877      0              0              9.4989895      9.7141112      0.2            92.27424     
     12900   0.17186047     0.00079265146  0.00079265146  0              0             -157.04375      320.40366     -634.61114      0              516.83061      0              0              9.4980274      9.7201041      0.2            92.321815    
     13000   0.22093202     0.00080018256  0.00080018256  0              0              229.01289     -198.25715      656.14613      0             -101.21108      0              0              9.4970654      9.7054948      0.2            92.173719    
     13100   0.18390234     0.00076479893  0.00076479893  0              0             -13.031261      587.94917     -614.15084      0             -164.37667      0              0              9.4961034      9.7156669      0.2            92.260978    
     13200   0.16185895     0.00069366509  0.00069366509  0              0              515.04109      518.40237      511.50429      0              43.671423      0              0              9.4951414      9.7089478      0.2            92.187832    
     13300   0.16847258     0.00075384743  0.00075384743  0              0             -224.62405      72.183849     -521.5691       0              432.7769       0              0              9.4941793      9.7124022      0.2            92.211288    
     13400   0.21851916     0.0010021156   0.0010021156   0              0              490.55458      505.17919      475.76112      0              295.20703      0              0              9.4932173      9.7064735      0.2            92.145662    
     13500   0.22050207     0.00078147042  0.00078147042  0              0              265.81977      942.57166     -411.04634      0             -31.591711      0              0              9.4922553      9.7034936      0.2            92.108038    
     13600   0.18513567     0.00086261943  0.00086261943  0              0              504.41109      569.19174      439.50982      0             -188.05523      0              0              9.4912932      9.7047644      0.2            92.110765    
     13700   0.19892872     0.00085397638  0.00085397638  0              0             -128.17114      213.48429     -470.00473      0             -204.71509      0              0              9.4903312      9.7123026      0.2            92.172968    
     13800   0.24322306     0.00079804106  0.00079804106  0              0              747.6332       1036.1848      458.93064      0              299.31134      0              0              9.4893692      9.7166011      0.2            92.204415    
     13900   0.17101505     0.0011479413   0.0011479413   0              0             -342.07246     -158.02978     -526.27212      0              463.18977      0              0              9.4884071      9.7200064      0.2            92.227378    
     14000   0.14319946     0.00084222139  0.00084222139  0              0             -0.20084391    -463.16088      462.60774      0              118.20142      0              0              9.4874451      9.7037675      0.2            92.063961    
     14100   0.20155485     0.00082085859  0.00082085859  0              0             -198.721        137.46888     -535.02204      0              487.75893      0              0              9.4864831      9.7094841      0.2            92.108857    
     14200   0.17835029     0.00089270597  0.00089270597  0              0              373.7653       319.17035      428.20062      0              242.66963      0              0              9.4855211      9.7014022      0.2            92.022855    
     14300   0.20579668     0.00076742363  0.00076742363  0              0             -228.35869     -17.678461     -439.18115      0              38.479894      0              0              9.484559       9.7094894      0.2            92.090226    
     14400   0.19503227     0.00096221788  0.00096221788  0              0              793.14052      1098.0873      488.06828      0              90.378289      0              0              9.483597       9.7011281      0.2            92.00159     
     14500   0.21490984     0.00088553399  0.00088553399  0              0              75.831556      563.29565     -411.8047       0              384.57844      0              0              9.482635       9.7140528      0.2            92.114817    
     14600   0.20752684     0.0011895456   0.0011895456   0              0              317.25361      165.22332      469.10227      0             -470.03012      0              0              9.4816729      9.7014613      0.2            91.986083    
     14700   0.1989854      0.00082717908  0.00082717908  0              0             -386.46691     -243.89432     -529.16247      0              508.95948      0              0              9.4807109      9.7099028      0.2            92.056781    
     14800   0.24183743     0.00084354401  0.00084354401  0              0              568.40869      548.76756      587.89063      0             -131.46478      0              0              9.4797489      9.7014579      0.2            91.967384    
     14900   0.2284612      0.0010539778   0.0010539778   0              0              54.67976       813.70565     -704.51694      0              333.39354      0              0              9.4787868      9.7191902      0.2            92.126132    
     15000   0.26775531     0.000831326    0.000831326    0              0              400.62639      196.9462       604.16531      0             -90.611105      0              0              9.4778248      9.7048915      0.2            91.981261    
     15100   0.30829877     0.0014039897   0.0014039897   0              0             -319.23747      18.416937     -657.02127      0             -190.36015      0              0              9.4768628      9.7058401      0.2            91.980915    
     15200   0.21649656     0.00088950464  0.00088950464  0              0              254.81847     -187.71629      697.21892      0              124.96091      0              0              9.4759008      9.6974342      0.2            91.891924    
     15300   0.18180664     0.00078169227  0.00078169227  0              0             -71.347233      694.12177     -836.96701      0              146.01276      0              0              9.4749387      9.718567       0.2            92.082827    
     15400   0.19274198     0.00097413893  0.00097413893  0              0              933.60515      988.42377      878.62043      0              116.45689      0              0              9.4739767      9.7004027      0.2            91.901389    
     15500   0.18018143     0.0010180253   0.0010180253   0              0             -705.5965      -528.91246     -882.42878      0             -361.01316      0              0              9.4730147      9.709811       0.2            91.981182    
     15600   0.21601321     0.00074413975  0.00074413975  0              0              548.6213       90.057748      1006.9922      0             -197.89686      0              0              9.4720526      9.6931423      0.2            91.813954    
     15700   0.18460534     0.0010675283   0.0010675283   0              0             -440.29852      141.99062     -1022.6991      0              79.188335      0              0              9.4710906      9.7134998      0.2            91.997437    
     15800   0.189644       0.00099509314  0.00099509314  0              0              1079.9299      1037.6817      1122.019       0             -222.43128      0              0              9.4701286      9.695444       0.2            91.817101    
     15900   0.16066268     0.00074512484  0.00074512484  0              0             -232.42957      688.7018      -1153.7074      0              99.576012      0              0              9.4691665      9.7123066      0.2            91.967449    
     16000   0.20953001     0.00088616583  0.00088616583  0              0              1396.4912      1675.6907      1117.1672      0              115.01053      0              0              9.4682045      9.6922155      0.2            91.767878    
     16100   0.22022953     0.00091687481  0.00091687481  0              0             -547.16141      62.114165     -1156.6112      0              294.68704      0              0              9.4672425      9.7106699      0.2            91.933267    
     16200   0.18153392     0.0011435471   0.0011435471   0              0              767.14467      447.10619      1087.0397      0              489.33497      0              0              9.4662804      9.6898154      0.2            91.72651     
     16300   0.25715646     0.00086067911  0.00086067911  0              0             -206.56358      505.65912     -918.92911      0              240.86344      0              0              9.4653184      9.7159572      0.2            91.964629    
     16400   0.23710192     0.00099003656  0.00099003656  0              0              785.16449      676.86038      893.31825      0              376.02387      0              0              9.4643564      9.7113088      0.2            91.911288    
     16500   0.20391283     0.001080582    0.001080582    0              0              487.85094      1787.8495     -812.28554      0             -92.155656      0              0              9.4633944      9.7225856      0.2            92.008662    
     16600   0.17292716     0.00076293892  0.00076293892  0              0              758.51938      747.12875      769.75352      0              228.43935      0              0              9.4624323      9.7128856      0.2            91.907522    
     16700   0.21874525     0.0010609877   0.0010609877   0              0             -140.94866      438.56746     -720.641        0              349.5208       0              0              9.4614703      9.7256566      0.2            92.019011    
     16800   0.22542957     0.00064063043  0.00064063043  0              0              732.33582      904.33318      560.19979      0              421.40393      0              0              9.4605083      9.7122432      0.2            91.882757    
     16900   0.18219259     0.00089610809  0.00089610809  0              0              20.235906      462.79138     -422.49304      0             -50.288282      0              0              9.4595462      9.7220856      0.2            91.966518    
     17000   0.11113797     0.00074735928  0.00074735928  0              0              495.93303      623.36555      368.37106      0              402.23383      0              0              9.4585842      9.7229847      0.2            91.96567     
     17100   0.26948386     0.00071138688  0.00071138688  0              0              205.08632      837.78264     -427.78031      0             -55.677925      0              0              9.4576222      9.718617       0.2            91.915007    
     17200   0.20408821     0.00074865775  0.00074865775  0              0              577.65998      690.46504      464.71418      0              208.95344      0              0              9.4566601      9.7159128      0.2            91.880086    
     17300   0.22374603     0.0009836703   0.0009836703   0              0             -50.392009      385.43797     -486.36913      0              363.93167      0              0              9.4556981      9.7224945      0.2            91.932973    
     17400   0.20076086     0.00084120931  0.00084120931  0              0              602.15722      777.25955      426.9188       0              72.753516      0              0              9.4547361      9.7270441      0.2            91.966635    
     17500   0.18725507     0.00058364885  0.00058364885  0              0             -406.66284     -432.9707      -380.49484      0              555.88061      0              0              9.4537741      9.7272058      0.2            91.958806    
     17600   0.24210739     0.0007998449   0.0007998449   0              0              79.293219     -244.82619      403.26702      0              190.66369      0              0              9.452812       9.7147825      0.2            91.832013    
     17700   0.12405545     0.00078885883  0.00078885883  0              0              229.80884      815.37749     -355.9478       0              650.23231      0              0              9.45185        9.7294645      0.2            91.961439    
     17800   0.2182292      0.00080657776  0.00080657776  0              0              366.8682       397.55857      336.01767      0              206.31237      0              0              9.450888       9.7248466      0.2            91.908436    
     17900   0.22865606     0.00093660307  0.00093660307  0              0             -57.846596      159.20732     -275.01841      0             -69.878983      0              0              9.4499259      9.7255747      0.2            91.905961    
     18000   0.23899318     0.0008889484   0.0008889484   0              0              257.48717      281.62592      233.221        0              410.27413      0              0              9.4489639      9.7297692      0.2            91.936238    
     18100   0.19923041     0.00081921589  0.00081921589  0              0              606.41049      1439.9652     -227.26825      0             -70.48261       0              0              9.4480019      9.7252696      0.2            91.884366    
     18200   0.22313117     0.00073889191  0.00073889191  0              0             -271.04037     -776.21997      234.0034       0              82.806836      0              0              9.4470398      9.7329931      0.2            91.947974    
     18300   0.20663399     0.00085606432  0.00085606432  0              0             -157.64184     -130.9233      -184.48634      0              615.97271      0              0              9.4460778      9.7396584      0.2            92.001571    
     18400   0.1913808      0.00085169743  0.00085169743  0              0             -7.3336188     -74.1777        59.342333      0              301.81958      0              0              9.4451158      9.7242148      0.2            91.846334    
     18500   0.17199325     0.0009568919   0.0009568919   0              0              147.26241      428.99065     -134.60948      0             -86.305697      0              0              9.4441538      9.7246567      0.2            91.841153    
     18600   0.21738721     0.00093866731  0.00093866731  0              0              93.928048      23.106297      164.57547      0              342.5835       0              0              9.4431917      9.7237069      0.2            91.822829    
     18700   0.18826577     0.0010534105   0.0010534105   0              0             -26.4903        83.937075     -137.09886      0              243.89647      0              0              9.4422297      9.7239974      0.2            91.816217    
     18800   0.20251241     0.0010343098   0.0010343098   0              0              161.36368      240.35687      82.18625       0             -30.368043      0              0              9.4412677      9.7259369      0.2            91.825174    
     18900   0.21914296     0.0010019848   0.0010019848   0              0              724.66784      1498.5801     -49.409015      0             -358.7097       0              0              9.4403056      9.7230259      0.2            91.788336    
     19000   0.20659254     0.0010270297   0.0010270297   0              0             -20.501291     -204.10408      162.95311      0              864.79521      0              0              9.4393436      9.7352279      0.2            91.894162    
     19100   0.2040134      0.0009486627   0.0009486627   0              0              56.081891      330.48925     -218.48986      0              486.23623      0              0              9.4383816      9.7466383      0.2            91.992491    
     19200   0.16271017     0.00092671384  0.00092671384  0              0              511.41266      925.92548      96.780224      0             -58.395144      0              0              9.4374195      9.7507895      0.2            92.022291    
     19300   0.23397708     0.00073332456  0.00073332456  0              0             -48.972929      46.81204      -144.88488      0              296.14502      0              0              9.4364575      9.7442555      0.2            91.951253    
     19400   0.14581647     0.00061356396  0.00061356396  0              0             -51.999331     -256.23312      152.1002       0              261.02381      0              0              9.4354955      9.7432445      0.2            91.932339    
     19500   0.18396223     0.00057604634  0.00057604634  0              0              5.9672753      319.0444      -307.26713      0              360.92074      0              0              9.4345335      9.7491963      0.2            91.979119    
     19600   0.23441736     0.00068875331  0.00068875331  0              0              417.06621      439.25091      394.74462      0              576.51101      0              0              9.4335714      9.7557115      0.2            92.031201    
     19700   0.2220378      0.00080305087  0.00080305087  0              0             -400.96107     -467.57573     -334.51106      0              394.71923      0              0              9.4326094      9.7511421      0.2            91.978714    
     19800   0.23668724     0.00086170333  0.00086170333  0              0              145.60036     -76.785197      367.8647       0              479.26523      0              0              9.4316474      9.7466338      0.2            91.926813    
     19900   0.20608008     0.00071279963  0.00071279963  0              0             -845.10646     -1228.0464     -462.31231      0              456.82223      0              0              9.4306853      9.75228        0.2            91.970684    
     20000   0.22741232     0.00069765536  0.00069765536  0              0             -290.4414      -1067.813       486.79439      0              57.505105      0              0              9.4297233      9.7403466      0.2            91.848773    
     20100   0.26677357     0.00083242398  0.00083242398  0              0             -211.93393      164.57472     -588.57118      0             -112.41892      0              0              9.4287613      9.7561567      0.2            91.988472    
     20200   0.17074009     0.00072640244  0.00072640244  0              0              702.32358      625.84261      778.68736      0              779.48927      0              0              9.4277992      9.7475758      0.2            91.898188    
     20300   0.17812236     0.00091472352  0.00091472352  0              0             -228.57811      384.13365     -841.41331      0              346.92296      0              0              9.4268372      9.7560243      0.2            91.968453    
     20400   0.21491398     0.00099546825  0.00099546825  0              0              1.8320529     -929.1711       932.70311      0              643.37294      0              0              9.4258752      9.7488611      0.2            91.891548    
     20500   0.21520515     0.00079762255  0.00079762255  0              0             -1430.0598     -1765.9709     -1094.2985      0              101.42791      0              0              9.4249132      9.7603419      0.2            91.990375    
     20600   0.20002045     0.00063635511  0.00063635511  0              0              139.38091     -936.1991       1214.7681      0              249.00817      0              0              9.4239511      9.747343       0.2            91.858484    
     20700   0.2302107      0.00085539002  0.00085539002  0              0             -1122.6589     -874.91231     -1370.5992      0              131.2458       0              0              9.4229891      9.7497045      0.2            91.871359    
     20800   0.18400545     0.0010385308   0.0010385308   0              0              390.74786     -510.616        1291.9455      0              179.40683      0              0              9.4220271      9.7224686      0.2            91.605363    
     20900   0.19821096     0.0010025937   0.0010025937   0              0             -629.3574      -117.38827     -1141.4817      0             -149.47331      0              0              9.421065       9.7431357      0.2            91.790715    
     21000   0.16139271     0.00090718395  0.00090718395  0              0              802.90395      508.53332      1097.1255      0              249.34811      0              0              9.420103       9.718312       0.2            91.5475      
     21100   0.21050089     0.00092051661  0.00092051661  0              0             -500.59956     -2.9160043     -998.45852      0              601.56985      0              0              9.419141       9.7304153      0.2            91.652153    
     21200   0.20543069     0.00090132082  0.00090132082  0              0              964.64729      931.80415      997.35118      0              856.13542      0              0              9.4181789      9.7142772      0.2            91.490801    
     21300   0.19537356     0.00076938639  0.00076938639  0              0             -362.5335       176.71873     -901.90067      0              744.40393      0              0              9.4172169      9.7308045      0.2            91.637097    
     21400   0.23362426     0.00078680768  0.00078680768  0              0              1029.7321      1351.2228      708.09459      0              296.3176       0              0              9.4162549      9.715695       0.2            91.48546     
     21500   0.25182258     0.00088776763  0.00088776763  0              0             -171.2694       324.78726     -667.46426      0              98.283671      0              0              9.4152929      9.7272666      0.2            91.585064    
     21600   0.21387129     0.00082514047  0.00082514047  0              0              636.57486      677.78077      595.23431      0              324.51759      0              0              9.4143308      9.7236571      0.2            91.541725    
     21700   0.17546131     0.0010041587   0.0010041587   0              0             -205.11542      133.80584     -544.17113      0              694.72702      0              0              9.4133688      9.7342121      0.2            91.631729    
     21800   0.19313347     0.00077730273  0.00077730273  0              0              742.30829      984.11343      500.35096      0              50.114035      0              0              9.4124068      9.7179432      0.2            91.469234    
     21900   0.20743457     0.00073639408  0.00073639408  0              0              46.468913      442.88006     -350.07293      0              292.38336      0              0              9.4114447      9.7259165      0.2            91.534926    
     22000   0.28562085     0.00070729898  0.00070729898  0              0              109.01445     -168.58014      386.45378      0             -34.272229      0              0              9.4104827      9.7224363      0.2            91.492818    
     22100   0.1694835      0.00087668096  0.00087668096  0              0              309.04782      899.37824     -281.38569      0             -578.79419      0              0              9.4095207      9.7288279      0.2            91.543607    
     22200   0.21811343     0.00060936906  0.00060936906  0              0              337.42389      438.13006      236.57132      0              407.44253      0              0              9.4085586      9.7371831      0.2            91.612858    
     22300   0.13852307     0.00057533716  0.00057533716  0              0             -558.71502     -812.14939     -305.43738      0              584.9681       0              0              9.4075966      9.7456749      0.2            91.683378    
     22400   0.2730262      0.00069483043  0.00069483043  0              0              399.87411      667.06143      132.52284      0             -397.48661      0              0              9.4066346      9.7356581      0.2            91.579778    
     22500   0.17911451     0.00078401269  0.00078401269  0              0             -361.01785     -611.52911     -110.69822      0              685.84574      0              0              9.4056725      9.7328823      0.2            91.544304    
     22600   0.16393673     0.0007421571   0.0007421571   0              0              85.410114     -39.334378      210.02861      0              121.83876      0              0              9.4047105      9.731646       0.2            91.523314    
     22700   0.24281385     0.0007367283   0.0007367283   0              0             -18.440405      163.06496     -200.0792       0             -42.187038      0              0              9.4037485      9.7370481      0.2            91.564751    
     22800   0.28069818     0.0010036684   0.0010036684   0              0              445.37539      685.96217      204.63777      0             -65.434363      0              0              9.4027865      9.7334807      0.2            91.52184     
     22900   0.18963585     0.00071174042  0.00071174042  0              0              81.247237      332.89807     -170.55741      0              494.14883      0              0              9.4018244      9.7372113      0.2            91.547551    
     23000   0.22122671     0.00061006976  0.00061006976  0              0              434.59938      765.52053      103.52199      0              165.31653      0              0              9.4008624      9.7217299      0.2            91.392645    
     23100   0.20526264     0.00066917959  0.00066917959  0              0              167.67498      325.83617      9.3838715      0              370.38195      0              0              9.3999004      9.7382618      0.2            91.538691    
     23200   0.23555966     0.0005812987   0.0005812987   0              0              227.29767      604.18883     -149.73544      0              71.611246      0              0              9.3989383      9.7204125      0.2            91.361558    
     23300   0.24629868     0.00059413324  0.00059413324  0              0              263.66707      282.20109      245.00649      0              13.984578      0              0              9.3979763      9.7124962      0.2            91.277809    
     23400   0.17798126     0.00071472571  0.00071472571  0              0             -240.4819      -214.34008     -266.75719      0              769.626        0              0              9.3970143      9.7160713      0.2            91.302061    
     23500   0.17688877     0.00074591466  0.00074591466  0              0              369.99052      457.57893      282.27333      0              718.45093      0              0              9.3960522      9.7122718      0.2            91.257013    
     23600   0.20460172     0.00079352152  0.00079352152  0              0              60.151318      369.45915     -249.30753      0              533.40697      0              0              9.3950902      9.7071923      0.2            91.199947    
     23700   0.22054335     0.00080134769  0.00080134769  0              0              173.17031      81.327478      264.82528      0             -189.81367      0              0              9.3941282      9.7115925      0.2            91.231944    
     23800   0.21366515     0.0008083526   0.0008083526   0              0              36.57459       289.31556     -216.3279       0             -166.42465      0              0              9.3931662      9.717914       0.2            91.281981    
     23900   0.15644328     0.00076718535  0.00076718535  0              0              604.77093      1044.8886      164.51623      0             -209.02542      0              0              9.3922041      9.7208147      0.2            91.299876    
     24000   0.18809572     0.00072275963  0.00072275963  0              0              369.00421      836.01104     -98.121009      0             -114.3131       0              0              9.3912421      9.715757       0.2            91.243026    
     24100   0.20708041     0.00083874675  0.00083874675  0              0             -325.17326     -726.63097      76.155887      0             -419.39523      0              0              9.3902801      9.7164278      0.2            91.239979    
     24200   0.17275848     0.00073280367  0.00073280367  0              0             -296.3508      -500.66401     -92.182946      0             -355.92683      0              0              9.389318       9.7095147      0.2            91.165721    
     24300   0.16610596     0.00080991582  0.00080991582  0              0              188.32808      298.05063      78.492811      0             -176.96047      0              0              9.388356       9.7115295      0.2            91.175296    
     24400   0.22214981     0.00075240775  0.00075240775  0              0             -116.58474     -107.22433     -126.09443      0              293.82264      0              0              9.387394       9.7081429      0.2            91.134162    
     24500   0.17621433     0.00081783512  0.00081783512  0              0              43.639072     -71.791595      158.88498      0             -51.16185       0              0              9.3864319      9.6945754      0.2            90.997473    
     24600   0.15932825     0.00058424041  0.00058424041  0              0              28.395058      165.45736     -108.83729      0              306.27937      0              0              9.3854699      9.6991487      0.2            91.031068    
     24700   0.18230287     0.00058263223  0.00058263223  0              0              17.787525     -33.813403      69.248701      0             -65.812717      0              0              9.3845079      9.6905128      0.2            90.940694    
     24800   0.20930545     0.00078107324  0.00078107324  0              0             -137.22673     -232.15165     -42.424216      0              107.90799      0              0              9.3835459      9.6924625      0.2            90.949667    
     24900   0.22973222     0.0007419253   0.0007419253   0              0             -179.91993     -353.98247     -5.992355       0             -444.21329      0              0              9.3825838      9.6942421      0.2            90.957039    
     25000   0.21224081     0.00063289754  0.00063289754  0              0             -152.36275     -249.11547     -55.7526        0              32.063691      0              0              9.3816218      9.6912957      0.2            90.920071    
     25100   0.1842664      0.00078350888  0.00078350888  0              0             -337.65021     -824.99297      149.50213      0             -398.1693       0              0              9.3806598      9.6890757      0.2            90.889923    
     25200   0.22515273     0.00078332497  0.00078332497  0              0             -526.78312     -798.29468     -255.44555      0             -591.14205      0              0              9.3796977      9.6840187      0.2            90.833168    
     25300   0.27612765     0.00073055569  0.00073055569  0              0              388.08         390.59657      385.408        0             -284.60674      0              0              9.3787357      9.6740118      0.2            90.73        
     25400   0.16719246     0.00084625305  0.00084625305  0              0             -575.85248     -813.417       -338.42115      0              15.457062      0              0              9.3777737      9.684653       0.2            90.820484    
     25500   0.19989237     0.0010175792   0.0010175792   0              0              614.05112      928.13412      299.81715      0              27.801852      0              0              9.3768116      9.674117       0.2            90.712373    
     25600   0.24147457     0.00094869706  0.00094869706  0              0             -18.673059      244.19475     -281.67648      0             -636.07375      0              0              9.3758496      9.6701039      0.2            90.66544     
     25700   0.17747138     0.0008645339   0.0008645339   0              0              319.83391      273.52295      365.98106      0             -294.36857      0              0              9.3748876      9.670313       0.2            90.658097    
     25800   0.20452069     0.00080922663  0.00080922663  0              0             -92.846632      258.87575     -444.71459      0             -146.59932      0              0              9.3739256      9.6794675      0.2            90.734608    
     25900   0.1409218      0.00074912031  0.00074912031  0              0              866.85978      1184.5226      549.01146      0             -209.45072      0              0              9.3729635      9.6717293      0.2            90.652766    
     26000   0.27699592     0.00073480133  0.00073480133  0              0             -314.94018      26.123004     -656.12264      0             -286.34567      0              0              9.3720015      9.6790515      0.2            90.712085    
     26100   0.17514486     0.00084434194  0.00084434194  0              0              475.06294      181.34626      768.61606      0              317.98403      0              0              9.3710395      9.6696815      0.2            90.614967    
     26200   0.23545203     0.00060184383  0.00060184383  0              0             -97.94665       552.96455     -748.98543      0              471.0948       0              0              9.3700774      9.678511       0.2            90.688398    
     26300   0.17567985     0.00060716546  0.00060716546  0              0              899.82985      1072.7824      726.68772      0              521.29881      0              0              9.3691154      9.6664206      0.2            90.56581     
     26400   0.19436333     0.00083409101  0.00083409101  0              0              62.176275      816.56838     -692.39369      0              306.24986      0              0              9.3681534      9.6755744      0.2            90.642265    
     26500   0.14260028     0.00057160626  0.00057160626  0              0              325.22569      73.51359       576.81286      0              451.65371      0              0              9.3671913      9.6727237      0.2            90.606253    
     26600   0.171025       0.00052867371  0.00052867371  0              0             -261.49081      37.813721     -560.94292      0              181.11787      0              0              9.3662293      9.6851907      0.2            90.713717    
     26700   0.20353082     0.00073766189  0.00073766189  0              0              234.75431      3.8631773      465.48848      0              99.061448      0              0              9.3652673      9.6747624      0.2            90.606736    
     26800   0.23103974     0.00081747161  0.00081747161  0              0             -78.225182      157.01737     -313.62758      0              146.03577      0              0              9.3643053      9.6779225      0.2            90.62702     
     26900   0.23716692     0.00095823372  0.00095823372  0              0              237.90095      350.84212      124.81344      0              70.744629      0              0              9.3633432      9.6691152      0.2            90.535245    
     27000   0.19216847     0.00089516524  0.00089516524  0              0              378.91782      703.29593      54.35456       0              309.1537       0              0              9.3623812      9.6616123      0.2            90.455697    
     27100   0.24091876     0.0008756212   0.0008756212   0              0             -42.025415      64.397409     -148.58922      0              4.2473897      0              0              9.3614192      9.6507075      0.2            90.344318    
     27200   0.17603114     0.00075663072  0.00075663072  0              0              151.36554     -22.124163      324.71587      0              111.97495      0              0              9.3604571      9.6520062      0.2            90.34719     
     27300   0.25074733     0.0010514841   0.0010514841   0              0             -308.80695     -85.514244     -532.25623      0             -491.44183      0              0              9.3594951      9.6631753      0.2            90.442442    
     27400   0.16349008     0.00086212689  0.00086212689  0              0              876.42898      1161.2588      591.45979      0             -80.017908      0              0              9.3585331      9.6496037      0.2            90.306135    
     27500   0.21672154     0.00073299946  0.00073299946  0              0             -688.20051     -744.56922     -632.01291      0              621.16842      0              0              9.357571       9.6565524      0.2            90.361875    
     27600   0.19426643     0.00082407894  0.00082407894  0              0              526.79799      356.481        696.96082      0              297.22709      0              0              9.356609       9.647998       0.2            90.272545    
     27700   0.16658187     0.00057306077  0.00057306077  0              0             -625.84219     -447.92941     -803.90115      0              291.17273      0              0              9.355647       9.6670482      0.2            90.441491    
     27800   0.20805705     0.00071026455  0.00071026455  0              0              642.61208      486.24192      798.81912      0              108.94963      0              0              9.354685       9.6513341      0.2            90.28519     
     27900   0.2280038      0.0007844274   0.0007844274   0              0             -243.99009      337.36821     -825.49942      0             -284.0087       0              0              9.3537229      9.670963       0.2            90.459508    
[...]
     42900   0.24407918     0.00089248152  0.00089248152  0              0              138.82708      196.2313       81.265743      0             -1001.6669      0              0              9.2094184      9.7601682      0.2            89.885473    
     43000   0.24150404     0.00062510581  0.00062510581  0              0             -436.04288     -811.75261     -60.48739       0             -241.75813      0              0              9.2084564      9.7808246      0.2            90.066297    
     43100   0.2060956      0.00096476872  0.00096476872  0              0              680.65323      1227.3403      133.79529      0             -116.39368      0              0              9.2074943      9.7721628      0.2            89.977134    
     43200   0.25390206     0.00085024434  0.00085024434  0              0             -172.63217     -253.33308     -92.061659      0             -659.63542      0              0              9.2065323      9.7756908      0.2            90.000214    
     43300   0.18934457     0.00083098584  0.00083098584  0              0             -418.45755     -998.43239      161.3916       0              347.91358      0              0              9.2055703      9.7823877      0.2            90.052457    
     43400   0.25239561     0.0010207072   0.0010207072   0              0             -192.97471     -254.7612      -131.35803      0              278.34073      0              0              9.2046082      9.794554       0.2            90.155033    
     43500   0.21533674     0.00082258895  0.00082258895  0              0              93.787952      47.340858      140.08199      0             -257.19016      0              0              9.2036462      9.7848413      0.2            90.056218    
     43600   0.19823502     0.00080794383  0.00080794383  0              0              341.64751      805.97983     -122.82408      0              496.46803      0              0              9.2026842      9.7934684      0.2            90.126197    
     43700   0.20420864     0.00063126416  0.00063126416  0              0              88.214735      35.871032      140.4192       0             -416.32679      0              0              9.2017222      9.7961614      0.2            90.141556    
     43800   0.19422697     0.00086705537  0.00086705537  0              0              236.82996      480.46091     -6.946218       0              111.59929      0              0              9.2007601      9.8062817      0.2            90.225246    
     43900   0.25235963     0.00087578937  0.00087578937  0              0             -56.77563      -55.63094      -58.047546      0             -483.54727      0              0              9.1997981      9.8187337      0.2            90.330368    
     44000   0.21021271     0.00072333155  0.00072333155  0              0             -425.48288     -1053.1818      202.0699       0             -116.03732      0              0              9.1988361      9.8115826      0.2            90.25514     
     44100   0.22006776     0.00088346245  0.00088346245  0              0             -348.07714     -533.78456     -162.49762      0             -155.05914      0              0              9.197874       9.8111866      0.2            90.242059    
     44200   0.19481875     0.0005530538   0.0005530538   0              0             -70.6722       -267.31021      125.81147      0             -46.582598      0              0              9.196912       9.8050445      0.2            90.176132    
     44300   0.15543284     0.00071873916  0.00071873916  0              0              198.38926      508.59574     -111.97128      0             -138.39209      0              0              9.19595        9.8090863      0.2            90.203867    
     44400   0.15873166     0.00075788075  0.00075788075  0              0             -72.678825     -176.89101      31.35337       0             -176.21821      0              0              9.1949879      9.8033409      0.2            90.141601    
     44500   0.19982604     0.00053438025  0.00053438025  0              0              136.38288      204.60041      68.014205      0             -300.99112      0              0              9.1940259      9.801951       0.2            90.119391    
     44600   0.20925699     0.00065705336  0.00065705336  0              0              61.862507      213.65326     -90.067545      0              374.54131      0              0              9.1930639      9.8035465      0.2            90.124629    
     44700   0.23724905     0.00074620453  0.00074620453  0              0              282.43955      405.01961      159.70899      0             -339.47401      0              0              9.1921019      9.8066182      0.2            90.143434    
     44800   0.22332067     0.00082332068  0.00082332068  0              0              86.161487      310.37534     -138.19744      0             -102.60503      0              0              9.1911398      9.808185       0.2            90.1484      
     44900   0.19931962     0.00095333578  0.00095333578  0              0              338.38826      442.29538      234.32062      0              41.681662      0              0              9.1901778      9.8040461      0.2            90.100927    
     45000   0.14902628     0.00083987608  0.00083987608  0              0             -985.15583     -1835.6584     -134.82919      0             -446.03792      0              0              9.1892158      9.8076667      0.2            90.124765    
     45100   0.21864937     0.00078112073  0.00078112073  0              0              62.520665      119.57797      5.3091732      0             -413.45427      0              0              9.1882537      9.8062671      0.2            90.102471    
     45200   0.20399934     0.00095157083  0.00095157083  0              0              474.13562      739.61518      208.4992       0              425.06872      0              0              9.1872917      9.8070455      0.2            90.100187    
     45300   0.20630179     0.00086482895  0.00086482895  0              0              361.60968      1051.9863     -328.87338      0              232.87294      0              0              9.1863297      9.8217297      0.2            90.225647    
     45400   0.23337096     0.00095469223  0.00095469223  0              0              680.28376      1105.7987      254.59923      0              7.5341688      0              0              9.1853676      9.813273       0.2            90.138521    
     45500   0.17088911     0.00086675998  0.00086675998  0              0             -72.009164      89.473768     -233.63009      0              51.123533      0              0              9.1844056      9.8180349      0.2            90.172815    
     45600   0.17867237     0.0009669497   0.0009669497   0              0              362.40247      497.26805      227.34416      0             -193.46837      0              0              9.1834436      9.8175008      0.2            90.158465    
     45700   0.17617556     0.00075335646  0.00075335646  0              0              141.7615       306.57114     -23.177257      0             -313.7528       0              0              9.1824816      9.8305821      0.2            90.269138    
     45800   0.24308021     0.00077441553  0.00077441553  0              0             -401.0468      -614.60954     -187.65486      0             -129.02046      0              0              9.1815195      9.8242649      0.2            90.20168     
     45900   0.21242181     0.00079880497  0.00079880497  0              0              610.34319      851.059        369.44489      0             -115.33274      0              0              9.1805575      9.83263        0.2            90.269025    
     46000   0.16916686     0.00066015064  0.00066015064  0              0             -91.94755       278.17416     -462.25113      0              291.49963      0              0              9.1795955      9.8399091      0.2            90.326385    
     46100   0.22363367     0.00080700038  0.00080700038  0              0              593.81282      673.45998      514.02312      0             -80.072884      0              0              9.1786334      9.8434284      0.2            90.349221    
     46200   0.24771605     0.0008284162   0.0008284162   0              0             -637.34711     -923.57        -351.22738      0              369.1201       0              0              9.1776714      9.8592421      0.2            90.484884    
     46300   0.17961191     0.00087285812  0.00087285812  0              0              26.922892      87.220895     -33.506011      0             -13.631279      0              0              9.1767094      9.8550594      0.2            90.437016    
     46400   0.1636052      0.00074450063  0.00074450063  0              0              23.481342     -262.76093      309.60306      0              440.16081      0              0              9.1757473      9.8598557      0.2            90.471544    
     46500   0.25586616     0.00072243864  0.00072243864  0              0             -355.37809     -116.83303     -594.04747      0              313.61547      0              0              9.1747853      9.8690766      0.2            90.546659    
     46600   0.24630416     0.0010300196   0.0010300196   0              0              634.71576      660.80947      608.50376      0              518.17209      0              0              9.1738233      9.8639317      0.2            90.489967    
     46700   0.2163259      0.00088055303  0.00088055303  0              0             -181.07321      88.343101     -450.62505      0              46.903801      0              0              9.1728613      9.8679232      0.2            90.51709     
     46800   0.2331967      0.00092844718  0.00092844718  0              0             -51.564696     -246.02536      142.70976      0              164.856        0              0              9.1718992      9.8650927      0.2            90.481636    
     46900   0.16910554     0.00097449715  0.00097449715  0              0              101.9458      -39.071565      242.78095      0              274.38651      0              0              9.1709372      9.8753829      0.2            90.566516    
     47000   0.1932185      0.00087364099  0.00087364099  0              0             -637.74351     -559.15893     -716.48002      0              180.30827      0              0              9.1699752      9.8747854      0.2            90.551537    
     47100   0.28793586     0.00055642837  0.00055642837  0              0              614.77061      279.51869      949.86292      0              415.26187      0              0              9.1690131      9.8547113      0.2            90.357977    
     47200   0.16132831     0.00082885367  0.00082885367  0              0             -840.68963     -773.49623     -908.01751      0              218.13588      0              0              9.1680511      9.8678231      0.2            90.468706    
     47300   0.22016687     0.0008102384   0.0008102384   0              0              426.13885      144.76351      707.34866      0              240.53405      0              0              9.1670891      9.8636228      0.2            90.420708    
     47400   0.163601       0.00092182405  0.00092182405  0              0              274.08301      694.45089     -146.44445      0              696.78025      0              0              9.166127       9.8630969      0.2            90.406399    
     47500   0.20965012     0.00081945791  0.00081945791  0              0             -308.77165     -146.8032      -470.8681       0              564.17626      0              0              9.165165       9.8683112      0.2            90.444701    
     47600   0.17714283     0.00076876432  0.00076876432  0              0              945.19667      1017.6351      872.60259      0              42.980646      0              0              9.164203       9.8549231      0.2            90.312516    
     47700   0.18034156     0.00084722856  0.00084722856  0              0             -341.13731      524.15789     -1206.5904      0              511.24129      0              0              9.163241       9.8618095      0.2            90.366137    
     47800   0.19672757     0.00084968657  0.00084968657  0              0              1332.5812      1442.1119      1222.8758      0              104.67622      0              0              9.1622789      9.8484362      0.2            90.23412     
     47900   0.16974811     0.00070306181  0.00070306181  0              0             -347.1822       273.03881     -967.52234      0              81.155097      0              0              9.1613169      9.870322       0.2            90.425148    
     48000   0.22743916     0.00081888751  0.00081888751  0              0              435.80625      396.70235      474.75401      0              436.88112      0              0              9.1603549      9.8481536      0.2            90.212582    
     48100   0.23031041     0.00065469913  0.00065469913  0              0              402.96755      703.06621      102.74101      0              1.6449211      0              0              9.1593928      9.863782       0.2            90.346254    
     48200   0.24263641     0.00074276491  0.00074276491  0              0             -820.61609     -1001.5651     -639.77609      0             -28.252605      0              0              9.1584308      9.8664779      0.2            90.361455    
     48300   0.27092788     0.00083178249  0.00083178249  0              0              244.13796     -444.67867      932.8047       0             -183.9505       0              0              9.1574688      9.8485033      0.2            90.187361    
     48400   0.19508051     0.00074630044  0.00074630044  0              0             -745.33923     -532.19537     -958.6254       0              492.09845      0              0              9.1565067      9.8629274      0.2            90.309961    
     48500   0.24981816     0.00059597766  0.00059597766  0              0              830.99773      866.35108      795.47195      0             -99.856753      0              0              9.1555447      9.8484242      0.2            90.167688    
     48600   0.16272469     0.0011392505   0.0011392505   0              0             -335.56437     -129.74391     -541.55081      0             -483.93639      0              0              9.1545827      9.857846       0.2            90.244466    
     48700   0.1831763      0.00084847586  0.00084847586  0              0              231.69622      253.48991      209.77736      0             -84.537936      0              0              9.1536207      9.8513085      0.2            90.175141    
     48800   0.23387245     0.00083928408  0.00083928408  0              0              40.686809     -6.779332       88.007354      0             -412.15494      0              0              9.1526586      9.8539984      0.2            90.190283    
     48900   0.24145788     0.00074834633  0.00074834633  0              0             -399.73077     -547.71699     -251.89717      0             -714.66896      0              0              9.1516966      9.8557764      0.2            90.197075    
     49000   0.25672745     0.00075052521  0.00075052521  0              0             -120.63193     -538.71938      297.24345      0             -817.86884      0              0              9.1507346      9.8589476      0.2            90.216613    
     49100   0.20816802     0.00071742344  0.00071742344  0              0             -31.46813       271.98586     -335.05542      0             -678.39645      0              0              9.1497725      9.8602952      0.2            90.219459    
     49200   0.15455711     0.00063924707  0.00063924707  0              0              47.900162     -270.68369      366.32289      0             -355.98429      0              0              9.1488105      9.8518781      0.2            90.132966    
     49300   0.20935723     0.00089854726  0.00089854726  0              0             -372.60687     -574.63654     -170.70303      0             -41.625101      0              0              9.1478485      9.8472867      0.2            90.081486    
     49400   0.18487384     0.0010560999   0.0010560999   0              0             -315.00755     -622.21037     -7.963659       0              184.68965      0              0              9.1468864      9.837461       0.2            89.982138    
     49500   0.2301846      0.00069622115  0.00069622115  0              0              771.18553      1309.155       233.08647      0             -357.29602      0              0              9.1459244      9.836696       0.2            89.965678    
     49600   0.24868814     0.0007120384   0.0007120384   0              0             -50.858183      311.99388     -413.86254      0             -272.18806      0              0              9.1449624      9.8384628      0.2            89.972372    
     49700   0.22717231     0.00071683293  0.00071683293  0              0              616.72804      832.80901      400.49932      0              236.58484      0              0              9.1440003      9.8390139      0.2            89.967946    
     49800   0.2014738      0.00082281763  0.00082281763  0              0              355.17356      1083.0407     -372.83174      0              154.28245      0              0              9.1430383      9.8517382      0.2            90.07482     
     49900   0.22009316     0.00082677453  0.00082677453  0              0              280.88341      293.59707      268.03718      0              260.98171      0              0              9.1420763      9.8580941      0.2            90.123448    
     50000   0.1908957      0.00056610603  0.00056610603  0              0              148.2661       504.48857     -208.06585      0             -174.52363      0              0              9.1411143      9.861032       0.2            90.140821    
     50100   0.19302912     0.00070993585  0.00070993585  0              0              180.08975      293.16143      66.866006      0              117.33386      0              0              9.1401522      9.864224       0.2            90.160509    
     50190   0.16250206     0.00070139536  0.00070139536  0              0              536.56981      790.08808      282.89197      0             -101.40047      0              0              9.1392864      9.8702491      0.2            90.207033    
Loop time of 0.976424 on 1 procs for 50000 steps with 49 atoms

Performance: 44243.056 ns/day, 0.001 hours/ns, 51207.241 timesteps/s
97.9% CPU use with 1 MPI tasks x 1 OpenMP threads

MPI task timing breakdown:
Section |  min time  |  avg time  |  max time  |%varavg| %total
---------------------------------------------------------------
Pair    | 0          | 0          | 0          |   0.0 |  0.00
Bond    | 0.13598    | 0.13598    | 0.13598    |   0.0 | 13.93
Neigh   | 0          | 0          | 0          |   0.0 |  0.00
Comm    | 0.32253    | 0.32253    | 0.32253    |   0.0 | 33.03
Output  | 0.0061261  | 0.0061261  | 0.0061261  |   0.0 |  0.63
Modify  | 0.48829    | 0.48829    | 0.48829    |   0.0 | 50.01
Other   |            | 0.0235     |            |       |  2.41

Nlocal:             49 ave          49 max          49 min
Histogram: 1 0 0 0 0 0 0 0 0 0
Nghost:            410 ave         410 max         410 min
Histogram: 1 0 0 0 0 0 0 0 0 0
Neighs:              0 ave           0 max           0 min
Histogram: 1 0 0 0 0 0 0 0 0 0

Total # of neighbors = 0
Ave neighs/atom = 0
Ave special neighs/atom = 20.653061
Neighbor list builds = 0
Dangerous builds = 0


Total wall time: 0:00:00
