LAMMPS data file via write_data, version 23 Jun 2022, timestep = 10000

80 atoms
4 atom types

-4.804995810702155 4.804995810702155 xlo xhi
-4.804995810702155 4.804995810702155 ylo yhi
-0.1 0.1 zlo zhi

Atoms # sphere

3 1 1.6 0.2441406249999999 -4.012316030281019 -3.7543370570491517 0 1 1 0
77 4 0.7 2.915451895043732 -3.5278369118907777 -4.757438420423772 0 1 0 0
11 1 1.6 0.2441406249999999 -2.5547285359938035 -4.009013478120501 0 1 1 0
38 2 1.3 0.4551661356395083 -1.3187177416309086 -4.380620192480354 0 0 0 0
79 4 0.7 2.915451895043732 -0.3164363014390821 -4.565513655353966 0 1 1 0
69 4 0.7 2.915451895043732 1.3670253545902122 -4.292362426005305 0 -1 0 0
58 3 1 1 2.8907859772257574 -4.671908757421847 0 0 1 0
60 3 1 1 3.3758106126549317 -4.024946460086155 0 0 0 0
31 2 1.3 0.4551661356395083 3.9615628048404057 4.75057467284137 0 -1 -1 0
43 3 1 1 -3.1671471037620575 -2.900681332658701 0 0 1 0
33 2 1.3 0.4551661356395083 -2.1485869282455177 -2.7964575168825347 0 0 0 0
29 2 1.3 0.4551661356395083 -1.0415120041353525 -3.1817336580895215 0 1 0 0
73 4 0.7 2.915451895043732 -0.5718043825431964 -3.9121714043285194 0 0 0 0
20 1 1.6 0.2441406249999999 0.5419769695480392 -3.8551784907370727 0 0 1 0
15 1 1.6 0.2441406249999999 2.093361612257069 -3.6702957020069826 0 0 0 0
64 4 0.7 2.915451895043732 3.289052332259346 -3.228562080020587 0 -1 0 0
18 1 1.6 0.2441406249999999 4.311888406645063 -3.3124807917858865 0 0 0 0
17 1 1.6 0.2441406249999999 -4.2945490318251585 -2.377259185707708 0 1 0 0
16 1 1.6 0.2441406249999999 -2.890757755621795 -1.7337264916445916 0 0 0 0
36 2 1.3 0.4551661356395083 -1.5601324291234464 -1.6485635792963307 0 0 1 0
28 2 1.3 0.4551661356395083 -0.06637332030477072 -2.6420753825369436 0 0 0 0
55 3 1 1 0.4111710710996661 -1.6837085320933687 0 0 0 0
21 2 1.3 0.4551661356395083 1.325201785915385 -2.5513039838509477 0 0 1 0
63 4 0.7 2.915451895043732 2.1501347270760274 -2.188951050464612 0 0 0 0
47 3 1 1 2.9249048012275933 -2.709944337705129 0 -1 0 0
46 3 1 1 3.6839423785505216 -2.37707026728282 0 -1 0 0
76 4 0.7 2.915451895043732 4.211013467697074 -2.0024233750881937 0 0 0 0
80 4 0.7 2.915451895043732 -3.978879029769211 -1.3919660060097883 0 0 0 0
56 3 1 1 -0.6003893845121784 -1.5543291497126597 0 0 0 0
75 4 0.7 2.915451895043732 -0.04803136358173443 -1.004979685289351 0 0 1 0
2 1 1.6 0.2441406249999999 1.5658420308400354 -1.1158374106051032 0 0 0 0
13 1 1.6 0.2441406249999999 2.9523801962518332 -1.4750642570031869 0 0 0 0
40 2 1.3 0.4551661356395083 4.492676481695757 -1.1481200548872637 0 -1 0 0
27 2 1.3 0.4551661356395083 -3.9664742411057876 -0.5520864683501729 0 0 0 0
72 4 0.7 2.915451895043732 -3.4002678424376516 0.20546063384483926 0 1 0 0
6 1 1.6 0.2441406249999999 -2.5630302213340554 -0.3431794250800895 0 0 0 0
1 1 1.6 0.2441406249999999 -0.9890637933755446 -0.35273876170990626 0 1 0 0
19 1 1.6 0.2441406249999999 0.526973731000461 -0.015076493151926051 0 0 0 0
65 4 0.7 2.915451895043732 1.4897052983892944 0.0254103615384782 0 0 0 0
54 3 1 1 2.18493324064095 -0.14836945210719232 0 0 0 0
5 1 1.6 0.2441406249999999 3.395147400668077 -0.1986211569316909 0 0 0 0
48 3 1 1 4.547245108303366 -0.13922532420452338 0 0 0 0
25 2 1.3 0.4551661356395083 -4.225131752118155 0.6347771846331511 0 1 0 0
51 3 1 1 -3.946854146717394 1.6749887254691407 0 0 0 0
32 2 1.3 0.4551661356395083 -2.7959918731061184 1.0587515749906347 0 0 0 0
68 4 0.7 2.915451895043732 -1.9142758491712133 1.0392893959005338 0 0 0 0
50 3 1 1 -1.638663903816291 0.49004450182504566 0 0 0 0
26 2 1.3 0.4551661356395083 -0.5228112480668692 0.79453201906892 0 0 0 0
24 2 1.3 0.4551661356395083 0.5669136048704138 1.3056145535591295 0 0 -1 0
45 3 1 1 1.6220247886510686 0.732969035491549 0 -1 0 0
9 1 1.6 0.2441406249999999 2.81177285283682 1.055053876418297 0 0 0 0
35 2 1.3 0.4551661356395083 4.234568096145066 0.8505273051968576 0 0 0 0
49 3 1 1 -4.7993140744596285 1.8729166445551906 0 0 0 0
34 2 1.3 0.4551661356395083 -2.778630251051973 2.326344704015142 0 0 0 0
10 1 1.6 0.2441406249999999 -1.3876953652822999 1.9120321983263668 0 0 0 0
42 3 1 1 -0.17878350736407622 2.018649487000479 0 0 0 0
4 1 1.6 0.2441406249999999 1.7712500427219453 1.870532902259705 0 0 0 0
67 4 0.7 2.915451895043732 2.880815630101731 2.2620069399123928 0 0 0 0
70 4 0.7 2.915451895043732 3.392350744259848 2.5975148063148374 0 0 -1 0
74 4 0.7 2.915451895043732 3.3778212614034215 1.9922147806888342 0 -1 -1 0
22 2 1.3 0.4551661356395083 -4.03478653129969 2.711711282477375 0 0 0 0
59 3 1 1 -3.1656997793271415 3.323183422571087 0 0 0 0
57 3 1 1 -1.8159702138025442 3.2152752821089434 0 0 0 0
30 2 1.3 0.4551661356395083 -0.5567799719438327 3.162793656680515 0 0 0 0
7 1 1.6 0.2441406249999999 0.7207178019797116 2.8631368247766957 0 0 0 0
71 4 0.7 2.915451895043732 1.3663398158547455 3.808232894478313 0 0 0 0
14 1 1.6 0.2441406249999999 2.3112482667208 3.229522984533131 0 0 0 0
61 4 0.7 2.915451895043732 4.006812185934174 2.236866815269839 0 -1 0 0
37 2 1.3 0.4551661356395083 3.678457145369733 3.479284537307989 0 -1 -1 0
78 4 0.7 2.915451895043732 4.706553556358213 2.6495465462243697 0 0 0 0
23 2 1.3 0.4551661356395083 -4.461917637702972 4.641759296188467 0 1 0 0
41 3 1 1 4.607387389553261 3.792954201468457 0 -1 0 0
52 3 1 1 -4.181428113375652 3.648095664258345 0 0 0 0
44 3 1 1 -3.435984802254688 4.268038948268598 0 1 -1 0
8 1 1.6 0.2441406249999999 -2.215094643416802 4.16999753980462 0 0 0 0
53 3 1 1 -0.8901068469440818 4.196698860405257 0 0 0 0
12 1 1.6 0.2441406249999999 0.29238567433856044 4.300264814950956 0 0 0 0
39 2 1.3 0.4551661356395083 1.8992495229975557 4.567583927741651 0 0 -1 0
62 4 0.7 2.915451895043732 2.5877854803088516 4.118186617701006 0 0 -1 0
66 4 0.7 2.915451895043732 3.2531585251723127 4.156124502347999 0 0 -1 0

Velocities

3 0.06413109028454392 0.12397423730735942 0 0 0 0
77 0.015487574966950062 0.1479072110047309 0 0 0 0
11 -0.012643924570044403 0.12493350217295902 0 0 0 0
38 0.08196688967322992 0.20791305904859378 0 0 0 0
79 0.1475364268079851 -0.1323085339155584 0 0 0 0
69 -0.043459791678926836 0.19765020945260145 0 0 0 0
58 -0.13421724674780072 0.002677492407998915 0 0 0 0
60 -0.20682609429331408 0.04610734022237877 0 0 0 0
31 -0.03912846461379784 0.03422187729791283 0 0 0 0
43 -0.018042142769566324 -0.05999789184046686 0 0 0 0
33 0.08004650616943584 -0.04566216138899743 0 0 0 0
29 0.05442416926944498 0.08933167155848833 0 0 0 0
73 -0.01948859792159698 0.08116351467400705 0 0 0 0
20 0.07031162178407806 -0.03742261715965604 0 0 0 0
15 0.06481096415775775 0.08502388147299253 0 0 0 0
64 0.0476367436245962 -0.008788382921326818 0 0 0 0
18 0.19907814072469415 -0.04050519764282435 0 0 0 0
17 -0.10085184648776548 0.001345982857398104 0 0 0 0
16 -0.09592715830926808 -0.020202677675581846 0 0 0 0
36 -0.026472468167277618 -0.07993852128436393 0 0 0 0
28 0.11017530770745834 0.1225167833700403 0 0 0 0
55 0.09074412772696118 -0.0852095249200953 0 0 0 0
21 -0.10750037227015281 -0.0065035393434556546 0 0 0 0
63 -0.09125554911494112 0.046657919414903395 0 0 0 0
47 -0.03154591582426273 0.0326613898343851 0 0 0 0
46 0.19607917368972114 -0.028191692777514626 0 0 0 0
76 -0.18967173828945985 -0.16174916593785538 0 0 0 0
80 -0.1721619655753959 0.19993973356305786 0 0 0 0
56 -0.0682370591043034 0.017575407025837122 0 0 0 0
75 0.05479643352894976 -0.1357708752493434 0 0 0 0
2 0.02174841006523491 0.035625186223071884 0 0 0 0
13 -0.15917910189033418 0.003341935738060858 0 0 0 0
40 0.22437794535532696 0.045355310534405446 0 0 0 0
27 0.15597513669295962 0.016070393266437163 0 0 0 0
72 -0.03722969354990638 -0.239911225103251 0 0 0 0
6 -0.19615101797165138 0.047096752271157095 0 0 0 0
1 0.24718730970006875 0.07793533464872686 0 0 0 0
19 -0.0014189914854741126 -0.09629391557681388 0 0 0 0
65 0.25120288786528133 0.10627000198497247 0 0 0 0
54 0.02469722319419223 0.03171265291531034 0 0 0 0
5 0.14250595654885873 -0.04091788150000756 0 0 0 0
48 -0.054470833304725824 0.17809463152303717 0 0 0 0
25 0.03928053880778451 -0.15072496297238747 0 0 0 0
51 -0.0930710257840164 0.11387234579769784 0 0 0 0
32 -0.026362549980890507 0.00320597040323899 0 0 0 0
68 0.08178762625505863 -0.1908290974076881 0 0 0 0
50 -0.15995704738750774 -0.1020483530361396 0 0 0 0
26 -0.003153454382137418 -0.06805410514706758 0 0 0 0
24 0.025096760530596965 -0.08414763369400428 0 0 0 0
45 -0.04646958275089823 -0.1163392632639445 0 0 0 0
9 0.1109106724136772 0.0654179681678895 0 0 0 0
35 0.006926345376716802 -0.14036444090048322 0 0 0 0
49 0.03727526206046978 -0.026491438923071046 0 0 0 0
34 -0.03120070163434227 -0.026308796185426895 0 0 0 0
10 0.06547208665345547 0.13455698765246443 0 0 0 0
42 0.06452715438382113 0.1485365347198975 0 0 0 0
4 -0.05785914069791124 0.016176600646685583 0 0 0 0
67 0.020689726190110808 0.07092986397079933 0 0 0 0
70 -0.12216499670679316 -0.06688692761137545 0 0 0 0
74 -0.10207758790120071 -0.01180389145632368 0 0 0 0
22 -0.07317047072506412 -0.11011420628200745 0 0 0 0
59 0.15672268708086942 0.14541058472909096 0 0 0 0
57 0.006621687652131655 -0.03027392040003445 0 0 0 0
30 0.09681483070554828 -0.05272487367940063 0 0 0 0
7 -0.035591778550100595 0.019444226999385323 0 0 0 0
71 -0.09708540543572777 -0.009649562229135782 0 0 0 0
14 0.08881799553164715 -0.008808102083108144 0 0 0 0
61 0.03502921864313643 -0.22963585211275364 0 0 0 0
37 -0.06923819958983873 -0.004883449200498507 0 0 0 0
78 -0.150371813266311 0.0019162040869905997 0 0 0 0
23 -0.15627538468342167 -0.07815564023833933 0 0 0 0
41 0.08105621407606743 0.2142192219818572 0 0 0 0
52 -0.1433484645099774 0.09820058504034494 0 0 0 0
44 -0.06183722567734627 0.024172185579826 0 0 0 0
8 0.030062557918443342 -0.00952196349982537 0 0 0 0
53 -0.030152068345223534 -0.21247391513838637 0 0 0 0
12 -0.18441697446599792 -0.08547870903425786 0 0 0 0
39 0.0880315686218568 -0.042283592240361594 0 0 0 0
62 0.048606306569657094 -0.0932873039205386 0 0 0 0
66 0.021034567405890773 0.011501113326685911 0 0 0 0
