ITEM: TIMESTEP
0
ITEM: NUMBER OF ATOMS
80
ITEM: BOX BOUNDS pp pp pp
-1.0000000000000000e+01 1.0000000000000000e+01
-1.0000000000000000e+01 1.0000000000000000e+01
-1.0000000000000001e-01 1.0000000000000001e-01
ITEM: ATOMS id type xs ys zs
17 1 0.714228 0.0277715 0.5
31 2 0.289408 0.0848868 0.5
72 4 0.777776 0.0821162 0.5
29 2 0.955856 0.0752834 0.5
69 4 0.133525 0.149048 0.5
38 2 0.664493 0.129828 0.5
2 1 0.862268 0.144871 0.5
63 4 0.877796 0.118942 0.5
44 3 0.901417 0.107328 0.5
76 4 0.89999 0.124718 0.5
77 4 0.936523 0.13405 0.5
37 2 0.181364 0.189552 0.5
6 1 0.354089 0.176264 0.5
24 2 0.387467 0.159722 0.5
56 3 0.766895 0.210131 0.5
70 4 0.743034 0.180748 0.5
62 4 0.888449 0.166799 0.5
13 1 0.926114 0.194412 0.5
64 4 0.0520154 0.222062 0.5
80 4 0.495106 0.250819 0.5
16 1 0.088374 0.302555 0.5
33 2 0.362723 0.289735 0.5
68 4 0.480948 0.300181 0.5
45 3 0.0159057 0.327408 0.5
19 1 0.143352 0.324564 0.5
39 2 0.542117 0.368142 0.5
73 4 0.539082 0.358739 0.5
15 1 0.617262 0.325456 0.5
60 3 0.867872 0.329066 0.5
46 3 0.00365274 0.391645 0.5
74 4 0.0270945 0.376818 0.5
57 3 0.0851655 0.375748 0.5
28 2 0.448765 0.391024 0.5
55 3 0.455905 0.393659 0.5
59 3 0.414793 0.427599 0.5
65 4 0.639284 0.450079 0.5
79 4 0.973906 0.437495 0.5
10 1 0.421698 0.480352 0.5
50 3 0.502857 0.522801 0.5
5 1 0.531118 0.50037 0.5
66 4 0.9632 0.506878 0.5
32 2 0.41016 0.552713 0.5
54 3 0.604126 0.553362 0.5
26 2 0.766141 0.52876 0.5
35 2 0.789286 0.533811 0.5
1 1 0.918281 0.54851 0.5
40 2 0.210008 0.612097 0.5
18 1 0.573309 0.604119 0.5
58 3 0.557781 0.617416 0.5
48 3 0.744191 0.613733 0.5
3 1 0.870446 0.58641 0.5
47 3 0.0463889 0.658085 0.5
27 2 0.313005 0.679637 0.5
42 3 0.460205 0.672958 0.5
12 1 0.791079 0.670779 0.5
49 3 0.263146 0.687804 0.5
8 1 0.388392 0.701451 0.5
14 1 0.444321 0.705031 0.5
9 1 0.861527 0.689095 0.5
22 2 0.206625 0.739202 0.5
30 2 0.262972 0.771111 0.5
20 1 0.312355 0.756343 0.5
11 1 0.984458 0.787483 0.5
61 4 0.213413 0.823952 0.5
21 2 0.656324 0.840324 0.5
67 4 0.678219 0.829609 0.5
41 3 0.227577 0.878257 0.5
51 3 0.0249244 0.905061 0.5
34 2 0.0718114 0.933799 0.5
53 3 0.568272 0.944162 0.5
25 2 0.723027 0.918719 0.5
43 3 0.157256 0.999241 0.5
52 3 0.150768 0.96473 0.5
7 1 0.384957 0.978526 0.5
36 2 0.534359 0.966014 0.5
4 1 0.594928 0.952813 0.5
75 4 0.579993 0.948308 0.5
71 4 0.669661 0.989136 0.5
23 2 0.774972 0.953254 0.5
78 4 0.924375 0.974662 0.5
ITEM: TIMESTEP
10
ITEM: NUMBER OF ATOMS
80
ITEM: BOX BOUNDS pp pp pp
-9.2580988485150808e+00 9.2580988485150808e+00
-9.2580988485150808e+00 9.2580988485150808e+00
-1.0000000000000001e-01 1.0000000000000001e-01
ITEM: ATOMS id type xs ys zs
17 1 0.714228 0.027772 0.5
31 2 0.289408 0.0848868 0.5
72 4 0.777776 0.0821162 0.5
29 2 0.955856 0.0752834 0.5
69 4 0.133525 0.149048 0.5
38 2 0.664493 0.129828 0.5
2 1 0.862067 0.144956 0.5
63 4 0.87775 0.11887 0.5
44 3 0.901509 0.107179 0.5
76 4 0.900076 0.124796 0.5
77 4 0.936523 0.134051 0.5
37 2 0.181364 0.189552 0.5
6 1 0.353971 0.176323 0.5
24 2 0.387585 0.159663 0.5
56 3 0.766907 0.210146 0.5
70 4 0.743023 0.180734 0.5
62 4 0.888482 0.16683 0.5
13 1 0.92615 0.194438 0.5
64 4 0.0520154 0.222062 0.5
80 4 0.495106 0.250819 0.5
16 1 0.0883003 0.302526 0.5
33 2 0.362723 0.289735 0.5
68 4 0.480948 0.300181 0.5
45 3 0.0159057 0.327408 0.5
19 1 0.143426 0.324593 0.5
39 2 0.542163 0.368282 0.5
73 4 0.539037 0.358598 0.5
15 1 0.617262 0.325456 0.5
60 3 0.867872 0.329066 0.5
46 3 0.00360569 0.391675 0.5
74 4 0.0271415 0.376788 0.5
57 3 0.0851655 0.375748 0.5
28 2 0.448613 0.390938 0.5
55 3 0.456077 0.393723 0.5
59 3 0.414766 0.427576 0.5
65 4 0.639284 0.450079 0.5
79 4 0.973906 0.437495 0.5
10 1 0.421704 0.480396 0.5
50 3 0.502773 0.522869 0.5
5 1 0.531203 0.500303 0.5
66 4 0.9632 0.506878 0.5
32 2 0.410159 0.552715 0.5
54 3 0.604139 0.553341 0.5
26 2 0.765991 0.528727 0.5
35 2 0.789436 0.533843 0.5
1 1 0.918338 0.548465 0.5
40 2 0.210008 0.612097 0.5
18 1 0.573422 0.604032 0.5
58 3 0.557655 0.617524 0.5
48 3 0.744191 0.613733 0.5
3 1 0.870389 0.586456 0.5
47 3 0.0463889 0.658085 0.5
27 2 0.313033 0.679633 0.5
42 3 0.460254 0.67286 0.5
12 1 0.79105 0.670772 0.5
49 3 0.263118 0.687808 0.5
8 1 0.388301 0.701445 0.5
14 1 0.444363 0.705135 0.5
9 1 0.861557 0.689102 0.5
22 2 0.206621 0.7392 0.5
30 2 0.262899 0.771136 0.5
20 1 0.312432 0.75632 0.5
11 1 0.984458 0.787483 0.5
61 4 0.213413 0.823952 0.5
21 2 0.656238 0.840366 0.5
67 4 0.678305 0.829567 0.5
41 3 0.227577 0.878257 0.5
51 3 0.0249142 0.905054 0.5
34 2 0.0718216 0.933806 0.5
53 3 0.568091 0.944047 0.5
25 2 0.723017 0.918712 0.5
43 3 0.157266 0.999297 0.5
52 3 0.150758 0.964674 0.5
7 1 0.384957 0.978526 0.5
36 2 0.534257 0.966061 0.5
4 1 0.595247 0.952891 0.5
75 4 0.579956 0.948298 0.5
71 4 0.66966 0.989135 0.5
23 2 0.774983 0.953262 0.5
78 4 0.924375 0.974662 0.5
ITEM: TIMESTEP
20
ITEM: NUMBER OF ATOMS
80
ITEM: BOX BOUNDS pp pp pp
-8.3379144733410424e+00 8.3379144733410424e+00
-8.3379144733410424e+00 8.3379144733410424e+00
-1.0000000000000001e-01 1.0000000000000001e-01
ITEM: ATOMS id type xs ys zs
17 1 0.714248 0.0277888 0.5
31 2 0.289408 0.0848868 0.5
72 4 0.777776 0.0821162 0.5
29 2 0.955862 0.0752802 0.5
69 4 0.133525 0.149048 0.5
38 2 0.664493 0.129828 0.5
2 1 0.861277 0.145261 0.5
63 4 0.877575 0.118609 0.5
44 3 0.901844 0.106623 0.5
76 4 0.900397 0.125068 0.5
77 4 0.936543 0.134049 0.5
37 2 0.181364 0.189552 0.5
6 1 0.353544 0.176534 0.5
24 2 0.388012 0.159452 0.5
56 3 0.766961 0.210212 0.5
70 4 0.742969 0.180667 0.5
62 4 0.888593 0.166935 0.5
13 1 0.926321 0.194578 0.5
64 4 0.0520154 0.222062 0.5
80 4 0.495106 0.250819 0.5
16 1 0.0880159 0.302409 0.5
33 2 0.362723 0.289735 0.5
68 4 0.480948 0.300181 0.5
45 3 0.0159056 0.327408 0.5
19 1 0.143711 0.324707 0.5
39 2 0.542323 0.368778 0.5
73 4 0.538877 0.358102 0.5
15 1 0.617262 0.325456 0.5
60 3 0.867872 0.329066 0.5
46 3 0.00342984 0.391786 0.5
74 4 0.0273174 0.376677 0.5
57 3 0.0851654 0.37575 0.5
28 2 0.448098 0.390616 0.5
55 3 0.456689 0.393942 0.5
59 3 0.414645 0.427493 0.5
65 4 0.639284 0.450079 0.5
79 4 0.973906 0.437495 0.5
10 1 0.421735 0.480541 0.5
50 3 0.502463 0.523114 0.5
5 1 0.531512 0.500057 0.5
66 4 0.96321 0.506869 0.5
32 2 0.410153 0.552756 0.5
54 3 0.604198 0.553244 0.5
26 2 0.765458 0.528611 0.5
35 2 0.789969 0.53396 0.5
1 1 0.918552 0.548297 0.5
40 2 0.210008 0.612097 0.5
18 1 0.573808 0.603749 0.5
58 3 0.557211 0.617904 0.5
48 3 0.74419 0.613731 0.5
3 1 0.870166 0.586632 0.5
47 3 0.0463889 0.658085 0.5
27 2 0.313144 0.679591 0.5
42 3 0.46043 0.672502 0.5
12 1 0.790914 0.670737 0.5
49 3 0.262996 0.687828 0.5
8 1 0.387967 0.701426 0.5
14 1 0.444532 0.705515 0.5
9 1 0.861694 0.689138 0.5
22 2 0.20658 0.739176 0.5
30 2 0.26265 0.771247 0.5
20 1 0.312722 0.756251 0.5
11 1 0.984458 0.787483 0.5
61 4 0.213413 0.823952 0.5
21 2 0.655929 0.840517 0.5
67 4 0.678615 0.829415 0.5
41 3 0.227577 0.878257 0.5
51 3 0.024855 0.905018 0.5
34 2 0.0718808 0.933842 0.5
53 3 0.567462 0.943627 0.5
25 2 0.722953 0.91867 0.5
43 3 0.157306 0.999507 0.5
52 3 0.150718 0.964463 0.5
7 1 0.384957 0.978526 0.5
36 2 0.533837 0.96625 0.5
4 1 0.596407 0.953164 0.5
75 4 0.579846 0.948257 0.5
71 4 0.669641 0.989118 0.5
23 2 0.775046 0.953304 0.5
78 4 0.924375 0.974662 0.5
ITEM: TIMESTEP
30
ITEM: NUMBER OF ATOMS
80
ITEM: BOX BOUNDS pp pp pp
-7.6550298090306850e+00 7.6550298090306850e+00
-7.6550298090306850e+00 7.6550298090306850e+00
-1.0000000000000001e-01 1.0000000000000001e-01
ITEM: ATOMS id type xs ys zs
17 1 0.714327 0.0278573 0.5
31 2 0.289408 0.0848868 0.5
72 4 0.777776 0.0821162 0.5
29 2 0.955911 0.0752506 0.5
69 4 0.133524 0.149048 0.5
38 2 0.664493 0.129828 0.5
2 1 0.859611 0.145844 0.5
63 4 0.87722 0.118095 0.5
44 3 0.902465 0.105513 0.5
76 4 0.901029 0.12558 0.5
77 4 0.93665 0.134034 0.5
37 2 0.181365 0.189553 0.5
6 1 0.352704 0.176951 0.5
24 2 0.388852 0.159035 0.5
56 3 0.767086 0.210366 0.5
70 4 0.742843 0.180513 0.5
62 4 0.888792 0.167122 0.5
13 1 0.926736 0.194964 0.5
64 4 0.0520154 0.222062 0.5
80 4 0.495106 0.250819 0.5
16 1 0.0874404 0.302131 0.5
33 2 0.362723 0.289735 0.5
68 4 0.480948 0.300181 0.5
45 3 0.0158887 0.327406 0.5
19 1 0.14431 0.324938 0.5
39 2 0.542619 0.369728 0.5
73 4 0.538572 0.357158 0.5
15 1 0.617271 0.32545 0.5
60 3 0.867872 0.329066 0.5
46 3 0.00307462 0.39201 0.5
74 4 0.0276743 0.376459 0.5
57 3 0.0851571 0.375793 0.5
28 2 0.447157 0.38996 0.5
55 3 0.457879 0.39434 0.5
59 3 0.414343 0.427347 0.5
65 4 0.639284 0.450079 0.5
79 4 0.973906 0.437495 0.5
10 1 0.421813 0.480795 0.5
50 3 0.501851 0.5236 0.5
5 1 0.532125 0.499571 0.5
66 4 0.963265 0.506818 0.5
32 2 0.410129 0.552907 0.5
54 3 0.604342 0.553005 0.5
26 2 0.764429 0.528386 0.5
35 2 0.790998 0.534184 0.5
1 1 0.918965 0.547976 0.5
40 2 0.210008 0.612097 0.5
18 1 0.574519 0.603256 0.5
58 3 0.556355 0.618635 0.5
48 3 0.744168 0.613705 0.5
3 1 0.869697 0.587004 0.5
47 3 0.0463889 0.658085 0.5
27 2 0.313348 0.679425 0.5
42 3 0.460783 0.67179 0.5
12 1 0.790606 0.670678 0.5
49 3 0.262715 0.687874 0.5
8 1 0.38735 0.701387 0.5
14 1 0.444893 0.706274 0.5
9 1 0.862023 0.689224 0.5
22 2 0.206444 0.739098 0.5
30 2 0.262187 0.771504 0.5
20 1 0.3133 0.756185 0.5
11 1 0.984458 0.787483 0.5
61 4 0.213413 0.823952 0.5
21 2 0.655322 0.840814 0.5
67 4 0.679221 0.829118 0.5
41 3 0.227577 0.878257 0.5
51 3 0.0246962 0.904921 0.5
34 2 0.0720396 0.933939 0.5
53 3 0.566278 0.942792 0.5
25 2 0.722782 0.918556 0.5
43 3 0.157387 0.99994 0.5
52 3 0.150637 0.964031 0.5
7 1 0.384957 0.978526 0.5
36 2 0.532913 0.966659 0.5
4 1 0.598681 0.953679 0.5
75 4 0.57968 0.948168 0.5
71 4 0.669562 0.98905 0.5
23 2 0.775217 0.953418 0.5
78 4 0.924375 0.974662 0.5
ITEM: TIMESTEP
40
ITEM: NUMBER OF ATOMS
80
ITEM: BOX BOUNDS pp pp pp
-7.1723817565913484e+00 7.1723817565913484e+00
-7.1723817565913484e+00 7.1723817565913484e+00
-1.0000000000000001e-01 1.0000000000000001e-01
ITEM: ATOMS id type xs ys zs
17 1 0.714504 0.0280158 0.5
31 2 0.289408 0.0848868 0.5
72 4 0.777776 0.0821162 0.5
29 2 0.956062 0.0751435 0.5
69 4 0.133509 0.149035 0.5
38 2 0.664493 0.129828 0.5
2 1 0.856816 0.146749 0.5
63 4 0.876649 0.117279 0.5
44 3 0.903376 0.103738 0.5
76 4 0.902018 0.126347 0.5
77 4 0.936908 0.13401 0.5
37 2 0.18138 0.189566 0.5
6 1 0.351367 0.177613 0.5
24 2 0.390189 0.158373 0.5
56 3 0.767311 0.210643 0.5
70 4 0.742619 0.180236 0.5
62 4 0.889086 0.167404 0.5
13 1 0.927498 0.195733 0.5
64 4 0.0520154 0.222062 0.5
80 4 0.495106 0.250819 0.5
16 1 0.0865395 0.301585 0.5
33 2 0.362723 0.289735 0.5
68 4 0.480948 0.300181 0.5
45 3 0.0157996 0.327387 0.5
19 1 0.145339 0.325293 0.5
39 2 0.543032 0.371229 0.5
73 4 0.538099 0.355692 0.5
15 1 0.617331 0.325415 0.5
60 3 0.867872 0.329066 0.5
46 3 0.00250281 0.392369 0.5
74 4 0.0282617 0.376137 0.5
57 3 0.0851085 0.375955 0.5
28 2 0.445752 0.388871 0.5
55 3 0.45976 0.394933 0.5
59 3 0.413775 0.427138 0.5
65 4 0.639284 0.450079 0.5
79 4 0.973899 0.437505 0.5
10 1 0.421959 0.481167 0.5
50 3 0.500871 0.524378 0.5
5 1 0.533104 0.498793 0.5
66 4 0.963408 0.506686 0.5
32 2 0.410075 0.553239 0.5
54 3 0.604609 0.55256 0.5
26 2 0.762816 0.528034 0.5
35 2 0.792603 0.534531 0.5
1 1 0.919609 0.547486 0.5
40 2 0.210008 0.612097 0.5
18 1 0.575592 0.602559 0.5
58 3 0.555015 0.619778 0.5
48 3 0.744091 0.613611 0.5
3 1 0.86892 0.587614 0.5
47 3 0.0463889 0.658085 0.5
27 2 0.313635 0.679035 0.5
42 3 0.461376 0.670631 0.5
12 1 0.790081 0.670616 0.5
49 3 0.262216 0.687949 0.5
8 1 0.386446 0.701312 0.5
14 1 0.445512 0.7075 0.5
9 1 0.862624 0.689399 0.5
22 2 0.206153 0.738935 0.5
30 2 0.261486 0.771965 0.5
20 1 0.314196 0.756209 0.5
11 1 0.984458 0.787483 0.5
61 4 0.213412 0.823949 0.5
21 2 0.65436 0.841285 0.5
67 4 0.680184 0.828647 0.5
41 3 0.227577 0.87826 0.5
51 3 0.0243892 0.904733 0.5
34 2 0.0723467 0.934127 0.5
53 3 0.564468 0.941442 0.5
25 2 0.722448 0.918334 0.5
43 3 0.157521 0.000651599 0.5
52 3 0.150503 0.963319 0.5
7 1 0.384957 0.978526 0.5
36 2 0.531334 0.967362 0.5
4 1 0.602269 0.95447 0.5
75 4 0.579479 0.948023 0.5
71 4 0.669384 0.988895 0.5
23 2 0.775553 0.953636 0.5
78 4 0.924375 0.974662 0.5
ITEM: TIMESTEP
50
ITEM: NUMBER OF ATOMS
80
ITEM: BOX BOUNDS pp pp pp
-6.8497505157570870e+00 6.8497505157570870e+00
-6.8497505157570870e+00 6.8497505157570870e+00
-1.0000000000000001e-01 1.0000000000000001e-01
ITEM: ATOMS id type xs ys zs
17 1 0.714791 0.0283148 0.5
31 2 0.289408 0.0848868 0.5
72 4 0.777776 0.0821162 0.5
29 2 0.956377 0.0749022 0.5
69 4 0.133454 0.148988 0.5
38 2 0.664493 0.129828 0.5
2 1 0.85277 0.147982 0.5
63 4 0.875854 0.116143 0.5
44 3 0.904538 0.101266 0.5
76 4 0.90336 0.127328 0.5
77 4 0.937364 0.133999 0.5
37 2 0.181435 0.189612 0.5
6 1 0.349502 0.178537 0.5
24 2 0.392054 0.157449 0.5
56 3 0.767653 0.211064 0.5
70 4 0.742277 0.179815 0.5
62 4 0.889466 0.167781 0.5
13 1 0.928684 0.197001 0.5
64 4 0.0520154 0.222062 0.5
80 4 0.495106 0.250819 0.5
16 1 0.0853177 0.300693 0.5
33 2 0.362723 0.289735 0.5
68 4 0.480948 0.300181 0.5
45 3 0.015586 0.327319 0.5
19 1 0.146875 0.325765 0.5
39 2 0.543526 0.373324 0.5
73 4 0.537455 0.353689 0.5
15 1 0.61748 0.325324 0.5
60 3 0.867872 0.329066 0.5
46 3 0.00170629 0.392867 0.5
74 4 0.0290917 0.375729 0.5
57 3 0.0850044 0.376307 0.5
28 2 0.443904 0.387263 0.5
55 3 0.462369 0.395725 0.5
59 3 0.412883 0.426872 0.5
65 4 0.639284 0.450079 0.5
79 4 0.97387 0.437552 0.5
10 1 0.422172 0.481675 0.5
50 3 0.499507 0.525472 0.5
5 1 0.534469 0.497693 0.5
66 4 0.963673 0.506439 0.5
32 2 0.409982 0.553808 0.5
54 3 0.605034 0.551866 0.5
26 2 0.760591 0.527549 0.5
35 2 0.794772 0.534977 0.5
1 1 0.920485 0.546829 0.5
40 2 0.210008 0.612097 0.5
18 1 0.577026 0.601694 0.5
58 3 0.553166 0.621348 0.5
48 3 0.743927 0.613408 0.5
3 1 0.867841 0.588468 0.5
47 3 0.0463889 0.658085 0.5
27 2 0.313981 0.678341 0.5
42 3 0.462244 0.668978 0.5
12 1 0.789318 0.670579 0.5
49 3 0.261463 0.68802 0.5
8 1 0.38529 0.701176 0.5
14 1 0.446433 0.709242 0.5
9 1 0.863545 0.689727 0.5
22 2 0.205645 0.738677 0.5
30 2 0.260549 0.77267 0.5
20 1 0.315417 0.75643 0.5
11 1 0.984458 0.787483 0.5
61 4 0.213404 0.823926 0.5
21 2 0.65302 0.84194 0.5
67 4 0.681523 0.827992 0.5
41 3 0.227584 0.878284 0.5
51 3 0.0239 0.904433 0.5
34 2 0.0728356 0.934427 0.5
53 3 0.562036 0.939522 0.5
25 2 0.721916 0.91798 0.5
43 3 0.157713 0.00167032 0.5
52 3 0.150312 0.962301 0.5
7 1 0.384957 0.978526 0.5
36 2 0.529033 0.9684 0.5
4 1 0.607185 0.955531 0.5
75 4 0.579263 0.947827 0.5
71 4 0.669105 0.988642 0.5
23 2 0.77611 0.953961 0.5
78 4 0.924375 0.974662 0.5
ITEM: TIMESTEP
60
ITEM: NUMBER OF ATOMS
80
ITEM: BOX BOUNDS pp pp pp
-6.6321222662739583e+00 6.6321222662739583e+00
-6.6321222662739583e+00 6.6321222662739583e+00
-1.0000000000000001e-01 1.0000000000000001e-01
ITEM: ATOMS id type xs ys zs
17 1 0.715177 0.0287924 0.5
31 2 0.289408 0.0848868 0.5
72 4 0.777783 0.0821222 0.5
29 2 0.956903 0.0744852 0.5
69 4 0.13334 0.148892 0.5
38 2 0.664493 0.129828 0.5
2 1 0.847464 0.149527 0.5
63 4 0.874853 0.114699 0.5
44 3 0.905883 0.0981264 0.5
76 4 0.905014 0.128481 0.5
77 4 0.938046 0.134018 0.5
37 2 0.181549 0.189708 0.5
6 1 0.347114 0.179721 0.5
24 2 0.394442 0.156265 0.5
56 3 0.76812 0.21164 0.5
70 4 0.741809 0.17924 0.5
62 4 0.889923 0.168238 0.5
13 1 0.930326 0.198829 0.5
64 4 0.0520147 0.22206 0.5
80 4 0.495107 0.250818 0.5
16 1 0.0838005 0.299407 0.5
33 2 0.362723 0.289735 0.5
68 4 0.480948 0.300182 0.5
45 3 0.0152074 0.327176 0.5
19 1 0.148949 0.326343 0.5
39 2 0.544072 0.376011 0.5
73 4 0.536648 0.351166 0.5
15 1 0.617748 0.325157 0.5
60 3 0.867872 0.329066 0.5
46 3 0.00069222 0.393503 0.5
74 4 0.0301476 0.375256 0.5
57 3 0.0848526 0.376891 0.5
28 2 0.441655 0.385087 0.5
55 3 0.465683 0.396715 0.5
59 3 0.411638 0.426551 0.5
65 4 0.639284 0.450079 0.5
79 4 0.973803 0.437659 0.5
10 1 0.422414 0.48231 0.5
50 3 0.497788 0.526898 0.5
5 1 0.536203 0.496232 0.5
66 4 0.964089 0.506051 0.5
32 2 0.409844 0.554653 0.5
54 3 0.605657 0.550906 0.5
26 2 0.757769 0.526934 0.5
35 2 0.797446 0.535486 0.5
1 1 0.92158 0.546019 0.5
40 2 0.210008 0.612097 0.5
18 1 0.578809 0.600731 0.5
58 3 0.550816 0.623335 0.5
48 3 0.743653 0.613068 0.5
3 1 0.866504 0.589551 0.5
47 3 0.0463889 0.658085 0.5
27 2 0.314356 0.677289 0.5
42 3 0.463392 0.666817 0.5
12 1 0.788298 0.670605 0.5
49 3 0.260446 0.688052 0.5
8 1 0.38394 0.700954 0.5
14 1 0.447683 0.711519 0.5
9 1 0.864812 0.690262 0.5
22 2 0.204868 0.738326 0.5
30 2 0.259403 0.773627 0.5
20 1 0.316952 0.756931 0.5
11 1 0.984458 0.787483 0.5
61 4 0.213369 0.823879 0.5
21 2 0.651309 0.842778 0.5
67 4 0.683234 0.827154 0.5
41 3 0.227601 0.87835 0.5
51 3 0.0232105 0.90401 0.5
34 2 0.0735131 0.934846 0.5
53 3 0.559031 0.937016 0.5
25 2 0.721163 0.91748 0.5
43 3 0.157963 0.00300182 0.5
52 3 0.150074 0.960973 0.5
7 1 0.384957 0.978526 0.5
36 2 0.526023 0.969791 0.5
4 1 0.613292 0.956816 0.5
75 4 0.579051 0.947593 0.5
71 4 0.668764 0.988306 0.5
23 2 0.776931 0.954378 0.5
78 4 0.924375 0.974662 0.5
ITEM: TIMESTEP
70
ITEM: NUMBER OF ATOMS
80
ITEM: BOX BOUNDS pp pp pp
-6.4995903811267759e+00 6.4995903811267759e+00
-6.4995903811267759e+00 6.4995903811267759e+00
-1.0000000000000001e-01 1.0000000000000001e-01
ITEM: ATOMS id type xs ys zs
17 1 0.715639 0.0294599 0.5
31 2 0.289408 0.0848867 0.5
72 4 0.777814 0.0821484 0.5
29 2 0.957682 0.0738674 0.5
69 4 0.133155 0.148735 0.5
38 2 0.664493 0.129828 0.5
2 1 0.841013 0.15134 0.5
63 4 0.873677 0.112981 0.5
44 3 0.907326 0.0943983 0.5
76 4 0.906903 0.129763 0.5
77 4 0.938964 0.13408 0.5
37 2 0.181734 0.189865 0.5
6 1 0.344242 0.181144 0.5
24 2 0.397314 0.154841 0.5
56 3 0.76871 0.21237 0.5
70 4 0.741218 0.178512 0.5
62 4 0.890436 0.168749 0.5
13 1 0.932414 0.201222 0.5
64 4 0.052006 0.222039 0.5
80 4 0.49511 0.250807 0.5
16 1 0.0820382 0.297731 0.5
33 2 0.362723 0.289735 0.5
68 4 0.480945 0.300193 0.5
45 3 0.0146352 0.326945 0.5
19 1 0.151549 0.327016 0.5
39 2 0.544672 0.379245 0.5
73 4 0.535688 0.348178 0.5
15 1 0.618153 0.3249 0.5
60 3 0.867872 0.329066 0.5
46 3 -0.000518391 0.394259 0.5
74 4 0.0313995 0.374737 0.5
57 3 0.0846702 0.377723 0.5
28 2 0.439064 0.382339 0.5
55 3 0.469608 0.397894 0.5
59 3 0.410041 0.426177 0.5
65 4 0.639284 0.450079 0.5
79 4 0.973687 0.437845 0.5
10 1 0.422644 0.483055 0.5
50 3 0.495771 0.528652 0.5
5 1 0.538266 0.494391 0.5
66 4 0.964673 0.505507 0.5
32 2 0.409654 0.55579 0.5
54 3 0.606505 0.54968 0.5
26 2 0.754401 0.526199 0.5
35 2 0.80054 0.536014 0.5
1 1 0.922868 0.545083 0.5
40 2 0.210008 0.612097 0.5
18 1 0.580909 0.599748 0.5
58 3 0.547999 0.625704 0.5
48 3 0.743256 0.61257 0.5
3 1 0.864976 0.590826 0.5
47 3 0.0463889 0.658085 0.5
27 2 0.314724 0.675847 0.5
42 3 0.464794 0.664173 0.5
12 1 0.78701 0.67074 0.5
49 3 0.259178 0.68802 0.5
8 1 0.382472 0.700619 0.5
14 1 0.449271 0.714319 0.5
9 1 0.866428 0.691038 0.5
22 2 0.203794 0.737884 0.5
30 2 0.25809 0.774828 0.5
20 1 0.31877 0.757768 0.5
11 1 0.984458 0.787483 0.5
61 4 0.213285 0.823815 0.5
21 2 0.649253 0.843784 0.5
67 4 0.68529 0.826148 0.5
41 3 0.227633 0.878473 0.5
51 3 0.0223182 0.903463 0.5
34 2 0.0743546 0.935375 0.5
53 3 0.555541 0.933943 0.5
25 2 0.720189 0.916833 0.5
43 3 0.158269 0.00463028 0.5
52 3 0.149818 0.959362 0.5
7 1 0.384957 0.978526 0.5
36 2 0.522388 0.971525 0.5
4 1 0.620347 0.958259 0.5
75 4 0.578853 0.947341 0.5
71 4 0.668412 0.987916 0.5
23 2 0.778034 0.954871 0.5
78 4 0.924375 0.974662 0.5
ITEM: TIMESTEP
80
ITEM: NUMBER OF ATOMS
80
ITEM: BOX BOUNDS pp pp pp
-6.4409736000175775e+00 6.4409736000175775e+00
-6.4409736000175775e+00 6.4409736000175775e+00
-1.0000000000000001e-01 1.0000000000000001e-01
ITEM: ATOMS id type xs ys zs
17 1 0.71617 0.0303265 0.5
31 2 0.289406 0.084882 0.5
72 4 0.777882 0.0822064 0.5
29 2 0.958737 0.0730441 0.5
69 4 0.132895 0.148515 0.5
38 2 0.664493 0.129828 0.5
2 1 0.833688 0.153337 0.5
63 4 0.87237 0.11105 0.5
44 3 0.908761 0.090214 0.5
76 4 0.908923 0.131134 0.5
77 4 0.940105 0.134189 0.5
37 2 0.181994 0.190086 0.5
6 1 0.34096 0.182766 0.5
24 2 0.400598 0.153214 0.5
56 3 0.769383 0.213263 0.5
70 4 0.740514 0.177645 0.5
62 4 0.890974 0.169282 0.5
13 1 0.934887 0.204126 0.5
64 4 0.0519791 0.221972 0.5
80 4 0.495117 0.25078 0.5
16 1 0.0801009 0.29571 0.5
33 2 0.362725 0.289745 0.5
68 4 0.480937 0.30022 0.5
45 3 0.0138555 0.326631 0.5
19 1 0.154619 0.32777 0.5
39 2 0.545338 0.382936 0.5
73 4 0.534595 0.344808 0.5
15 1 0.6187 0.324547 0.5
60 3 0.867872 0.329066 0.5
46 3 0.998109 0.395104 0.5
74 4 0.0328049 0.374193 0.5
57 3 0.0844816 0.378789 0.5
28 2 0.436209 0.379067 0.5
55 3 0.473987 0.399247 0.5
59 3 0.408129 0.425748 0.5
65 4 0.639284 0.450079 0.5
79 4 0.973516 0.438125 0.5
10 1 0.422842 0.483873 0.5
50 3 0.49353 0.530706 0.5
5 1 0.540594 0.492191 0.5
66 4 0.965429 0.504798 0.5
32 2 0.409413 0.557219 0.5
54 3 0.607581 0.5482 0.5
26 2 0.750575 0.525357 0.5
35 2 0.803943 0.536512 0.5
1 1 0.924307 0.544054 0.5
40 2 0.210008 0.612097 0.5
18 1 0.583275 0.598816 0.5
58 3 0.544782 0.628393 0.5
48 3 0.742733 0.611917 0.5
3 1 0.863329 0.592258 0.5
47 3 0.0463889 0.658085 0.5
27 2 0.315051 0.674018 0.5
42 3 0.466397 0.661108 0.5
12 1 0.785466 0.671014 0.5
49 3 0.257693 0.687916 0.5
8 1 0.380974 0.700145 0.5
14 1 0.451181 0.717593 0.5
9 1 0.868371 0.692065 0.5
22 2 0.20242 0.73736 0.5
30 2 0.25666 0.776247 0.5
20 1 0.32082 0.758959 0.5
11 1 0.984458 0.787483 0.5
61 4 0.213133 0.823743 0.5
21 2 0.646908 0.844932 0.5
67 4 0.687636 0.825 0.5
41 3 0.227681 0.878658 0.5
51 3 0.0212375 0.902801 0.5
34 2 0.075322 0.936 0.5
53 3 0.551691 0.930371 0.5
25 2 0.719031 0.916038 0.5
43 3 0.158623 0.00651767 0.5
52 3 0.149577 0.957512 0.5
7 1 0.384957 0.978526 0.5
36 2 0.518285 0.973564 0.5
4 1 0.627968 0.959763 0.5
75 4 0.578673 0.947091 0.5
71 4 0.668105 0.987514 0.5
23 2 0.779411 0.955419 0.5
78 4 0.924375 0.974662 0.5
ITEM: TIMESTEP
90
ITEM: NUMBER OF ATOMS
80
ITEM: BOX BOUNDS pp pp pp
-6.4412808876914873e+00 6.4412808876914873e+00
-6.4412808876914873e+00 6.4412808876914873e+00
-1.0000000000000001e-01 1.0000000000000001e-01
ITEM: ATOMS id type xs ys zs
17 1 0.716786 0.0313976 0.5
31 2 0.289397 0.084866 0.5
72 4 0.777996 0.0823021 0.5
29 2 0.96007 0.0720376 0.5
69 4 0.132562 0.148233 0.5
38 2 0.664491 0.129831 0.5
2 1 0.825864 0.1554 0.5
63 4 0.87098 0.10898 0.5
44 3 0.910085 0.0857381 0.5
76 4 0.910955 0.132547 0.5
77 4 0.941443 0.13434 0.5
37 2 0.182327 0.190367 0.5
6 1 0.337367 0.184532 0.5
24 2 0.404193 0.151433 0.5
56 3 0.770084 0.214332 0.5
70 4 0.739717 0.176663 0.5
62 4 0.8915 0.169809 0.5
13 1 0.937644 0.207436 0.5
64 4 0.0519268 0.221838 0.5
80 4 0.495131 0.250734 0.5
16 1 0.0780667 0.29342 0.5
33 2 0.362731 0.289777 0.5
68 4 0.480924 0.300266 0.5
45 3 0.0128698 0.326252 0.5
19 1 0.158066 0.32859 0.5
39 2 0.546088 0.386944 0.5
73 4 0.533404 0.341162 0.5
15 1 0.61937 0.324107 0.5
60 3 0.867872 0.329066 0.5
46 3 0.99662 0.395997 0.5
74 4 0.0343135 0.37364 0.5
57 3 0.0843156 0.380051 0.5
28 2 0.433177 0.375366 0.5
55 3 0.478627 0.400758 0.5
59 3 0.405966 0.425266 0.5
65 4 0.639284 0.450079 0.5
79 4 0.973287 0.438506 0.5
10 1 0.423012 0.484708 0.5
50 3 0.491155 0.533012 0.5
5 1 0.5431 0.489704 0.5
66 4 0.966353 0.50393 0.5
32 2 0.409116 0.558919 0.5
54 3 0.608871 0.54649 0.5
26 2 0.746404 0.524428 0.5
35 2 0.807532 0.536934 0.5
1 1 0.925847 0.542972 0.5
40 2 0.210008 0.612096 0.5
18 1 0.585837 0.597992 0.5
58 3 0.541252 0.631325 0.5
48 3 0.742091 0.611117 0.5
3 1 0.861629 0.593815 0.5
47 3 0.0463889 0.658085 0.5
27 2 0.315304 0.671831 0.5
42 3 0.468134 0.657715 0.5
12 1 0.7837 0.671447 0.5
49 3 0.256045 0.687755 0.5
8 1 0.379537 0.699514 0.5
14 1 0.453377 0.721263 0.5
9 1 0.870596 0.693333 0.5
22 2 0.200765 0.736764 0.5
30 2 0.255163 0.777837 0.5
20 1 0.323037 0.760488 0.5
11 1 0.984458 0.787483 0.5
61 4 0.212902 0.823676 0.5
21 2 0.644342 0.846187 0.5
67 4 0.690201 0.823745 0.5
41 3 0.227746 0.878905 0.5
51 3 0.0199963 0.90204 0.5
34 2 0.0763701 0.936701 0.5
53 3 0.547631 0.92641 0.5
25 2 0.717768 0.915095 0.5
43 3 0.159015 0.00860918 0.5
52 3 0.149378 0.955481 0.5
7 1 0.384957 0.978526 0.5
36 2 0.513906 0.975844 0.5
4 1 0.635696 0.961219 0.5
75 4 0.578509 0.946865 0.5
71 4 0.667895 0.987154 0.5
23 2 0.78103 0.956005 0.5
78 4 0.924375 0.974662 0.5
ITEM: TIMESTEP
100
ITEM: NUMBER OF ATOMS
80
ITEM: BOX BOUNDS pp pp pp
-6.4786651093214260e+00 6.4786651093214260e+00
-6.4786651093214260e+00 6.4786651093214260e+00
-1.0000000000000001e-01 1.0000000000000001e-01
ITEM: ATOMS id type xs ys zs
17 1 0.717496 0.0326657 0.5
31 2 0.289383 0.0848386 0.5
72 4 0.778153 0.0824287 0.5
29 2 0.961666 0.0708872 0.5
69 4 0.132168 0.147899 0.5
38 2 0.664487 0.12984 0.5
2 1 0.817907 0.157445 0.5
63 4 0.869549 0.106847 0.5
44 3 0.911243 0.08111 0.5
76 4 0.912891 0.13396 0.5
77 4 0.942947 0.134519 0.5
37 2 0.182721 0.190701 0.5
6 1 0.333564 0.186384 0.5
24 2 0.407996 0.149548 0.5
56 3 0.770765 0.215586 0.5
70 4 0.73884 0.175597 0.5
62 4 0.891973 0.170311 0.5
13 1 0.94057 0.211032 0.5
64 4 0.0518444 0.221621 0.5
80 4 0.495149 0.25067 0.5
16 1 0.0760096 0.290946 0.5
33 2 0.362744 0.289837 0.5
68 4 0.480906 0.30033 0.5
45 3 0.0116905 0.325835 0.5
19 1 0.161782 0.329463 0.5
39 2 0.546944 0.3911 0.5
73 4 0.532155 0.337344 0.5
15 1 0.620129 0.323597 0.5
60 3 0.867872 0.329066 0.5
46 3 0.995058 0.396897 0.5
74 4 0.0358764 0.373086 0.5
57 3 0.0842018 0.381457 0.5
28 2 0.43005 0.371352 0.5
55 3 0.483334 0.402405 0.5
59 3 0.403628 0.424727 0.5
65 4 0.639284 0.450079 0.5
79 4 0.973003 0.438988 0.5
10 1 0.423173 0.485497 0.5
50 3 0.488739 0.53551 0.5
5 1 0.545698 0.487044 0.5
66 4 0.967433 0.502911 0.5
32 2 0.408753 0.560864 0.5
54 3 0.610349 0.544576 0.5
26 2 0.742004 0.523434 0.5
35 2 0.811196 0.537238 0.5
1 1 0.927442 0.541873 0.5
40 2 0.210006 0.612092 0.5
18 1 0.588525 0.597316 0.5
58 3 0.537504 0.63442 0.5
48 3 0.741346 0.610184 0.5
3 1 0.859926 0.595477 0.5
47 3 0.0463889 0.658085 0.5
27 2 0.315459 0.669333 0.5
42 3 0.469926 0.654101 0.5
12 1 0.781754 0.672043 0.5
49 3 0.254294 0.687568 0.5
8 1 0.378239 0.698714 0.5
14 1 0.455814 0.725236 0.5
9 1 0.87305 0.694815 0.5
22 2 0.198865 0.736106 0.5
30 2 0.253644 0.779546 0.5
20 1 0.325353 0.762311 0.5
11 1 0.984458 0.787483 0.5
61 4 0.212587 0.823628 0.5
21 2 0.641629 0.847514 0.5
67 4 0.692913 0.822418 0.5
41 3 0.227826 0.879208 0.5
51 3 0.018629 0.901201 0.5
34 2 0.0774539 0.937456 0.5
53 3 0.543504 0.922184 0.5
25 2 0.716476 0.914001 0.5
43 3 0.159434 0.0108458 0.5
52 3 0.149243 0.953328 0.5
7 1 0.384957 0.978526 0.5
36 2 0.5094 0.978293 0.5
4 1 0.643167 0.962512 0.5
75 4 0.578353 0.94668 0.5
71 4 0.667822 0.986895 0.5
23 2 0.782844 0.956611 0.5
78 4 0.924375 0.974662 0.5
ITEM: TIMESTEP
110
ITEM: NUMBER OF ATOMS
80
ITEM: BOX BOUNDS pp pp pp
-6.5294212199029094e+00 6.5294212199029094e+00
-6.5294212199029094e+00 6.5294212199029094e+00
-1.0000000000000001e-01 1.0000000000000001e-01
ITEM: ATOMS id type xs ys zs
17 1 0.718305 0.0341212 0.5
31 2 0.289366 0.0848046 0.5
72 4 0.77835 0.0825752 0.5
29 2 0.963509 0.0696322 0.5
69 4 0.131722 0.147522 0.5
38 2 0.664478 0.129856 0.5
2 1 0.810064 0.159399 0.5
63 4 0.868104 0.104716 0.5
44 3 0.912217 0.0764325 0.5
76 4 0.914681 0.135331 0.5
77 4 0.944586 0.134706 0.5
37 2 0.183167 0.191079 0.5
6 1 0.329635 0.188276 0.5
24 2 0.411922 0.147602 0.5
56 3 0.771388 0.217034 0.5
70 4 0.737864 0.17448 0.5
62 4 0.892357 0.170784 0.5
13 1 0.9436 0.214814 0.5
64 4 0.0517287 0.221308 0.5
80 4 0.495172 0.250591 0.5
16 1 0.0739903 0.288372 0.5
33 2 0.362766 0.289925 0.5
68 4 0.480883 0.300409 0.5
45 3 0.0103334 0.325408 0.5
19 1 0.165667 0.33038 0.5
39 2 0.547928 0.395256 0.5
73 4 0.530884 0.33344 0.5
15 1 0.620941 0.323037 0.5
60 3 0.867872 0.329066 0.5
46 3 0.993462 0.397766 0.5
74 4 0.0374524 0.372534 0.5
57 3 0.0841672 0.382952 0.5
28 2 0.426898 0.367124 0.5
55 3 0.48797 0.40415 0.5
59 3 0.401159 0.424137 0.5
65 4 0.639284 0.450079 0.5
79 4 0.972665 0.439573 0.5
10 1 0.423349 0.486203 0.5
50 3 0.486353 0.538149 0.5
5 1 0.548315 0.484323 0.5
66 4 0.968658 0.50175 0.5
32 2 0.408319 0.563025 0.5
54 3 0.611988 0.542479 0.5
26 2 0.737468 0.522402 0.5
35 2 0.814849 0.537389 0.5
1 1 0.929052 0.54079 0.5
40 2 0.209999 0.61208 0.5
18 1 0.591279 0.596804 0.5
58 3 0.53365 0.637609 0.5
48 3 0.740513 0.609127 0.5
3 1 0.858254 0.597237 0.5
47 3 0.0463889 0.658085 0.5
27 2 0.315498 0.666576 0.5
42 3 0.471686 0.650365 0.5
12 1 0.779672 0.672799 0.5
49 3 0.252487 0.687372 0.5
8 1 0.37713 0.697745 0.5
14 1 0.458445 0.729429 0.5
9 1 0.875685 0.696481 0.5
22 2 0.196752 0.735397 0.5
30 2 0.252134 0.781336 0.5
20 1 0.327725 0.764385 0.5
11 1 0.984458 0.787483 0.5
61 4 0.212184 0.823614 0.5
21 2 0.638832 0.84888 0.5
67 4 0.695709 0.821049 0.5
41 3 0.227919 0.87956 0.5
51 3 0.0171674 0.900304 0.5
34 2 0.0785348 0.938249 0.5
53 3 0.539389 0.917794 0.5
25 2 0.715217 0.912755 0.5
43 3 0.159868 0.0131761 0.5
52 3 0.149189 0.951102 0.5
7 1 0.384957 0.978526 0.5
36 2 0.504865 0.980846 0.5
4 1 0.650178 0.963554 0.5
75 4 0.578191 0.946547 0.5
71 4 0.667904 0.986802 0.5
23 2 0.784808 0.957228 0.5
78 4 0.924375 0.974662 0.5
ITEM: TIMESTEP
120
ITEM: NUMBER OF ATOMS
80
ITEM: BOX BOUNDS pp pp pp
-6.5678583207585284e+00 6.5678583207585284e+00
-6.5678583207585284e+00 6.5678583207585284e+00
-1.0000000000000001e-01 1.0000000000000001e-01
ITEM: ATOMS id type xs ys zs
17 1 0.719216 0.035758 0.5
31 2 0.289349 0.0847697 0.5
72 4 0.778589 0.0827354 0.5
29 2 0.965587 0.0683051 0.5
69 4 0.131235 0.147109 0.5
38 2 0.664465 0.129879 0.5
2 1 0.802483 0.161199 0.5
63 4 0.866648 0.102622 0.5
44 3 0.913001 0.0717659 0.5
76 4 0.916321 0.136639 0.5
77 4 0.946347 0.134893 0.5
37 2 0.183654 0.191491 0.5
6 1 0.325637 0.190172 0.5
24 2 0.415907 0.145628 0.5
56 3 0.771934 0.218689 0.5
70 4 0.73676 0.173341 0.5
62 4 0.89262 0.171231 0.5
13 1 0.946699 0.218708 0.5
64 4 0.0515774 0.220888 0.5
80 4 0.495197 0.250502 0.5
16 1 0.0720531 0.285769 0.5
33 2 0.362793 0.290036 0.5
68 4 0.480857 0.300498 0.5
45 3 0.0088104 0.324998 0.5
19 1 0.169645 0.331335 0.5
39 2 0.549064 0.399296 0.5
73 4 0.529609 0.329512 0.5
15 1 0.621781 0.322445 0.5
60 3 0.867872 0.329066 0.5
46 3 0.991856 0.398574 0.5
74 4 0.0390121 0.371978 0.5
57 3 0.084236 0.38449 0.5
28 2 0.423768 0.362742 0.5
55 3 0.492449 0.405953 0.5
59 3 0.398577 0.423499 0.5
65 4 0.639284 0.450079 0.5
79 4 0.972277 0.440262 0.5
10 1 0.423548 0.486818 0.5
50 3 0.484046 0.540892 0.5
5 1 0.550914 0.481641 0.5