LAMMPS data file via write_data, version 23 Jun 2022, timestep = 10000

80 atoms
4 atom types

-4.811585983758208 4.811585983758208 xlo xhi
-4.811585983758208 4.811585983758208 ylo yhi
-0.1 0.1 zlo zhi

Atoms # sphere

25 2 1.3 0.4551661356395083 -4.506131728890326 -4.516911741744355 0 0 0 0
43 3 1 1 -3.5646792257095568 -4.052642941345618 0 0 1 0
9 1 1.6 0.2441406249999999 -2.324529973787915 -3.844387606518522 0 0 1 0
7 1 1.6 0.2441406249999999 -0.9980137042805493 -4.604200075654195 0 0 1 0
15 1 1.6 0.2441406249999999 0.23939782427268774 -3.6544510709691305 0 0 0 0
44 3 1 1 1.2026155378836867 -4.364483881543287 0 -1 1 0
13 1 1.6 0.2441406249999999 2.4231930613811015 4.747791002627114 0 0 0 0
79 4 0.7 2.915451895043732 3.690534634573094 -4.63702645060901 0 0 0 0
75 4 0.7 2.915451895043732 4.192189460241568 -4.2302942316600625 0 -1 0 0
50 3 1 1 -3.968081817523991 -3.2077181190213437 0 1 0 0
34 2 1.3 0.4551661356395083 -3.102301208826904 -2.780024924018539 0 0 0 0
70 4 0.7 2.915451895043732 -2.335750759040896 -2.8775591754310104 0 0 1 0
16 1 1.6 0.2441406249999999 -1.1851765733931274 -3.0171186597993587 0 0 1 0
24 2 1.3 0.4551661356395083 1.0434500016949153 -2.4467090299823755 0 0 0 0
37 2 1.3 0.4551661356395083 1.7928010322902415 -3.6075722629945735 0 0 0 0
29 2 1.3 0.4551661356395083 3.302308960224064 -3.760759081269081 0 0 0 0
17 1 1.6 0.2441406249999999 4.499413625048856 -3.0180232262285562 0 0 0 0
26 2 1.3 0.4551661356395083 -4.145033797602559 -2.132309089255452 0 1 0 0
59 3 1 1 -2.21442664694696 -2.18534751840632 0 0 0 0
23 2 1.3 0.4551661356395083 -0.8734597188893027 -1.8680663021163348 0 0 0 0
46 3 1 1 -0.0777234475058588 -2.5721047904426175 0 0 0 0
4 1 1.6 0.2441406249999999 2.395464244493902 -2.3902454347587394 0 0 0 0
76 4 0.7 2.915451895043732 3.426344431051831 -2.7835783921623 0 0 0 0
54 3 1 1 -4.392107336803562 -1.1920844770933883 0 0 0 0
20 1 1.6 0.2441406249999999 -3.103273552319075 -1.4074199547157646 0 1 0 0
71 4 0.7 2.915451895043732 -1.7246210582973611 -1.4279369989317647 0 1 0 0
31 2 1.3 0.4551661356395083 0.5860017820125201 -1.34899491352536 0 1 0 0
68 4 0.7 2.915451895043732 -0.41631815093419355 -1.1429154801413914 0 0 0 0
41 3 1 1 1.559213225327425 -1.4985916507028287 0 -1 0 0
66 4 0.7 2.915451895043732 2.3114592409829626 -1.3389087437409826 0 0 0 0
64 4 0.7 2.915451895043732 3.137332245379751 -1.6323988251270363 0 -1 -1 0
62 4 0.7 2.915451895043732 3.4466832780884804 -2.2674181035878127 0 0 0 0
18 1 1.6 0.2441406249999999 4.182911367428286 -1.4319746746591364 0 0 0 0
69 4 0.7 2.915451895043732 -4.0130251442773455 -0.5885881195015763 0 1 0 0
40 2 1.3 0.4551661356395083 -2.8820716122407704 -0.20631124397001432 0 0 0 0
72 4 0.7 2.915451895043732 -2.228465742248096 -0.8448025196785878 0 1 0 0
32 2 1.3 0.4551661356395083 -1.2092850863607092 -0.717211434810725 0 1 0 0
55 3 1 1 -0.5614645732498857 0.7298168806081895 0 0 0 0
1 1 1.6 0.2441406249999999 0.11031755815776201 -0.1788244313124272 0 0 0 0
63 4 0.7 2.915451895043732 0.8425099865232601 0.48348583152971436 0 0 0 0
6 1 1.6 0.2441406249999999 1.5013139879250685 -0.27949528681263036 0 0 0 0
2 1 1.6 0.2441406249999999 2.982626926868334 -0.4237747145442654 0 0 0 0
28 2 1.3 0.4551661356395083 4.233608872165533 0.04099389514679075 0 0 0 0
8 1 1.6 0.2441406249999999 -3.98751643103029 0.4321183924235914 0 1 0 0
22 2 1.3 0.4551661356395083 -2.818547085441107 1.163679993258512 0 0 0 0
10 1 1.6 0.2441406249999999 -1.7269303994618928 0.665007574209552 0 0 0 0
27 2 1.3 0.4551661356395083 -0.6987065589757195 1.654919321808051 0 0 0 0
60 3 1 1 0.2339197774030808 1.1344685135331272 0 0 0 0
14 1 1.6 0.2441406249999999 1.5766918510948562 1.2333631748196003 0 0 0 0
78 4 0.7 2.915451895043732 2.53550133339838 1.4976821617336018 0 0 -1 0
19 1 1.6 0.2441406249999999 3.325010374792999 0.997625870626015 0 0 0 0
38 2 1.3 0.4551661356395083 4.63122863730508 1.331295330782531 0 0 0 0
51 3 1 1 -3.785193277447651 1.6371152786055978 0 1 0 0
30 2 1.3 0.4551661356395083 -3.3039583157077437 2.579957622120662 0 1 0 0
11 1 1.6 0.2441406249999999 -1.9347117691058062 2.177739683270458 0 1 0 0
49 3 1 1 -0.783841726489702 2.763079397665238 0 0 0 0
12 1 1.6 0.2441406249999999 0.4224513574949862 2.308548028656946 0 0 -1 0
53 3 1 1 1.5626888890189727 2.3776802282002487 0 0 -1 0
3 1 1.6 0.2441406249999999 2.7248943016677964 2.4410265806716307 0 0 -1 0
80 4 0.7 2.915451895043732 -4.591311527390143 2.068005966961616 0 1 0 0
36 2 1.3 0.4551661356395083 3.995271963870417 2.483694597689005 0 -1 0 0
33 2 1.3 0.4551661356395083 -4.4349203228007585 3.0463152299572513 0 0 0 0
61 4 0.7 2.915451895043732 -2.5228647550230128 3.3327684914279985 0 0 0 0
21 2 1.3 0.4551661356395083 -1.5397755793257635 3.4729505712877096 0 0 -1 0
5 1 1.6 0.2441406249999999 -0.20568112857860665 3.8095525006380893 0 0 -1 0
57 3 1 1 1.0613724702662743 3.310442003630465 0 0 0 0
77 4 0.7 2.915451895043732 1.876818010178238 3.2703061917120237 0 -1 0 0
48 3 1 1 2.4406566540600974 3.658125703138145 0 0 0 0
58 3 1 1 3.3591056269594493 3.580385767364623 0 -1 0 0
56 3 1 1 4.347046162248887 3.622969727807849 0 -1 0 0
42 3 1 1 -4.448388277012393 4.255626783874392 0 0 0 0
52 3 1 1 -3.5076895574168523 4.5859532101097376 0 0 -1 0
47 3 1 1 -3.670362926817917 3.6797928782719698 0 0 0 0
65 4 0.7 2.915451895043732 -2.9320770977029467 3.845462268672023 0 1 0 0
35 2 1.3 0.4551661356395083 -2.231196408449417 4.385084999146176 0 0 -1 0
67 4 0.7 2.915451895043732 -0.04380385944718679 -4.724330367598321 0 0 0 0
73 4 0.7 2.915451895043732 0.44727400490419544 -4.6979712475732995 0 0 1 0
39 2 1.3 0.4551661356395083 1.0860840626690695 4.246803611502223 0 0 0 0
74 4 0.7 2.915451895043732 3.6600440635813296 4.349582852985451 0 0 0 0
45 3 1 1 4.306353091337698 4.589392058938076 0 -1 0 0

Velocities

25 0.040879811966496635 -0.07941728617114975 0 0 0 0
43 0.06932565414986025 0.03593499075697698 0 0 0 0
9 -0.13331978425172614 -0.12976892819862412 0 0 0 0
7 -0.0705639998760793 0.05224617016074504 0 0 0 0
15 0.03502164639750592 -0.00606248049628422 0 0 0 0
44 -0.03462841050508742 0.050552002456089054 0 0 0 0
13 -0.03897696399130511 0.17616108173411377 0 0 0 0
79 0.08463007648820452 -0.04228898298889407 0 0 0 0
75 0.07329128226425873 -0.0028316193592081884 0 0 0 0
50 -0.11415032424390349 0.07795952104836494 0 0 0 0
34 0.07487745852826147 0.12800128283705156 0 0 0 0
70 -0.021480327109300486 -0.047043491670799846 0 0 0 0
16 -0.1575307555860428 0.12771261948210988 0 0 0 0
24 -0.06834596925366214 0.028664144019439033 0 0 0 0
37 0.04762273040235454 -0.13243966497389328 0 0 0 0
29 -0.01906320904754551 -0.023467157728801764 0 0 0 0
17 -0.1661447066074703 -0.008935258991919227 0 0 0 0
26 -0.07987647187535343 0.09122599321067526 0 0 0 0
59 -0.024288697125240306 -0.10249221931817441 0 0 0 0
23 0.029641346324964964 -0.1138950566855742 0 0 0 0
46 0.019481567057884158 0.07562382230466005 0 0 0 0
4 0.1114117224021627 0.06892492867374764 0 0 0 0
76 -0.08914377908947754 -0.16051241068616404 0 0 0 0
54 -0.15188417760524728 0.07262224322718311 0 0 0 0
20 -0.14386583772420297 -0.10807692113768454 0 0 0 0
71 0.14868972612304504 0.04889237077680045 0 0 0 0
31 0.06282907010740742 -0.061802765141055996 0 0 0 0
68 0.1899693956231709 0.12920789991866802 0 0 0 0
41 -0.04819031793823506 0.10856106806611009 0 0 0 0
66 -0.04841783014375523 -0.07704153132608468 0 0 0 0
64 0.0458525794321586 -0.06347889797401719 0 0 0 0
62 0.17209707836812072 -0.09531749706234494 0 0 0 0
18 0.14117267278596507 -0.014880323311618687 0 0 0 0
69 0.13662509538871942 0.19063414153369743 0 0 0 0
40 -0.1351326425313514 0.056229244361051756 0 0 0 0
72 0.1435872050252429 -0.23463425222186443 0 0 0 0
32 -0.0906916552685378 0.048886869327920406 0 0 0 0
55 0.21771274320263084 0.15159626002407797 0 0 0 0
1 -0.1306144095784133 0.11645257086691244 0 0 0 0
63 0.014710537734927675 -0.01260270073939608 0 0 0 0
6 -0.12252942740061314 -0.048052714633362095 0 0 0 0
2 0.093958650442797 -0.013818831346207833 0 0 0 0
28 0.14886652410623305 -0.00626484582536964 0 0 0 0
8 -0.166517860451069 -0.0385689163890775 0 0 0 0
22 0.03330245817038826 -0.10328527844870422 0 0 0 0
10 -0.04053661033881154 0.03647601411184653 0 0 0 0
27 -0.018130537495510628 -0.1445915116625139 0 0 0 0
60 -0.01200873384981048 -0.19674711936862638 0 0 0 0
14 -0.0964635379220753 0.0035094754300705835 0 0 0 0
78 -0.09902779669475348 0.1300110574117898 0 0 0 0
19 0.08432842119789785 -0.04007466193118917 0 0 0 0
38 0.07449273578414718 -0.07813528821671979 0 0 0 0
51 -0.14534344983727182 -0.02822892512284057 0 0 0 0
30 -0.06388026946262942 0.009895855340985698 0 0 0 0
11 0.04575140357016629 -0.054236432834114834 0 0 0 0
49 0.11334660694176735 0.16843415173421744 0 0 0 0
12 -0.03275267730307634 0.11083501705154908 0 0 0 0
53 -0.038623990072708565 0.13202704788484365 0 0 0 0
3 0.05875052446998487 -0.12902612465124336 0 0 0 0
80 -0.045009115556453094 0.10321900117191352 0 0 0 0
36 0.07346719274635288 0.10734564990766256 0 0 0 0
33 0.15661360743969732 -0.11561220398483109 0 0 0 0
61 -0.02466800916302045 -0.09836465014689173 0 0 0 0
21 0.09354151419275436 0.08405193321324765 0 0 0 0
5 -0.04742986954306252 0.026442834360623467 0 0 0 0
57 0.0636797686929494 0.044877772652202 0 0 0 0
77 -0.13026591585926534 0.040031349096465586 0 0 0 0
48 0.006040582941726298 0.04955876410880086 0 0 0 0
58 0.015845350140142204 0.05434926397447223 0 0 0 0
56 0.06655316854633944 0.07184910058475712 0 0 0 0
42 -0.28408388718130484 0.04772607948154567 0 0 0 0
52 0.029461757283516802 -0.05080604084731509 0 0 0 0
47 -0.03913449066776823 -0.06478843096308905 0 0 0 0
65 0.1470781602039023 -0.13306931460080243 0 0 0 0
35 0.15945692919843169 0.03937602470408098 0 0 0 0
67 0.20116611658277933 -0.013680767837512216 0 0 0 0
73 -0.030024828277176122 0.031523980290075436 0 0 0 0
39 -0.14513109857696088 -0.016962849371331083 0 0 0 0
74 -0.19410973220867675 -0.19705890455406833 0 0 0 0
45 0.016851234788632534 -0.03926633837818854 0 0 0 0
