LAMMPS data file.

     52 atoms
    115 bonds
      0 angles
      0 dihedrals
      0 impropers
      1 atom types
    115 bond types
      0 angle types
      0 dihedral types
      0 improper types
  -4.811586   4.811586 xlo xhi
  -4.811586   4.811586 ylo yhi
  -0.100000   0.100000 zlo zhi

Masses # ['atom_id', 'mass']

1 10000.0

Atoms # ['atomID', 'moleculeID', 'atomType', 'charge', 'x', 'y', 'z']

     25      1      1   0.000000  -4.506132  -4.516912   0.000000
     43      1      1   0.000000  -3.564679  -4.052643   0.000000
      9      1      1   0.000000  -2.324530  -3.844388   0.000000
      7      1      1   0.000000  -0.998014  -4.604200   0.000000
     15      1      1   0.000000   0.239398  -3.654451   0.000000
     44      1      1   0.000000   1.202616  -4.364484   0.000000
     79      1      1   0.000000   3.690535  -4.637026   0.000000
     75      1      1   0.000000   4.192189  -4.230294   0.000000
     50      1      1   0.000000  -3.968082  -3.207718   0.000000
     34      1      1   0.000000  -3.102301  -2.780025   0.000000
     70      1      1   0.000000  -2.335751  -2.877559   0.000000
     16      1      1   0.000000  -1.185177  -3.017119   0.000000
     24      1      1   0.000000   1.043450  -2.446709   0.000000
     29      1      1   0.000000   3.302309  -3.760759   0.000000
     17      1      1   0.000000   4.499414  -3.018023   0.000000
     26      1      1   0.000000  -4.145034  -2.132309   0.000000
     59      1      1   0.000000  -2.214427  -2.185348   0.000000
     23      1      1   0.000000  -0.873460  -1.868066   0.000000
     46      1      1   0.000000  -0.077723  -2.572105   0.000000
      4      1      1   0.000000   2.395464  -2.390245   0.000000
     76      1      1   0.000000   3.426344  -2.783578   0.000000
     20      1      1   0.000000  -3.103274  -1.407420   0.000000
     31      1      1   0.000000   0.586002  -1.348995   0.000000
     68      1      1   0.000000  -0.416318  -1.142915   0.000000
     41      1      1   0.000000   1.559213  -1.498592   0.000000
     66      1      1   0.000000   2.311459  -1.338909   0.000000
     32      1      1   0.000000  -1.209285  -0.717211   0.000000
     55      1      1   0.000000  -0.561465   0.729817   0.000000
      1      1      1   0.000000   0.110318  -0.178824   0.000000
     63      1      1   0.000000   0.842510   0.483486   0.000000
      6      1      1   0.000000   1.501314  -0.279495   0.000000
      2      1      1   0.000000   2.982627  -0.423775   0.000000
     10      1      1   0.000000  -1.726930   0.665008   0.000000
     27      1      1   0.000000  -0.698707   1.654919   0.000000
     60      1      1   0.000000   0.233920   1.134469   0.000000
     14      1      1   0.000000   1.576692   1.233363   0.000000
     78      1      1   0.000000   2.535501   1.497682   0.000000
     19      1      1   0.000000   3.325010   0.997626   0.000000
     11      1      1   0.000000  -1.934712   2.177740   0.000000
     49      1      1   0.000000  -0.783842   2.763079   0.000000
     12      1      1   0.000000   0.422451   2.308548   0.000000
     53      1      1   0.000000   1.562689   2.377680   0.000000
      3      1      1   0.000000   2.724894   2.441027   0.000000
     21      1      1   0.000000  -1.539776   3.472951   0.000000
      5      1      1   0.000000  -0.205681   3.809553   0.000000
     42      1      1   0.000000  -4.448388   4.255627   0.000000
     52      1      1   0.000000  -3.507690   4.585953   0.000000
     35      1      1   0.000000  -2.231196   4.385085   0.000000
     67      1      1   0.000000  -0.043804  -4.724330   0.000000
     73      1      1   0.000000   0.447274  -4.697971   0.000000
     39      1      1   0.000000   1.086084   4.246804   0.000000
     45      1      1   0.000000   4.306353   4.589392   0.000000

Bond Coeffs # ['bondID', 'bondCoeff', 'd']

      1   0.828626   1.098552
      2   1.155307   0.930361
      3   1.155307   0.930361
      4   1.518320   0.811556
      5   0.707096   1.189216
      6   0.716733   1.181194
      7   0.671344   1.220471
      8   0.428903   1.526935
      9   0.410576   1.560642
     10   1.151674   0.931827
     11   1.151674   0.931827
     12   1.255683   0.892401
     13   0.401882   1.577433
     14   0.763328   1.144575
     15   0.503850   1.408800
     16   0.427906   1.528712
     17   0.537679   1.363762
     18   1.031439   0.984642
     19   0.984094   1.008049
     20   0.528232   1.375903
     21   0.504636   1.407702
     22   0.504414   1.408013
     23   0.410980   1.559875
     24   0.875686   1.068626
     25   0.809542   1.111426
     26   0.699606   1.195565
     27   1.144976   0.934548
     28   0.785698   1.128164
     29   0.828884   1.098381
     30   0.929927   1.036992
     31   0.858415   1.079323
     32   0.876685   1.068017
     33   0.409242   1.563184
     34   0.451446   1.488323
     35   0.963865   1.018572
     36   0.963865   1.018572
     37   0.573924   1.319997
     38   0.898985   1.054687
     39   0.573924   1.319997
     40   4.134755   0.491785
     41   0.841881   1.089870
     42   0.545391   1.354085
     43   0.593745   1.297777
     44   2.024798   0.702763
     45   0.435840   1.514735
     46   0.738152   1.163930
     47   0.520142   1.386561
     48   0.520142   1.386561
     49   0.885844   1.062481
     50   1.080184   0.962169
     51   1.069652   0.966894
     52   0.601778   1.289086
     53   0.816430   1.106727
     54   0.776436   1.134873
     55   1.360874   0.857218
     56   0.705473   1.190583
     57   1.690981   0.769008
     58   0.632375   1.257514
     59   1.674726   0.772731
     60   1.030644   0.985021
     61   0.883278   1.064024
     62   0.626734   1.263160
     63   1.466803   0.825684
     64   1.143315   0.935227
     65   1.028132   0.986224
     66   1.028132   0.986224
     67   0.575442   1.318255
     68   1.863427   0.732561
     69   0.729090   1.171141
     70   0.729090   1.171141
     71   0.788889   1.125880
     72   0.788889   1.125880
     73   1.863427   0.732561
     74   0.467813   1.462055
     75   0.669182   1.222441
     76   0.702006   1.193520
     77   0.620837   1.269145
     78   0.907541   1.049704
     79   0.698356   1.196635
     80   1.088656   0.958417
     81   1.140730   0.936286
     82   1.006006   0.997010
     83   1.081822   0.961440
     84   1.081822   0.961440
     85   0.512529   1.396821
     86   0.783134   1.130009
     87   0.707210   1.189120
     88   0.546111   1.353193
     89   0.512529   1.396821
     90   1.375683   0.852591
     91   1.375683   0.852591
     92   0.530773   1.372605
     93   1.066668   0.968245
     94   1.066668   0.968245
     95   0.786139   1.127847
     96   1.234537   0.900011
     97   0.766330   1.142331
     98   0.555232   1.342032
     99   1.010938   0.994575
    100   0.733939   1.167266
    101   0.514137   1.394635
    102   1.081142   0.961742
    103   2.397572   0.645824
    104   0.763558   1.144403
    105   0.663646   1.227529
    106   0.391565   1.598079
    107   0.492317   1.425206
    108   0.695775   1.198852
    109   0.490877   1.427294
    110   0.907986   1.049447
    111   1.025893   0.987300
    112   0.599835   1.291172
    113   1.072389   0.965659
    114   1.518320   0.811556
    115   0.821406   1.103370

Bonds # ['ID', 'type', 'atom1', 'atom2']

         1         1        68         1
         2         2        42        45
         3         3        45        42
         4         4        75        45
         5         5        24        31
         6         6        59        20
         7         7        41         6
         8         8        10        11
         9         9        15        16
        10        10        73        39
        11        11        39        73
        12        12        55        60
        13        13        14        12
        14        14        21        35
        15        15        29        17
        16        16         9         7
        17        17         5        39
        18        18        31        41
        19        19        63         6
        20        20        21         5
        21        21        31         6
        22        22         9        16
        23        23         7        15
        24        24        34        59
        25        25        27        49
        26        26        49         5
        27        27        78        19
        28        28        24        46
        29        29        17        76
        30        30        49        21
        31        31        24        41
        32        32        27        60
        33        33        19         3
        34        34         6         2
        35        35        44        39
        36        36        39        44
        37        37        17        26
        38        38         4        66
        39        39        26        17
        40        40        67        73
        41        41        50        26
        42        42        11        21
        43        43        27        12
        44        44        70        59
        45        45         6        14
        46        46        53         3
        47        47         7        35
        48        48        35         7
        49        49        23        46
        50        50        78         3
        51        51         9        70
        52        52        49        12
        53        53        15        67
        54        54        66         2
        55        55        23        68
        56        56        16        23
        57        57        41        66
        58        58        43         9
        59        59        34        70
        60        60        29        76
        61        61        15        73
        62        62        31         1
        63        63        44        73
        64        64        55        27
        65        65        43        52
        66        66        52        43
        67        67         9        34
        68        68        79        45
        69        69        50        17
        70        70        17        50
        71        71        25        52
        72        72        52        25
        73        73        45        79
        74        74         2        19
        75        75         4        41
        76        76        16        46
        77        77        26        20
        78        78        25        43
        79        79        15        44
        80        80        79        29
        81        81        43        50
        82        82        42        52
        83        83        25        45
        84        84        45        25
        85        85         9        35
        86        86        55         1
        87        87        60        12
        88        88        24         4
        89        89        35         9
        90        90        25        42
        91        91        42        25
        92        92        34        20
        93        93        25        75
        94        94        75        25
        95        95        15        46
        96        96        68        32
        97        97        12        53
        98        98        27        11
        99        99        14        78
       100       100        55        10
       101       101         1         6
       102       102         7        67
       103       103        79        75
       104       104        14        53
       105       105        34        26
       106       106         7        16
       107       107        32         1
       108       108        23        32
       109       109        10        27
       110       110        63        14
       111       111         1        63
       112       112        11        49
       113       113        50        34
       114       114        45        75
       115       115         4        76
