ITEM: TIMESTEP
0
ITEM: NUMBER OF ATOMS
80
ITEM: BOX BOUNDS pp pp pp
-1.0000000000000000e+01 1.0000000000000000e+01
-1.0000000000000000e+01 1.0000000000000000e+01
-1.0000000000000001e-01 1.0000000000000001e-01
ITEM: ATOMS id type xs ys zs
46 3 0.296248 0.0484597 0.5
23 2 0.481944 0.0255548 0.5
12 1 0.625039 0.0247031 0.5
35 2 0.760994 0.0328772 0.5
25 2 0.348014 0.0660079 0.5
68 4 0.390437 0.0757885 0.5
79 4 0.660979 0.0695801 0.5
53 3 0.689657 0.0625964 0.5
59 3 0.0670052 0.157193 0.5
75 4 0.280426 0.117323 0.5
78 4 0.4046 0.109488 0.5
67 4 0.679129 0.115157 0.5
18 1 0.687041 0.106467 0.5
5 1 0.798486 0.14894 0.5
76 4 0.964725 0.133362 0.5
64 4 0.2649 0.176326 0.5
10 1 0.3623 0.182061 0.5
69 4 0.598036 0.189218 0.5
37 2 0.708467 0.20818 0.5
26 2 0.77094 0.181178 0.5
3 1 0.945094 0.19943 0.5
24 2 0.509743 0.248076 0.5
17 1 0.972585 0.237912 0.5
20 1 0.961696 0.227103 0.5
77 4 0.366292 0.272626 0.5
15 1 0.411394 0.305247 0.5
55 3 0.401218 0.268235 0.5
32 2 0.874176 0.268107 0.5
28 2 0.940101 0.275707 0.5
71 4 0.955868 0.280217 0.5
6 1 0.151861 0.3245 0.5
21 2 0.392179 0.360247 0.5
29 2 0.46673 0.326926 0.5
30 2 0.651652 0.320349 0.5
40 2 0.157757 0.414075 0.5
9 1 0.384207 0.372547 0.5
62 4 0.731565 0.408954 0.5
14 1 0.814743 0.391173 0.5
52 3 0.840148 0.37156 0.5
4 1 0.457692 0.421568 0.5
60 3 0.54367 0.454268 0.5
31 2 0.932794 0.462747 0.5
1 1 0.749183 0.523955 0.5
72 4 0.788334 0.524816 0.5
74 4 0.786546 0.486193 0.5
41 3 0.00485149 0.538919 0.5
61 4 0.16205 0.567228 0.5
22 2 0.413255 0.576045 0.5
50 3 0.926849 0.553845 0.5
47 3 0.445266 0.589571 0.5
66 4 0.643457 0.585907 0.5
2 1 0.834927 0.610967 0.5
38 2 0.935122 0.589201 0.5
34 2 0.193828 0.666372 0.5
43 3 0.217331 0.675406 0.5
11 1 0.986354 0.64349 0.5
58 3 0.112376 0.705457 0.5
63 4 0.37554 0.694771 0.5
33 2 0.0889955 0.746743 0.5
16 1 0.280346 0.776596 0.5
65 4 0.971247 0.753168 0.5
54 3 0.126663 0.826214 0.5
45 3 0.200561 0.824957 0.5
51 3 0.391553 0.827965 0.5
19 1 0.816612 0.804177 0.5
44 3 0.0940591 0.850659 0.5
56 3 0.14981 0.853898 0.5
36 2 0.366088 0.843189 0.5
7 1 0.515135 0.867539 0.5
48 3 0.780085 0.88891 0.5
8 1 0.893905 0.859915 0.5
27 2 0.613369 0.898887 0.5
49 3 0.594211 0.902427 0.5
39 2 0.873084 0.917783 0.5
13 1 0.91747 0.918708 0.5
70 4 0.00523508 0.986031 0.5
42 3 0.470814 0.978343 0.5
73 4 0.735702 0.948162 0.5
80 4 0.765157 0.997856 0.5
57 3 0.833163 0.970793 0.5
ITEM: TIMESTEP
10
ITEM: NUMBER OF ATOMS
80
ITEM: BOX BOUNDS pp pp pp
-9.2722819326917669e+00 9.2722819326917669e+00
-9.2722819326917669e+00 9.2722819326917669e+00
-1.0000000000000001e-01 1.0000000000000001e-01
ITEM: ATOMS id type xs ys zs
46 3 0.296236 0.0484555 0.5
23 2 0.481952 0.0255892 0.5
12 1 0.625037 0.0247008 0.5
35 2 0.760988 0.0329326 0.5
25 2 0.348001 0.0660064 0.5
68 4 0.390462 0.0757942 0.5
79 4 0.660905 0.0695553 0.5
53 3 0.689709 0.0625054 0.5
59 3 0.0670052 0.157193 0.5
75 4 0.280426 0.117323 0.5
78 4 0.4046 0.109488 0.5
67 4 0.679015 0.115282 0.5
18 1 0.687178 0.10646 0.5
5 1 0.798559 0.148854 0.5
76 4 0.964725 0.133362 0.5
64 4 0.2649 0.176326 0.5
10 1 0.3623 0.182061 0.5
69 4 0.598036 0.189218 0.5
37 2 0.708467 0.20818 0.5
26 2 0.770867 0.181263 0.5
3 1 0.944932 0.199178 0.5
24 2 0.509743 0.248076 0.5
17 1 0.972898 0.238071 0.5
20 1 0.96165 0.227002 0.5
77 4 0.366256 0.272624 0.5
15 1 0.411411 0.305249 0.5
55 3 0.40122 0.268135 0.5
32 2 0.874175 0.268107 0.5
28 2 0.939897 0.275805 0.5
71 4 0.955969 0.280311 0.5
6 1 0.151861 0.3245 0.5
21 2 0.392277 0.36012 0.5
29 2 0.466777 0.326945 0.5
30 2 0.651652 0.320349 0.5
40 2 0.157757 0.414075 0.5
9 1 0.38408 0.372754 0.5
62 4 0.731565 0.408954 0.5
14 1 0.814646 0.391248 0.5
52 3 0.840245 0.371485 0.5
4 1 0.457692 0.421568 0.5
60 3 0.54367 0.454268 0.5
31 2 0.932794 0.462747 0.5
1 1 0.749101 0.523967 0.5
72 4 0.788403 0.524817 0.5
74 4 0.78656 0.48618 0.5
41 3 0.00485149 0.538919 0.5
61 4 0.16205 0.567228 0.5
22 2 0.413176 0.576012 0.5
50 3 0.926831 0.553768 0.5
47 3 0.445345 0.589604 0.5
66 4 0.643457 0.585907 0.5
2 1 0.834927 0.610967 0.5
38 2 0.935139 0.589278 0.5
34 2 0.193716 0.666329 0.5
43 3 0.217443 0.675449 0.5
11 1 0.986354 0.643491 0.5
58 3 0.112395 0.705422 0.5
63 4 0.37554 0.694771 0.5
33 2 0.0889761 0.746777 0.5
16 1 0.280346 0.776596 0.5
65 4 0.971247 0.753168 0.5
54 3 0.126658 0.826151 0.5
45 3 0.200561 0.824957 0.5
51 3 0.391642 0.827912 0.5
19 1 0.816612 0.804177 0.5
44 3 0.0940303 0.850681 0.5
56 3 0.149844 0.853939 0.5
36 2 0.365999 0.843242 0.5
7 1 0.515135 0.867539 0.5
48 3 0.780085 0.88891 0.5
8 1 0.893896 0.859814 0.5
27 2 0.613508 0.898861 0.5
49 3 0.594073 0.902453 0.5
39 2 0.872964 0.917822 0.5
13 1 0.917599 0.91877 0.5
70 4 0.00523508 0.986031 0.5
42 3 0.470806 0.978308 0.5
73 4 0.735702 0.948162 0.5
80 4 0.765164 0.9978 0.5
57 3 0.833163 0.970793 0.5
ITEM: TIMESTEP
20
ITEM: NUMBER OF ATOMS
80
ITEM: BOX BOUNDS pp pp pp
-8.3572900875226370e+00 8.3572900875226370e+00
-8.3572900875226370e+00 8.3572900875226370e+00
-1.0000000000000001e-01 1.0000000000000001e-01
ITEM: ATOMS id type xs ys zs
46 3 0.296167 0.0484321 0.5
23 2 0.481985 0.0257325 0.5
12 1 0.625012 0.0246702 0.5
35 2 0.760963 0.0331429 0.5
25 2 0.347961 0.0660047 0.5
68 4 0.390567 0.0758091 0.5
79 4 0.660641 0.0694771 0.5
53 3 0.689907 0.0621631 0.5
59 3 0.0670052 0.157193 0.5
75 4 0.280426 0.117323 0.5
78 4 0.404604 0.109498 0.5
67 4 0.678613 0.115718 0.5
18 1 0.687672 0.106475 0.5
5 1 0.798827 0.14854 0.5
76 4 0.964725 0.133362 0.5
64 4 0.2649 0.176326 0.5
10 1 0.3623 0.182061 0.5
69 4 0.598036 0.189218 0.5
37 2 0.708448 0.208188 0.5
26 2 0.770617 0.181569 0.5
3 1 0.944347 0.198258 0.5
24 2 0.509743 0.248076 0.5
17 1 0.974035 0.238607 0.5
20 1 0.961503 0.226615 0.5
77 4 0.366092 0.272603 0.5
15 1 0.41149 0.305221 0.5
55 3 0.401238 0.267767 0.5
32 2 0.874142 0.268103 0.5
28 2 0.939178 0.276204 0.5
71 4 0.956315 0.280687 0.5
6 1 0.151861 0.3245 0.5
21 2 0.392611 0.359702 0.5
29 2 0.46697 0.32702 0.5
30 2 0.651652 0.320349 0.5
40 2 0.157757 0.414075 0.5
9 1 0.383614 0.37351 0.5
62 4 0.731565 0.408954 0.5
14 1 0.814297 0.391518 0.5
52 3 0.840595 0.371215 0.5
4 1 0.457697 0.421571 0.5
60 3 0.54367 0.454268 0.5
31 2 0.932794 0.462747 0.5
1 1 0.748777 0.524026 0.5
72 4 0.788663 0.524825 0.5
74 4 0.786623 0.486113 0.5
41 3 0.00485149 0.538919 0.5
61 4 0.16205 0.567228 0.5
22 2 0.412887 0.57589 0.5
50 3 0.926764 0.55348 0.5
47 3 0.445634 0.589726 0.5
66 4 0.643457 0.585907 0.5
2 1 0.834927 0.610967 0.5
38 2 0.935186 0.589543 0.5
34 2 0.193315 0.666174 0.5
43 3 0.217844 0.675603 0.5
11 1 0.986375 0.643513 0.5
58 3 0.112474 0.705283 0.5
63 4 0.37554 0.694771 0.5
33 2 0.0888973 0.746917 0.5
16 1 0.280346 0.776596 0.5
65 4 0.971247 0.753168 0.5
54 3 0.126645 0.825909 0.5
45 3 0.200561 0.824957 0.5
51 3 0.391964 0.827719 0.5
19 1 0.816612 0.804177 0.5
44 3 0.093912 0.850768 0.5
56 3 0.149975 0.854094 0.5
36 2 0.365677 0.843435 0.5
7 1 0.515135 0.867539 0.5
48 3 0.780085 0.88891 0.5
8 1 0.893862 0.859408 0.5
27 2 0.613998 0.898771 0.5
49 3 0.593582 0.902543 0.5
39 2 0.872515 0.917983 0.5
13 1 0.918082 0.919014 0.5
70 4 0.00523508 0.986031 0.5
42 3 0.470773 0.978165 0.5
73 4 0.735702 0.948162 0.5
80 4 0.765189 0.99759 0.5
57 3 0.833163 0.970794 0.5
ITEM: TIMESTEP
30
ITEM: NUMBER OF ATOMS
80
ITEM: BOX BOUNDS pp pp pp
-7.6784801397320628e+00 7.6784801397320628e+00
-7.6784801397320628e+00 7.6784801397320628e+00
-1.0000000000000001e-01 1.0000000000000001e-01
ITEM: ATOMS id type xs ys zs
46 3 0.295985 0.0483702 0.5
23 2 0.48206 0.0260493 0.5
12 1 0.62491 0.024555 0.5
35 2 0.760912 0.0335739 0.5
25 2 0.347896 0.0660095 0.5
68 4 0.390794 0.075817 0.5
79 4 0.660126 0.0693496 0.5
53 3 0.690326 0.0614758 0.5
59 3 0.0670052 0.157193 0.5
75 4 0.280426 0.117323 0.5
78 4 0.404625 0.109547 0.5
67 4 0.677836 0.11654 0.5
18 1 0.688647 0.106583 0.5
5 1 0.79936 0.147917 0.5
76 4 0.964729 0.133351 0.5
64 4 0.2649 0.176326 0.5
10 1 0.3623 0.182061 0.5
69 4 0.598036 0.189218 0.5
37 2 0.708357 0.208227 0.5
26 2 0.770176 0.182154 0.5
3 1 0.943199 0.196424 0.5
24 2 0.509743 0.248076 0.5
17 1 0.976275 0.239579 0.5
20 1 0.961255 0.225818 0.5
77 4 0.365702 0.272539 0.5
15 1 0.411685 0.305093 0.5
55 3 0.401298 0.267027 0.5
32 2 0.874013 0.268087 0.5
28 2 0.937816 0.277094 0.5
71 4 0.956958 0.281485 0.5
6 1 0.151861 0.324498 0.5
21 2 0.393227 0.358964 0.5
29 2 0.467392 0.327185 0.5
30 2 0.651652 0.320349 0.5
40 2 0.157757 0.414077 0.5
9 1 0.382659 0.374982 0.5
62 4 0.731565 0.408954 0.5
14 1 0.813612 0.392046 0.5
52 3 0.841279 0.370687 0.5
4 1 0.45775 0.421606 0.5
60 3 0.54367 0.454268 0.5
31 2 0.932794 0.462747 0.5
1 1 0.748091 0.524172 0.5
72 4 0.789193 0.524862 0.5
74 4 0.786779 0.48593 0.5
41 3 0.00485149 0.538919 0.5
61 4 0.16205 0.567228 0.5
22 2 0.412311 0.575646 0.5
50 3 0.926629 0.552904 0.5
47 3 0.44621 0.58997 0.5
66 4 0.643457 0.585907 0.5
2 1 0.834927 0.610967 0.5
38 2 0.935233 0.590027 0.5
34 2 0.192535 0.665875 0.5
43 3 0.218623 0.675903 0.5
11 1 0.986463 0.643606 0.5
58 3 0.112646 0.70498 0.5
63 4 0.37554 0.694771 0.5
33 2 0.0887255 0.74722 0.5
16 1 0.280346 0.776596 0.5
65 4 0.971247 0.753168 0.5
54 3 0.12663 0.8254 0.5
45 3 0.200572 0.82495 0.5
51 3 0.392597 0.827341 0.5
19 1 0.816601 0.804169 0.5
44 3 0.0936318 0.850956 0.5
56 3 0.150259 0.854422 0.5
36 2 0.365044 0.843813 0.5
7 1 0.515135 0.867539 0.5
48 3 0.780085 0.88891 0.5
8 1 0.893807 0.858541 0.5
27 2 0.614941 0.898596 0.5
49 3 0.592639 0.902718 0.5
39 2 0.871618 0.918322 0.5
13 1 0.919059 0.919531 0.5
70 4 0.00523508 0.986031 0.5
42 3 0.470698 0.977848 0.5
73 4 0.735702 0.948162 0.5
80 4 0.76524 0.997159 0.5
57 3 0.833148 0.970813 0.5
ITEM: TIMESTEP
40
ITEM: NUMBER OF ATOMS
80
ITEM: BOX BOUNDS pp pp pp
-7.1935241925375495e+00 7.1935241925375495e+00
-7.1935241925375495e+00 7.1935241925375495e+00
-1.0000000000000001e-01 1.0000000000000001e-01
ITEM: ATOMS id type xs ys zs
46 3 0.295633 0.0482509 0.5
23 2 0.48219 0.0265991 0.5
12 1 0.624644 0.0242776 0.5
35 2 0.760832 0.0342813 0.5
25 2 0.347807 0.0660278 0.5
68 4 0.391185 0.0757992 0.5
79 4 0.659311 0.0691863 0.5
53 3 0.691051 0.0603762 0.5
59 3 0.0670052 0.157193 0.5
75 4 0.280426 0.117323 0.5
78 4 0.404674 0.109666 0.5
67 4 0.676605 0.117797 0.5
18 1 0.690229 0.106868 0.5
5 1 0.800216 0.146914 0.5
76 4 0.964753 0.133281 0.5
64 4 0.2649 0.176326 0.5
10 1 0.3623 0.182061 0.5
69 4 0.598036 0.189218 0.5
37 2 0.708132 0.208323 0.5
26 2 0.769545 0.183061 0.5
3 1 0.941359 0.193522 0.5
24 2 0.509743 0.248076 0.5
17 1 0.979863 0.241017 0.5
20 1 0.960907 0.224517 0.5
77 4 0.364998 0.272407 0.5
15 1 0.412044 0.304796 0.5
55 3 0.401419 0.265823 0.5
32 2 0.873715 0.268048 0.5
28 2 0.935715 0.278634 0.5
71 4 0.957934 0.282818 0.5
6 1 0.151858 0.324462 0.5
21 2 0.39411 0.357891 0.5
29 2 0.468145 0.327452 0.5
30 2 0.651652 0.320349 0.5
40 2 0.157759 0.414113 0.5
9 1 0.381065 0.377289 0.5
62 4 0.731565 0.408954 0.5
14 1 0.812526 0.392885 0.5
52 3 0.842365 0.369848 0.5
4 1 0.457932 0.421736 0.5
60 3 0.54367 0.454268 0.5
31 2 0.932794 0.462747 0.5
1 1 0.746938 0.524444 0.5
72 4 0.790062 0.524957 0.5
74 4 0.787063 0.485563 0.5
41 3 0.00485149 0.538919 0.5
61 4 0.16205 0.567228 0.5
22 2 0.411382 0.575254 0.5
50 3 0.926411 0.551969 0.5
47 3 0.447139 0.590362 0.5
66 4 0.643457 0.585907 0.5
2 1 0.834927 0.610967 0.5
38 2 0.935245 0.590747 0.5
34 2 0.191306 0.665402 0.5
43 3 0.219853 0.676375 0.5
11 1 0.986668 0.643821 0.5
58 3 0.112941 0.704459 0.5
63 4 0.37554 0.694771 0.5
33 2 0.0884303 0.747741 0.5
16 1 0.280346 0.776596 0.5
65 4 0.971247 0.753168 0.5
54 3 0.126619 0.824544 0.5
45 3 0.200628 0.824918 0.5
51 3 0.393603 0.826739 0.5
19 1 0.816531 0.804119 0.5
44 3 0.0931097 0.851275 0.5
56 3 0.150736 0.854991 0.5
36 2 0.364038 0.844414 0.5
7 1 0.515128 0.867536 0.5
48 3 0.780085 0.88891 0.5
8 1 0.893772 0.857102 0.5
27 2 0.616417 0.898324 0.5
49 3 0.591169 0.902993 0.5
39 2 0.870194 0.918861 0.5
13 1 0.920648 0.920401 0.5
70 4 0.00523508 0.986031 0.5
42 3 0.470568 0.977298 0.5
73 4 0.735702 0.948162 0.5
80 4 0.765324 0.99645 0.5
57 3 0.83309 0.970893 0.5
ITEM: TIMESTEP
50
ITEM: NUMBER OF ATOMS
80
ITEM: BOX BOUNDS pp pp pp
-6.8683542765372447e+00 6.8683542765372447e+00
-6.8683542765372447e+00 6.8683542765372447e+00
-1.0000000000000001e-01 1.0000000000000001e-01
ITEM: ATOMS id type xs ys zs
46 3 0.295072 0.0480602 0.5
23 2 0.482383 0.0274181 0.5
12 1 0.624129 0.0237546 0.5
35 2 0.760757 0.0352778 0.5
25 2 0.347702 0.0660662 0.5
68 4 0.391764 0.0757374 0.5
79 4 0.658178 0.0690129 0.5
53 3 0.692105 0.0588454 0.5
59 3 0.0670052 0.157193 0.5
75 4 0.280426 0.117323 0.5
78 4 0.404761 0.10988 0.5
67 4 0.674879 0.119483 0.5
18 1 0.692504 0.107428 0.5
5 1 0.80142 0.145501 0.5
76 4 0.96482 0.133101 0.5
64 4 0.2649 0.176326 0.5
10 1 0.3623 0.18206 0.5
69 4 0.598036 0.189218 0.5
37 2 0.707722 0.208496 0.5
26 2 0.76875 0.184302 0.5
3 1 0.93876 0.189535 0.5
24 2 0.509747 0.248068 0.5
17 1 0.984908 0.242904 0.5
20 1 0.960491 0.222678 0.5
77 4 0.363921 0.272195 0.5
15 1 0.4126 0.304278 0.5
55 3 0.401616 0.264105 0.5
32 2 0.873164 0.267985 0.5
28 2 0.932864 0.280903 0.5
71 4 0.959238 0.284731 0.5
6 1 0.151851 0.324345 0.5
21 2 0.395184 0.35651 0.5
29 2 0.469327 0.327796 0.5
30 2 0.651652 0.320349 0.5
40 2 0.157767 0.41423 0.5
9 1 0.378739 0.380464 0.5
62 4 0.731564 0.408954 0.5
14 1 0.811014 0.394053 0.5
52 3 0.843878 0.36868 0.5
4 1 0.458319 0.422054 0.5
60 3 0.543672 0.454269 0.5
31 2 0.932794 0.462747 0.5
1 1 0.745262 0.524864 0.5
72 4 0.791301 0.52513 0.5
74 4 0.7875 0.484969 0.5
41 3 0.00485149 0.538919 0.5
61 4 0.16205 0.567228 0.5
22 2 0.410072 0.5747 0.5
50 3 0.926104 0.550643 0.5
47 3 0.44845 0.590916 0.5
66 4 0.643457 0.585907 0.5
2 1 0.834924 0.610968 0.5
38 2 0.935192 0.591693 0.5
34 2 0.189601 0.664747 0.5
43 3 0.221558 0.677031 0.5
11 1 0.987031 0.6442 0.5
58 3 0.113378 0.703687 0.5
63 4 0.37554 0.694771 0.5
33 2 0.0879936 0.748512 0.5
16 1 0.280346 0.776595 0.5
65 4 0.971247 0.753168 0.5
54 3 0.12662 0.823295 0.5
45 3 0.200759 0.82484 0.5
51 3 0.395008 0.825899 0.5
19 1 0.816349 0.803992 0.5
44 3 0.0922932 0.851747 0.5
56 3 0.151421 0.855846 0.5
36 2 0.362633 0.845255 0.5
7 1 0.51508 0.867514 0.5
48 3 0.780085 0.888911 0.5
8 1 0.893805 0.855053 0.5
27 2 0.618451 0.897948 0.5
49 3 0.589184 0.903392 0.5
39 2 0.868219 0.919591 0.5
13 1 0.922904 0.921664 0.5
70 4 0.00523508 0.986031 0.5
42 3 0.470375 0.976479 0.5
73 4 0.735702 0.948162 0.5
80 4 0.765445 0.995433 0.5
57 3 0.832958 0.971075 0.5
ITEM: TIMESTEP
60
ITEM: NUMBER OF ATOMS
80
ITEM: BOX BOUNDS pp pp pp
-6.6508315076670437e+00 6.6508315076670437e+00
-6.6508315076670437e+00 6.6508315076670437e+00
-1.0000000000000001e-01 1.0000000000000001e-01
ITEM: ATOMS id type xs ys zs
46 3 0.294277 0.0477894 0.5
23 2 0.482643 0.0285206 0.5
12 1 0.623305 0.0229315 0.5
35 2 0.760752 0.0365292 0.5
25 2 0.347579 0.0661262 0.5
68 4 0.392547 0.0756171 0.5
79 4 0.656737 0.0688626 0.5
53 3 0.69346 0.0568928 0.5
59 3 0.0670052 0.157193 0.5
75 4 0.280426 0.117323 0.5
78 4 0.404898 0.110208 0.5
67 4 0.672646 0.121557 0.5
18 1 0.695477 0.108329 0.5
5 1 0.802986 0.143679 0.5
76 4 0.964957 0.132768 0.5
64 4 0.2649 0.176326 0.5
10 1 0.362286 0.182038 0.5
69 4 0.598036 0.189218 0.5
37 2 0.707091 0.208782 0.5
26 2 0.767832 0.185867 0.5
3 1 0.935393 0.184542 0.5
24 2 0.509768 0.248027 0.5
17 1 0.991405 0.245194 0.5
20 1 0.960049 0.220322 0.5
77 4 0.362444 0.271902 0.5
15 1 0.413371 0.303506 0.5
55 3 0.401903 0.261871 0.5
32 2 0.872277 0.267906 0.5
28 2 0.929323 0.283894 0.5
71 4 0.960842 0.287211 0.5
6 1 0.151835 0.324109 0.5
21 2 0.39637 0.354873 0.5
29 2 0.47099 0.328206 0.5
30 2 0.651652 0.320349 0.5
40 2 0.157782 0.414465 0.5
9 1 0.37565 0.384477 0.5
62 4 0.731543 0.408958 0.5
14 1 0.8091 0.395543 0.5
52 3 0.845814 0.367186 0.5
4 1 0.458946 0.422624 0.5
60 3 0.543696 0.454278 0.5
31 2 0.932794 0.462747 0.5
1 1 0.74305 0.525442 0.5
72 4 0.792916 0.525395 0.5
74 4 0.788098 0.484127 0.5
41 3 0.00485149 0.538919 0.5
61 4 0.16205 0.567228 0.5
22 2 0.408379 0.573985 0.5
50 3 0.925707 0.54892 0.5
47 3 0.450142 0.591631 0.5
66 4 0.643457 0.585907 0.5
2 1 0.834899 0.610973 0.5
38 2 0.935063 0.592841 0.5
34 2 0.18743 0.663911 0.5
43 3 0.22373 0.677866 0.5
11 1 0.987582 0.64477 0.5
58 3 0.113961 0.702655 0.5
63 4 0.37554 0.694771 0.5
33 2 0.0874067 0.749541 0.5
16 1 0.280356 0.776588 0.5
65 4 0.971247 0.753168 0.5
54 3 0.12664 0.821641 0.5
45 3 0.200977 0.824707 0.5
51 3 0.396808 0.824823 0.5
19 1 0.816018 0.803748 0.5
44 3 0.0911607 0.852378 0.5
56 3 0.152306 0.857012 0.5
36 2 0.360833 0.846332 0.5
7 1 0.514949 0.867451 0.5
48 3 0.780078 0.888926 0.5
8 1 0.893952 0.852406 0.5
27 2 0.621027 0.897471 0.5
49 3 0.586739 0.903931 0.5
39 2 0.865713 0.920479 0.5
13 1 0.925829 0.923329 0.5
70 4 0.00523508 0.986031 0.5
42 3 0.470115 0.975377 0.5
73 4 0.735702 0.948162 0.5
80 4 0.765603 0.994103 0.5
57 3 0.83273 0.971398 0.5
ITEM: TIMESTEP
70
ITEM: NUMBER OF ATOMS
80
ITEM: BOX BOUNDS pp pp pp
-6.5239514386969333e+00 6.5239514386969333e+00
-6.5239514386969333e+00 6.5239514386969333e+00
-1.0000000000000001e-01 1.0000000000000001e-01
ITEM: ATOMS id type xs ys zs
46 3 0.29324 0.0474357 0.5
23 2 0.482968 0.0298988 0.5
12 1 0.622154 0.0217925 0.5
35 2 0.760886 0.0379789 0.5
25 2 0.347433 0.0662037 0.5
68 4 0.393534 0.0754279 0.5
79 4 0.65502 0.0687713 0.5
53 3 0.69506 0.0545504 0.5
59 3 0.0670052 0.157193 0.5
75 4 0.280426 0.117323 0.5
78 4 0.405106 0.110653 0.5
67 4 0.669931 0.123952 0.5
18 1 0.699051 0.109567 0.5
5 1 0.804923 0.141483 0.5
76 4 0.965195 0.132254 0.5
64 4 0.2649 0.176326 0.5
10 1 0.362234 0.181979 0.5
69 4 0.598036 0.189218 0.5
37 2 0.706217 0.209219 0.5
26 2 0.766851 0.187742 0.5
3 1 0.931291 0.178721 0.5
24 2 0.509816 0.24793 0.5
17 1 0.999219 0.247822 0.5
20 1 0.959619 0.217528 0.5
77 4 0.360573 0.271536 0.5
15 1 0.414355 0.302469 0.5
55 3 0.402288 0.259163 0.5
32 2 0.87101 0.267803 0.5
28 2 0.925217 0.287524 0.5
71 4 0.962694 0.290185 0.5
6 1 0.15181 0.323733 0.5
21 2 0.39759 0.353053 0.5
29 2 0.473147 0.328681 0.5
30 2 0.651652 0.320349 0.5
40 2 0.157807 0.414842 0.5
9 1 0.37183 0.389234 0.5
62 4 0.731467 0.408971 0.5
14 1 0.806852 0.397324 0.5
52 3 0.848137 0.365392 0.5
4 1 0.459808 0.423472 0.5
60 3 0.543769 0.454305 0.5
31 2 0.932794 0.462743 0.5
1 1 0.740333 0.52617 0.5
72 4 0.794882 0.525749 0.5
74 4 0.788848 0.483044 0.5
41 3 0.00485149 0.538919 0.5
61 4 0.16205 0.567228 0.5
22 2 0.406331 0.57312 0.5
50 3 0.925228 0.546825 0.5
47 3 0.45219 0.592496 0.5
66 4 0.643457 0.585907 0.5
2 1 0.834823 0.610987 0.5
38 2 0.934862 0.594154 0.5
34 2 0.184853 0.6629 0.5
43 3 0.22633 0.678865 0.5
11 1 0.988338 0.645543 0.5
58 3 0.114667 0.701381 0.5
63 4 0.37554 0.694771 0.5
33 2 0.0866616 0.750797 0.5
16 1 0.280381 0.776552 0.5
65 4 0.971247 0.753168 0.5
54 3 0.12669 0.819617 0.5
45 3 0.201281 0.82452 0.5
51 3 0.398972 0.823529 0.5
19 1 0.815515 0.803352 0.5
44 3 0.0897224 0.853164 0.5
56 3 0.153367 0.858491 0.5
36 2 0.358683 0.847638 0.5
7 1 0.514705 0.867331 0.5
48 3 0.780057 0.888976 0.5
8 1 0.894248 0.849223 0.5
27 2 0.624095 0.896902 0.5
49 3 0.583915 0.90462 0.5
39 2 0.862735 0.921476 0.5
13 1 0.929372 0.925369 0.5
70 4 0.00523508 0.986031 0.5
42 3 0.46979 0.973999 0.5
73 4 0.735702 0.948162 0.5
80 4 0.765795 0.992477 0.5
57 3 0.832392 0.971889 0.5
ITEM: TIMESTEP
80
ITEM: NUMBER OF ATOMS
80
ITEM: BOX BOUNDS pp pp pp
-6.4766225542564149e+00 6.4766225542564149e+00
-6.4766225542564149e+00 6.4766225542564149e+00
-1.0000000000000001e-01 1.0000000000000001e-01
ITEM: ATOMS id type xs ys zs
46 3 0.291974 0.0470027 0.5
23 2 0.48335 0.0315206 0.5
12 1 0.6207 0.0203626 0.5
35 2 0.76121 0.0395588 0.5
25 2 0.347263 0.0662971 0.5
68 4 0.394713 0.075165 0.5
79 4 0.653089 0.0687722 0.5
53 3 0.696816 0.0518753 0.5
59 3 0.0670052 0.157193 0.5
75 4 0.280426 0.117323 0.5
78 4 0.405393 0.111206 0.5
67 4 0.666798 0.126584 0.5
18 1 0.703064 0.111083 0.5
5 1 0.807218 0.13898 0.5
76 4 0.965565 0.131538 0.5
64 4 0.2649 0.176326 0.5
10 1 0.362124 0.181869 0.5
69 4 0.598036 0.189218 0.5
37 2 0.705095 0.209826 0.5
26 2 0.765882 0.189898 0.5
3 1 0.926539 0.17233 0.5
24 2 0.509904 0.247757 0.5
17 1 0.00807685 0.250695 0.5
20 1 0.959233 0.214445 0.5
77 4 0.358353 0.271112 0.5
15 1 0.415526 0.301191 0.5
55 3 0.402765 0.256053 0.5
32 2 0.869368 0.267649 0.5
28 2 0.920737 0.291646 0.5
71 4 0.964725 0.293535 0.5
6 1 0.151776 0.32321 0.5
21 2 0.398774 0.351142 0.5
29 2 0.475774 0.329222 0.5
30 2 0.651652 0.320349 0.5
40 2 0.157841 0.415365 0.5
9 1 0.36738 0.394586 0.5
62 4 0.731309 0.408997 0.5
14 1 0.804367 0.399333 0.5
52 3 0.850782 0.36335 0.5
4 1 0.460872 0.424583 0.5
60 3 0.54391 0.454357 0.5
31 2 0.932797 0.462713 0.5
1 1 0.737191 0.527027 0.5
72 4 0.797144 0.526184 0.5
74 4 0.789727 0.481761 0.5
41 3 0.00485149 0.538919 0.5
61 4 0.16205 0.567228 0.5
22 2 0.403984 0.572128 0.5
50 3 0.924679 0.544429 0.5
47 3 0.454537 0.593488 0.5
66 4 0.643457 0.585907 0.5
2 1 0.834679 0.611012 0.5
38 2 0.934591 0.595583 0.5
34 2 0.181973 0.661726 0.5
43 3 0.229281 0.68 0.5
11 1 0.989298 0.646514 0.5
58 3 0.11545 0.699911 0.5
63 4 0.37554 0.694771 0.5
33 2 0.08576 0.752224 0.5
16 1 0.280422 0.776465 0.5
65 4 0.971247 0.753168 0.5
54 3 0.12678 0.817296 0.5
45 3 0.201665 0.824282 0.5
51 3 0.401439 0.822054 0.5
19 1 0.814829 0.802793 0.5
44 3 0.0880209 0.854089 0.5
56 3 0.154559 0.860257 0.5
36 2 0.356258 0.84915 0.5
7 1 0.514326 0.867138 0.5
48 3 0.780015 0.88907 0.5
8 1 0.894717 0.845616 0.5
27 2 0.627567 0.896257 0.5
49 3 0.580822 0.905458 0.5
39 2 0.859388 0.922513 0.5
13 1 0.93343 0.927726 0.5
70 4 0.00523508 0.986031 0.5
42 3 0.469408 0.972377 0.5
73 4 0.735701 0.94816 0.5
80 4 0.766016 0.990596 0.5
57 3 0.83194 0.972568 0.5
ITEM: TIMESTEP
90
ITEM: NUMBER OF ATOMS
80
ITEM: BOX BOUNDS pp pp pp
-6.4940271864109498e+00 6.4940271864109498e+00
-6.4940271864109498e+00 6.4940271864109498e+00
-1.0000000000000001e-01 1.0000000000000001e-01
ITEM: ATOMS id type xs ys zs
46 3 0.290507 0.0464998 0.5
23 2 0.483778 0.0333359 0.5
12 1 0.619003 0.0186983 0.5
35 2 0.761751 0.0411874 0.5
25 2 0.347073 0.0664072 0.5
68 4 0.396059 0.0748294 0.5
79 4 0.651026 0.0688897 0.5
53 3 0.698628 0.0489414 0.5
59 3 0.0670052 0.157193 0.5
75 4 0.280426 0.117323 0.5
78 4 0.405755 0.11185 0.5
67 4 0.663341 0.129361 0.5
18 1 0.707325 0.112788 0.5
5 1 0.809825 0.136259 0.5
76 4 0.966093 0.130621 0.5
64 4 0.2649 0.176326 0.5
10 1 0.36194 0.181699 0.5
69 4 0.598036 0.189218 0.5
37 2 0.703733 0.210603 0.5
26 2 0.764994 0.192292 0.5
3 1 0.921281 0.165638 0.5
24 2 0.510044 0.247496 0.5
17 1 0.0175974 0.253708 0.5
20 1 0.95891 0.211263 0.5
77 4 0.355855 0.270651 0.5
15 1 0.416832 0.299721 0.5
55 3 0.403317 0.25263 0.5
32 2 0.867401 0.267399 0.5
28 2 0.916109 0.296104 0.5
71 4 0.966861 0.297106 0.5
6 1 0.151733 0.322551 0.5
21 2 0.399864 0.34924 0.5
29 2 0.478813 0.32983 0.5
30 2 0.651652 0.320349 0.5
40 2 0.157885 0.416024 0.5
9 1 0.362456 0.400343 0.5
62 4 0.731048 0.409037 0.5
14 1 0.801753 0.401479 0.5
52 3 0.853664 0.361124 0.5
4 1 0.46208 0.425909 0.5
60 3 0.544129 0.454438 0.5
31 2 0.932804 0.462638 0.5
1 1 0.733739 0.527976 0.5
72 4 0.799622 0.526678 0.5
74 4 0.790694 0.480359 0.5
41 3 0.00485149 0.538919 0.5
61 4 0.16205 0.567228 0.5
22 2 0.401413 0.571042 0.5
50 3 0.924076 0.541821 0.5
47 3 0.457108 0.594574 0.5
66 4 0.643457 0.585907 0.5
2 1 0.834462 0.611049 0.5
38 2 0.934254 0.597081 0.5
34 2 0.17891 0.660412 0.5
43 3 0.232488 0.681233 0.5
11 1 0.990449 0.647663 0.5
58 3 0.116262 0.698305 0.5
63 4 0.37554 0.694771 0.5
33 2 0.0847146 0.75376 0.5
16 1 0.280478 0.776317 0.5
65 4 0.971247 0.753168 0.5
54 3 0.126922 0.814772 0.5
45 3 0.202114 0.823999 0.5
51 3 0.404128 0.820446 0.5
19 1 0.81396 0.802078 0.5
44 3 0.0861239 0.855123 0.5
56 3 0.155826 0.86226 0.5
36 2 0.353644 0.850827 0.5
7 1 0.513806 0.866864 0.5
48 3 0.779938 0.889204 0.5
8 1 0.895368 0.841728 0.5
27 2 0.63133 0.895554 0.5
49 3 0.577579 0.906435 0.5
39 2 0.855812 0.923522 0.5
13 1 0.937858 0.930314 0.5
70 4 0.00523514 0.986031 0.5
42 3 0.46898 0.970561 0.5
73 4 0.735692 0.948148 0.5
80 4 0.766265 0.988527 0.5
57 3 0.831383 0.973439 0.5
ITEM: TIMESTEP
100
ITEM: NUMBER OF ATOMS
80
ITEM: BOX BOUNDS pp pp pp
-6.5538616282464837e+00 6.5538616282464837e+00
-6.5538616282464837e+00 6.5538616282464837e+00
-1.0000000000000001e-01 1.0000000000000001e-01
ITEM: ATOMS id type xs ys zs
46 3 0.288875 0.0459387 0.5
23 2 0.484238 0.0352873 0.5
12 1 0.617127 0.0168528 0.5
35 2 0.762513 0.0427905 0.5
25 2 0.346871 0.0665376 0.5
68 4 0.397545 0.0744268 0.5
79 4 0.648916 0.0691362 0.5
53 3 0.700397 0.0458246 0.5
59 3 0.0670052 0.157193 0.5
75 4 0.280426 0.117323 0.5
78 4 0.406175 0.112565 0.5
67 4 0.659664 0.132202 0.5
18 1 0.711662 0.114607 0.5
5 1 0.812651 0.133405 0.5
76 4 0.966787 0.129533 0.5
64 4 0.2649 0.176326 0.5
10 1 0.361675 0.18146 0.5
69 4 0.598036 0.189218 0.5
37 2 0.70215 0.211533 0.5
26 2 0.764236 0.194871 0.5
3 1 0.915693 0.158837 0.5
24 2 0.510239 0.247147 0.5
17 1 0.0274128 0.256782 0.5
20 1 0.958658 0.208173 0.5
77 4 0.353168 0.270168 0.5
15 1 0.418215 0.29812 0.5
55 3 0.403921 0.248987 0.5
32 2 0.86518 0.267017 0.5
28 2 0.911548 0.300757 0.5
71 4 0.969039 0.300751 0.5
6 1 0.151682 0.321779 0.5
21 2 0.400826 0.347441 0.5
29 2 0.482186 0.330509 0.5
30 2 0.651652 0.320349 0.5
40 2 0.157936 0.416796 0.5
9 1 0.357238 0.406311 0.5
62 4 0.730672 0.409088 0.5
14 1 0.799115 0.403668 0.5
52 3 0.856689 0.358787 0.5
4 1 0.46336 0.427386 0.5
60 3 0.54443 0.454546 0.5
31 2 0.932818 0.462504 0.5
1 1 0.730102 0.528979 0.5
72 4 0.802231 0.527207 0.5
74 4 0.791707 0.478927 0.5
41 3 0.00485149 0.538919 0.5
61 4 0.16205 0.567228 0.5
22 2 0.398699 0.569895 0.5
50 3 0.923433 0.539089 0.5
47 3 0.459822 0.595721 0.5
66 4 0.643457 0.585907 0.5
2 1 0.834174 0.611095 0.5
38 2 0.933852 0.598602 0.5
34 2 0.175778 0.658984 0.5
43 3 0.235851 0.682528 0.5
11 1 0.991767 0.648961 0.5
58 3 0.117057 0.696628 0.5
63 4 0.37554 0.694771 0.5
33 2 0.0835436 0.755342 0.5
16 1 0.280547 0.776106 0.5
65 4 0.971247 0.753168 0.5
54 3 0.127128 0.81214 0.5
45 3 0.202605 0.823677 0.5
51 3 0.406956 0.818754 0.5
19 1 0.812919 0.801235 0.5
44 3 0.0841096 0.856232 0.5
56 3 0.157111 0.86444 0.5
36 2 0.350924 0.852622 0.5
7 1 0.513148 0.866504 0.5
48 3 0.779814 0.889362 0.5
8 1 0.896199 0.837707 0.5
27 2 0.63527 0.894814 0.5
49 3 0.574297 0.907535 0.5
39 2 0.852152 0.924444 0.5
13 1 0.942494 0.933031 0.5
70 4 0.00524272 0.986037 0.5
42 3 0.46852 0.96861 0.5
73 4 0.73567 0.948118 0.5
80 4 0.766537 0.986338 0.5
57 3 0.830734 0.974501 0.5
ITEM: TIMESTEP
110
ITEM: NUMBER OF ATOMS
80
ITEM: BOX BOUNDS pp pp pp
-6.6273269669635990e+00 6.6273269669635990e+00
-6.6273269669635990e+00 6.6273269669635990e+00
-1.0000000000000001e-01 1.0000000000000001e-01
ITEM: ATOMS id type xs ys zs
46 3 0.287111 0.04533 0.5
23 2 0.484718 0.037324 0.5
12 1 0.615127 0.0148682 0.5
35 2 0.763487 0.0443174 0.5
25 2 0.346666 0.0666935 0.5
68 4 0.399145 0.0739642 0.5
79 4 0.646838 0.0695135 0.5
53 3 0.702046 0.0425869 0.5
59 3 0.0670052 0.157193 0.5
75 4 0.280426 0.117323 0.5
78 4 0.406635 0.113332 0.5
67 4 0.655854 0.135055 0.5
18 1 0.715942 0.116482 0.5
5 1 0.8156 0.13048 0.5
76 4 0.967641 0.128313 0.5
64 4 0.2649 0.176326 0.5
10 1 0.361324 0.181146 0.5
69 4 0.598036 0.189218 0.5
37 2 0.700362 0.212594 0.5
26 2 0.763641 0.197589 0.5
3 1 0.909909 0.152014 0.5
24 2 0.510487 0.246715 0.5
17 1 0.0373073 0.259879 0.5
20 1 0.958472 0.205305 0.5
77 4 0.350371 0.269676 0.5
15 1 0.419632 0.296431 0.5
55 3 0.404553 0.245195 0.5
32 2 0.862773 0.26648 0.5
28 2 0.907203 0.305479 0.5
71 4 0.971218 0.304379 0.5
6 1 0.151625 0.320919 0.5
21 2 0.401641 0.345824 0.5
29 2 0.485821 0.331263 0.5
30 2 0.651652 0.320349 0.5
40 2 0.157992 0.417656 0.5
9 1 0.351885 0.412342 0.5
62 4 0.730175 0.409149 0.5
14 1 0.796529 0.405828 0.5
52 3 0.859754 0.35643 0.5
4 1 0.464639 0.428949 0.5
60 3 0.544813 0.454682 0.5
31 2 0.93284 0.462302 0.5
1 1 0.726393 0.529998 0.5
72 4 0.804895 0.527749 0.5
74 4 0.792728 0.477546 0.5
41 3 0.00485149 0.538919 0.5
61 4 0.16205 0.567228 0.5
22 2 0.395909 0.568716 0.5
50 3 0.922764 0.536304 0.5
47 3 0.462612 0.5969 0.5
66 4 0.643457 0.585907 0.5
2 1 0.833825 0.611149 0.5
38 2 0.933386 0.600114 0.5
34 2 0.172668 0.657464 0.5
43 3 0.239289 0.683852 0.5
11 1 0.99323 0.650382 0.5
58 3 0.117801 0.694933 0.5
63 4 0.37554 0.694771 0.5
33 2 0.0822632 0.756923 0.5
16 1 0.28063 0.775838 0.5
65 4 0.971247 0.753168 0.5
54 3 0.127411 0.809486 0.5
45 3 0.203118 0.823322 0.5
51 3 0.409852 0.81702 0.5
19 1 0.811718 0.800293 0.5
44 3 0.0820494 0.857387 0.5
56 3 0.158364 0.866739 0.5
36 2 0.348164 0.85449 0.5
7 1 0.512361 0.866055 0.5
48 3 0.779636 0.889528 0.5
8 1 0.897198 0.833677 0.5
27 2 0.639295 0.894055 0.5
49 3 0.57106 0.908743 0.5
39 2 0.848529 0.925227 0.5
13 1 0.947183 0.935777 0.5
70 4 0.00527913 0.986068 0.5
42 3 0.46804 0.966573 0.5
73 4 0.73563 0.948067 0.5
80 4 0.766832 0.984084 0.5
57 3 0.83001 0.975748 0.5
ITEM: TIMESTEP
120
ITEM: NUMBER OF ATOMS
80
ITEM: BOX BOUNDS pp pp pp
-6.6816478553487686e+00 6.6816478553487686e+00
-6.6816478553487686e+00 6.6816478553487686e+00
-1.0000000000000001e-01 1.0000000000000001e-01
ITEM: ATOMS id type xs ys zs
46 3 0.285232 0.0446799 0.5
23 2 0.48521 0.0394121 0.5
12 1 0.613043 0.0127713 0.5
35 2 0.764662 0.0457392 0.5
25 2 0.346465 0.0668788 0.5
68 4 0.400848 0.073447 0.5
79 4 0.644846 0.070017 0.5
53 3 0.703522 0.0392637 0.5
59 3 0.0670052 0.157193 0.5
75 4 0.280426 0.117323 0.5
78 4 0.407122 0.11414 0.5
67 4 0.651967 0.137897 0.5
18 1 0.720075 0.118379 0.5
5 1 0.818597 0.127516 0.5
76 4 0.968637 0.126992 0.5
64 4 0.2649 0.176326 0.5
10 1 0.360881 0.180752 0.5
69 4 0.598036 0.189218 0.5
37 2 0.69838 0.213765 0.5
26 2 0.763228 0.200422 0.5
3 1 0.904028 0.145186 0.5
24 2 0.510784 0.246207 0.5
17 1 0.0471772 0.262982 0.5
20 1 0.958368 0.202703 0.5
77 4 0.347522 0.269177 0.5
15 1 0.421074 0.294645 0.5
55 3 0.405195 0.241293 0.5
32 2 0.860215 0.265779 0.5
28 2 0.903146 0.310197 0.5
71 4 0.973391 0.307958 0.5
6 1 0.151564 0.319992 0.5
21 2 0.402309 0.344446 0.5
29 2 0.489668 0.332098 0.5
30 2 0.651652 0.320349 0.5
40 2 0.158053 0.418583 0.5
9 1 0.34649 0.418385 0.5
62 4 0.72955 0.409215 0.5
14 1 0.794044 0.40791 0.5
52 3 0.862771 0.354132 0.5
4 1 0.465855 0.430548 0.5
60 3 0.545279 0.454844 0.5
31 2 0.932873 0.462022 0.5