ITEM: TIMESTEP
250
ITEM: NUMBER OF ATOMS
63
ITEM: BOX BOUNDS pp pp pp
-4.8064456249125591e+00 4.8064456249125591e+00
-4.8086294092252642e+00 4.8086294092252642e+00
-1.0000000000000001e-01 1.0000000000000001e-01
ITEM: ATOMS id type xs ys zs
23 1 0.0996648 0.990366 0.500117
51 1 0.469824 0.068132 0.50016
50 1 0.552312 0.0887507 0.500001
56 1 0.649501 0.0698225 0.500082
77 1 0.738073 0.994203 0.499554
22 1 0.819772 0.0296681 0.501264
68 1 0.838246 0.940916 0.499607
5 1 0.970076 0.0533067 0.500461
70 1 0.505153 0.148495 0.499453
11 1 0.604523 0.200546 0.499451
8 1 0.744981 0.149398 0.500706
18 1 0.891751 0.196319 0.500553
38 1 0.993812 0.286772 0.499678
17 1 0.316266 0.308861 0.50026
33 1 0.699964 0.328643 0.499717
46 1 0.787731 0.259689 0.499926
47 1 0.880757 0.321814 0.501256
54 1 0.0332508 0.376983 0.499978
1 1 0.230429 0.448194 0.497816
43 1 0.40081 0.402582 0.498693
78 1 0.328353 0.406691 0.499837
27 1 0.488767 0.478732 0.501366
42 1 0.606532 0.478973 0.500347
45 1 0.80402 0.367878 0.500146
58 1 0.841086 0.454538 0.500878
35 1 0.944316 0.428783 0.49955
30 1 0.0944712 0.467435 0.500763
72 1 0.270165 0.554365 0.499014
7 1 0.370839 0.542492 0.500108
79 1 0.632155 0.548999 0.499651
10 1 0.72393 0.462685 0.500441
13 1 0.864681 0.567026 0.499973
74 1 0.00311578 0.510547 0.500426
49 1 0.0552873 0.579309 0.499388
25 1 0.162151 0.571412 0.49988
69 1 0.293381 0.615405 0.500181
66 1 0.33879 0.661053 0.500149
53 1 0.42176 0.651066 0.500692
16 1 0.546681 0.612634 0.499943
15 1 0.702603 0.639513 0.500832
62 1 0.807181 0.668297 0.500504
63 1 0.869985 0.667367 0.500302
59 1 0.978555 0.634614 0.499951
19 1 0.0710608 0.717281 0.500751
20 1 0.228493 0.714699 0.501288
37 1 0.357002 0.754126 0.501123
29 1 0.47247 0.761124 0.499441
52 1 0.67194 0.758502 0.4993
9 1 0.802777 0.763105 0.501198
32 1 0.93946 0.724489 0.499578
57 1 0.00773922 0.824635 0.500001
12 1 0.127729 0.860085 0.498906
4 1 0.270084 0.864257 0.499378
80 1 0.539244 0.887277 0.500118
40 1 0.584017 0.820521 0.499872
2 1 0.43847 0.878063 0.499561
34 1 0.542928 0.974789 0.500936
67 1 0.628567 0.900259 0.499565
55 1 0.654437 0.98025 0.499686
6 1 0.740201 0.888037 0.500026
39 1 0.878225 0.859612 0.499852
31 1 0.992183 0.924845 0.500574
71 1 0.889846 0.956435 0.499332
ITEM: TIMESTEP
500
ITEM: NUMBER OF ATOMS
63
ITEM: BOX BOUNDS pp pp pp
-4.8052439017460769e+00 4.8052439017460769e+00
-4.8078613572015660e+00 4.8078613572015660e+00
-1.0000000000000001e-01 1.0000000000000001e-01
ITEM: ATOMS id type xs ys zs
23 1 0.0983956 0.989836 0.499874
51 1 0.470464 0.068644 0.500974
50 1 0.553329 0.0893701 0.500935
56 1 0.650339 0.0698908 0.499612
77 1 0.738522 0.992886 0.500467
22 1 0.819946 0.0305676 0.499853
68 1 0.837249 0.941752 0.50116
5 1 0.969618 0.0541388 0.501236
70 1 0.505783 0.149693 0.499804
11 1 0.605217 0.202262 0.500449
8 1 0.744991 0.149944 0.498604
18 1 0.891802 0.197093 0.502233
38 1 0.994695 0.286689 0.498388
17 1 0.316363 0.307811 0.501258
33 1 0.700098 0.329184 0.501197
46 1 0.788431 0.26007 0.499717
47 1 0.881223 0.322804 0.500852
54 1 0.0332193 0.376908 0.499143
1 1 0.230059 0.447431 0.499165
43 1 0.400959 0.402077 0.498714
78 1 0.327914 0.406039 0.498239
27 1 0.489043 0.478415 0.502596
42 1 0.606288 0.479873 0.500862
45 1 0.804194 0.368212 0.501309
58 1 0.841339 0.454972 0.501044
35 1 0.944165 0.428295 0.500345
30 1 0.094531 0.46764 0.501238
72 1 0.270835 0.553796 0.499282
7 1 0.371313 0.542253 0.500374
79 1 0.632118 0.549553 0.500806
10 1 0.723955 0.462395 0.50196
13 1 0.865555 0.567286 0.500029
74 1 0.00251513 0.510583 0.499508
49 1 0.0553088 0.579255 0.499753
25 1 0.162652 0.571571 0.498914
69 1 0.293875 0.615462 0.499189
66 1 0.338418 0.662081 0.500165
53 1 0.421135 0.651225 0.500012
16 1 0.546804 0.613347 0.500043
15 1 0.702836 0.639996 0.499426
62 1 0.807604 0.668355 0.501177
63 1 0.870276 0.667597 0.499798
59 1 0.978983 0.635272 0.501378
19 1 0.0715859 0.717376 0.498978
20 1 0.230073 0.715693 0.500335
37 1 0.357449 0.754696 0.500817
29 1 0.473241 0.761544 0.497508
52 1 0.671552 0.758229 0.498447
9 1 0.80236 0.76278 0.500107
32 1 0.939375 0.725227 0.500469
57 1 0.00829678 0.825259 0.50097
12 1 0.128799 0.859641 0.500076
4 1 0.270109 0.865323 0.499352
80 1 0.539705 0.887979 0.500455
40 1 0.584347 0.820721 0.501145
2 1 0.438749 0.877953 0.500154
34 1 0.543062 0.975343 0.500991
67 1 0.628486 0.900536 0.499017
55 1 0.654514 0.980714 0.500324
6 1 0.739897 0.887529 0.500976
39 1 0.877032 0.859915 0.498433
31 1 0.990569 0.925105 0.50091
71 1 0.889317 0.956819 0.499527
ITEM: TIMESTEP
750
ITEM: NUMBER OF ATOMS
63
ITEM: BOX BOUNDS pp pp pp
-4.8040421785795937e+00 4.8040421785795937e+00
-4.7968176793435928e+00 4.7968176793435928e+00
-1.0000000000000001e-01 1.0000000000000001e-01
ITEM: ATOMS id type xs ys zs
23 1 0.0989066 0.990363 0.503969
51 1 0.470075 0.0686548 0.501316
50 1 0.553274 0.0897009 0.502595
56 1 0.650147 0.0705382 0.499117
77 1 0.738344 0.992977 0.500935
22 1 0.819233 0.0308468 0.499034
68 1 0.837018 0.941525 0.50025
5 1 0.969863 0.0542582 0.500569
70 1 0.505421 0.149053 0.500994
11 1 0.60544 0.201578 0.49771
8 1 0.745438 0.151472 0.498364
18 1 0.892555 0.197307 0.501959
38 1 0.995076 0.286481 0.497658
17 1 0.316512 0.307327 0.501896
33 1 0.700066 0.328608 0.501687
46 1 0.789739 0.26137 0.497781
47 1 0.882317 0.323451 0.501244
54 1 0.0334618 0.376889 0.498596
1 1 0.230349 0.447118 0.497723
43 1 0.401341 0.40184 0.498507
78 1 0.328572 0.405952 0.50013
27 1 0.490724 0.477958 0.501958
42 1 0.608025 0.478209 0.50139
45 1 0.804612 0.367406 0.501306
58 1 0.841693 0.454337 0.500889
35 1 0.944643 0.428847 0.501602
30 1 0.094306 0.467887 0.500924
72 1 0.271515 0.553109 0.500005
7 1 0.372472 0.541958 0.503394
79 1 0.633085 0.548666 0.499952
10 1 0.725139 0.463145 0.50284
13 1 0.865171 0.567353 0.49993
74 1 0.00299971 0.511669 0.49848
49 1 0.0559474 0.58056 0.500419
25 1 0.162774 0.572376 0.50054
69 1 0.294296 0.614805 0.499466
66 1 0.339229 0.660963 0.502044
53 1 0.421959 0.651777 0.500359
16 1 0.547276 0.613517 0.500686
15 1 0.703084 0.640017 0.499231
62 1 0.807563 0.668706 0.501478
63 1 0.870612 0.668418 0.49894
59 1 0.978688 0.635181 0.501268
19 1 0.0711255 0.717609 0.500226
20 1 0.230121 0.714726 0.499996
37 1 0.357364 0.753799 0.500353
29 1 0.473153 0.760756 0.49687
52 1 0.671631 0.759003 0.497025
9 1 0.803026 0.763271 0.500683
32 1 0.939578 0.726298 0.500544
57 1 0.00930232 0.825494 0.503304
12 1 0.129481 0.8602 0.499379
4 1 0.271167 0.865483 0.497866
80 1 0.539704 0.887775 0.500221
40 1 0.584311 0.821129 0.500173
2 1 0.438643 0.877624 0.501629
34 1 0.543495 0.975645 0.502658
67 1 0.627856 0.901443 0.495744
55 1 0.654956 0.981048 0.498468
6 1 0.739245 0.887219 0.502402
39 1 0.877848 0.860285 0.499967
31 1 0.990745 0.925233 0.501701
71 1 0.88839 0.957212 0.499988
ITEM: TIMESTEP
1000
ITEM: NUMBER OF ATOMS
63
ITEM: BOX BOUNDS pp pp pp
-4.8028404554131114e+00 4.8028404554131114e+00
-4.7978225969425221e+00 4.7978225969425221e+00
-1.0000000000000001e-01 1.0000000000000001e-01
ITEM: ATOMS id type xs ys zs
23 1 0.0989488 0.990327 0.502583
51 1 0.469363 0.0686217 0.502324
50 1 0.552285 0.0896229 0.50237
56 1 0.649297 0.0713083 0.497998
77 1 0.738154 0.993895 0.502
22 1 0.819672 0.0308983 0.498398
68 1 0.837668 0.941932 0.500637
5 1 0.969581 0.0535673 0.500343
70 1 0.505132 0.149454 0.500785
11 1 0.605652 0.201213 0.498261
8 1 0.745917 0.149847 0.499649
18 1 0.892794 0.197495 0.501298
38 1 0.996293 0.286834 0.497442
17 1 0.316427 0.307541 0.501629
33 1 0.700504 0.328757 0.501611
46 1 0.789141 0.260117 0.498981
47 1 0.883173 0.32367 0.500976
54 1 0.0340699 0.377086 0.498653
1 1 0.230542 0.446864 0.496527
43 1 0.401759 0.401119 0.497736
78 1 0.329028 0.405904 0.501657
27 1 0.48901 0.478295 0.502456
42 1 0.607104 0.479121 0.50245
45 1 0.804938 0.367399 0.501611
58 1 0.841662 0.454599 0.502146
35 1 0.945012 0.42934 0.501334
30 1 0.0949275 0.468152 0.500306
72 1 0.270726 0.552871 0.5006
7 1 0.371657 0.542679 0.502782
79 1 0.632426 0.549298 0.49982
10 1 0.724846 0.463555 0.502363
13 1 0.865473 0.566755 0.498631
74 1 0.0032879 0.511674 0.498057
49 1 0.0567985 0.580299 0.499818
25 1 0.163884 0.571702 0.500783
69 1 0.293798 0.61455 0.499444
66 1 0.339365 0.660112 0.502588
53 1 0.422121 0.652291 0.498031
16 1 0.547569 0.612509 0.49949
15 1 0.703692 0.639228 0.498947
62 1 0.808068 0.668743 0.501129
63 1 0.870792 0.667338 0.498129
59 1 0.979528 0.63457 0.498667
19 1 0.0722843 0.71652 0.499218
20 1 0.230445 0.714726 0.49961
37 1 0.358043 0.753459 0.50268
29 1 0.474321 0.760697 0.4961
52 1 0.672567 0.758112 0.496568
9 1 0.803225 0.7634 0.501317
32 1 0.939908 0.724562 0.501658
57 1 0.00859612 0.824353 0.503384
12 1 0.128901 0.859989 0.499607
4 1 0.2707 0.864668 0.49527
80 1 0.539781 0.886852 0.499923
40 1 0.585805 0.821071 0.50109
2 1 0.438557 0.877953 0.501603
34 1 0.54272 0.975025 0.500546
67 1 0.628022 0.902101 0.49547
55 1 0.654253 0.982061 0.498982
6 1 0.73964 0.888318 0.504149
39 1 0.877186 0.860364 0.501849
31 1 0.99167 0.924623 0.502385
71 1 0.889306 0.957189 0.499895
ITEM: TIMESTEP
1250
ITEM: NUMBER OF ATOMS
63
ITEM: BOX BOUNDS pp pp pp
-4.8016387322466283e+00 4.8016387322466283e+00
-4.8033828372416885e+00 4.8033828372416885e+00
-1.0000000000000001e-01 1.0000000000000001e-01
ITEM: ATOMS id type xs ys zs
23 1 0.098387 0.990821 0.504285
51 1 0.470455 0.0676693 0.501031
50 1 0.553232 0.0886162 0.503191
56 1 0.651002 0.0713424 0.495624
77 1 0.738839 0.994549 0.503629
22 1 0.821005 0.0303875 0.497939
68 1 0.838457 0.941348 0.499606
5 1 0.969167 0.0535953 0.500447
70 1 0.505792 0.148592 0.501633
11 1 0.606139 0.200014 0.498639
8 1 0.746733 0.149763 0.497449
18 1 0.892751 0.197911 0.501636
38 1 0.995569 0.286828 0.499198
17 1 0.315233 0.307262 0.503161
33 1 0.700385 0.328706 0.503839
46 1 0.788108 0.259872 0.501896
47 1 0.882553 0.323553 0.500549
54 1 0.0340649 0.377279 0.498881
1 1 0.229776 0.446647 0.494671
43 1 0.400481 0.401177 0.49888
78 1 0.327992 0.405338 0.501446
27 1 0.489013 0.477481 0.502546
42 1 0.607117 0.478418 0.503675
45 1 0.804382 0.367596 0.501902
58 1 0.841989 0.454452 0.502297
35 1 0.944872 0.428944 0.501539
30 1 0.0938292 0.469012 0.498004
72 1 0.270924 0.552375 0.499755
7 1 0.371729 0.541754 0.503217
79 1 0.632772 0.548247 0.49841
10 1 0.724464 0.462263 0.502696
13 1 0.865362 0.567076 0.498609
74 1 0.00242368 0.512351 0.498889
49 1 0.0567788 0.580591 0.498919
25 1 0.163746 0.572428 0.501024
69 1 0.293826 0.614278 0.499083
66 1 0.337759 0.661374 0.504399
53 1 0.421196 0.652054 0.499629
16 1 0.546485 0.611291 0.498694
15 1 0.70302 0.638533 0.499599
62 1 0.806779 0.668076 0.501375
63 1 0.869847 0.667945 0.498346
59 1 0.979005 0.634928 0.498811
19 1 0.0715166 0.717737 0.499361
20 1 0.230444 0.714712 0.499625
37 1 0.358709 0.754215 0.502372
29 1 0.474232 0.761773 0.495795
52 1 0.671371 0.757389 0.494431
9 1 0.801909 0.762848 0.501442
32 1 0.939526 0.725484 0.500965
57 1 0.00901575 0.824446 0.503457
12 1 0.128765 0.860923 0.500245
4 1 0.271028 0.86512 0.496338
80 1 0.539011 0.887426 0.50029
40 1 0.585202 0.821599 0.501259
2 1 0.438322 0.878496 0.502108
34 1 0.54319 0.974496 0.500467
67 1 0.62807 0.902079 0.495798
55 1 0.654671 0.981923 0.500012
6 1 0.739793 0.888618 0.504177
39 1 0.87678 0.859706 0.501781
31 1 0.991571 0.924511 0.500022
71 1 0.890095 0.956685 0.499286
ITEM: TIMESTEP
1500
ITEM: NUMBER OF ATOMS
63
ITEM: BOX BOUNDS pp pp pp
-4.8004370090801460e+00 4.8004370090801460e+00
-4.7998983157541444e+00 4.7998983157541444e+00
-1.0000000000000001e-01 1.0000000000000001e-01
ITEM: ATOMS id type xs ys zs
23 1 0.0986859 0.991098 0.505648
51 1 0.47023 0.0687412 0.501546
50 1 0.552652 0.0895101 0.502402
56 1 0.650087 0.0715238 0.494158
77 1 0.738961 0.994299 0.503083
22 1 0.821652 0.0302961 0.499068
68 1 0.838687 0.940985 0.499594
5 1 0.96845 0.0536409 0.50062
70 1 0.505672 0.149912 0.501857
11 1 0.606222 0.200867 0.501329
8 1 0.746365 0.1491 0.497251
18 1 0.8928 0.197413 0.501649
38 1 0.9947 0.287151 0.499017
17 1 0.31536 0.306534 0.503744
33 1 0.699639 0.328328 0.504024
46 1 0.788826 0.259839 0.502211
47 1 0.881729 0.323378 0.500041
54 1 0.0341463 0.376985 0.499186
1 1 0.229612 0.446765 0.493542
43 1 0.400318 0.401667 0.4986
78 1 0.327464 0.404942 0.501689
27 1 0.489197 0.47763 0.501841
42 1 0.60663 0.477427 0.503185
45 1 0.803784 0.367876 0.50163
58 1 0.8423 0.453842 0.501336
35 1 0.945159 0.429033 0.502047
30 1 0.0938824 0.468491 0.497088
72 1 0.269928 0.552857 0.501003
7 1 0.371247 0.542644 0.50433
79 1 0.631772 0.547678 0.498541
10 1 0.7245 0.462941 0.50319
13 1 0.864455 0.566488 0.496381
74 1 0.00241378 0.512599 0.501334
49 1 0.0558864 0.580613 0.496725
25 1 0.163658 0.572051 0.503111
69 1 0.293516 0.614337 0.50055
66 1 0.337712 0.661431 0.50491
53 1 0.420621 0.652564 0.501359
16 1 0.546588 0.61191 0.497475
15 1 0.702905 0.637721 0.500298
62 1 0.806924 0.668196 0.503189
63 1 0.869642 0.667293 0.498988
59 1 0.978224 0.634938 0.496306
19 1 0.0709403 0.71749 0.500241
20 1 0.229963 0.714742 0.499896
37 1 0.358368 0.754585 0.502655
29 1 0.474237 0.76236 0.496444
52 1 0.670682 0.756773 0.495522
9 1 0.801471 0.762423 0.499802
32 1 0.938909 0.725584 0.501257
57 1 0.00725888 0.824743 0.502818
12 1 0.128187 0.860594 0.500652
4 1 0.270253 0.864576 0.497744
80 1 0.539372 0.887448 0.502246
40 1 0.58598 0.821721 0.503552
2 1 0.438546 0.878722 0.501361
34 1 0.543511 0.97531 0.50247
67 1 0.628877 0.901851 0.496271
55 1 0.654925 0.981941 0.499448
6 1 0.740182 0.88845 0.50469
39 1 0.877482 0.858866 0.501278
31 1 0.991379 0.925032 0.501839
71 1 0.890326 0.95551 0.500075
ITEM: TIMESTEP
1750
ITEM: NUMBER OF ATOMS
63
ITEM: BOX BOUNDS pp pp pp
-4.7992352859136638e+00 4.7992352859136638e+00
-4.7990248202083867e+00 4.7990248202083867e+00
-1.0000000000000001e-01 1.0000000000000001e-01
ITEM: ATOMS id type xs ys zs
23 1 0.100373 0.989933 0.504175
51 1 0.470158 0.0684448 0.500284
50 1 0.553349 0.0895227 0.501416
56 1 0.649872 0.0714596 0.493496
77 1 0.73981 0.994352 0.500929
22 1 0.821777 0.0306416 0.499663
68 1 0.839219 0.941587 0.499591
5 1 0.971674 0.0543735 0.501145
70 1 0.505654 0.149676 0.504164
11 1 0.605997 0.201247 0.499724
8 1 0.745717 0.149996 0.49564
18 1 0.892791 0.196992 0.500079
38 1 0.995482 0.286162 0.498937
17 1 0.314797 0.307516 0.504039
33 1 0.700203 0.328454 0.504521
46 1 0.788505 0.259521 0.499437
47 1 0.88163 0.322945 0.500388
54 1 0.0345031 0.376503 0.500636
1 1 0.229938 0.447705 0.492426
43 1 0.400968 0.40013 0.497737
78 1 0.328167 0.405864 0.50142
27 1 0.48853 0.477209 0.501839
42 1 0.60654 0.4774 0.503113
45 1 0.803821 0.368434 0.500792
58 1 0.841971 0.453965 0.501017
35 1 0.945123 0.428306 0.502902
30 1 0.0943068 0.468566 0.496677
72 1 0.269799 0.55377 0.500747
7 1 0.370989 0.542499 0.505472
79 1 0.632643 0.547519 0.497755
10 1 0.724285 0.463005 0.504516
13 1 0.864171 0.567081 0.495917
74 1 0.00276467 0.511396 0.502167
49 1 0.0560674 0.580436 0.496328
25 1 0.163105 0.572398 0.502126
69 1 0.293353 0.615174 0.501781
66 1 0.338594 0.660895 0.507093
53 1 0.421481 0.651917 0.501121
16 1 0.54728 0.611395 0.498268
15 1 0.702708 0.639026 0.49996
62 1 0.806993 0.668639 0.502822
63 1 0.869894 0.667978 0.498842
59 1 0.978449 0.634842 0.496237
19 1 0.0708801 0.717034 0.49914
20 1 0.229565 0.714989 0.4999
37 1 0.358146 0.754245 0.503676
29 1 0.473698 0.762896 0.497247
52 1 0.670898 0.757494 0.496412
9 1 0.801842 0.763285 0.498903
32 1 0.939112 0.725417 0.502794
57 1 0.00661951 0.824335 0.501507
12 1 0.127783 0.859522 0.501003
4 1 0.270308 0.864685 0.499488
80 1 0.538313 0.887583 0.502652
40 1 0.585445 0.822724 0.501092
2 1 0.43692 0.879142 0.499214
34 1 0.543996 0.975563 0.503455
67 1 0.629137 0.902461 0.495994
55 1 0.655675 0.982162 0.499943
6 1 0.740912 0.888639 0.502618
39 1 0.878358 0.859332 0.502143
31 1 0.991973 0.924805 0.501613
71 1 0.890759 0.957048 0.498188
ITEM: TIMESTEP
2000
ITEM: NUMBER OF ATOMS
63
ITEM: BOX BOUNDS pp pp pp
-4.7980335627471806e+00 4.7980335627471806e+00
-4.7975765776535173e+00 4.7975765776535173e+00
-1.0000000000000001e-01 1.0000000000000001e-01
ITEM: ATOMS id type xs ys zs
23 1 0.100031 0.990101 0.503711
51 1 0.469697 0.0673295 0.498289
50 1 0.552416 0.0889386 0.503044
56 1 0.649655 0.0718467 0.493371
77 1 0.739589 0.994506 0.501532
22 1 0.821214 0.0312865 0.49995
68 1 0.8389 0.942133 0.499126
5 1 0.96959 0.0532452 0.500275
70 1 0.504842 0.148749 0.503679
11 1 0.604838 0.201074 0.49948
8 1 0.745112 0.149981 0.495796
18 1 0.892135 0.196823 0.502364
38 1 0.994179 0.287347 0.499256
17 1 0.31483 0.307686 0.503896
33 1 0.700546 0.328926 0.504318
46 1 0.788549 0.259679 0.498012
47 1 0.881249 0.322619 0.501686
54 1 0.034355 0.377058 0.501798
1 1 0.229074 0.447455 0.491971
43 1 0.400787 0.401544 0.497339
78 1 0.327574 0.405897 0.500981
27 1 0.488907 0.478086 0.502131
42 1 0.606974 0.476565 0.502571
45 1 0.803983 0.368646 0.502068
58 1 0.842246 0.45429 0.499793
35 1 0.945906 0.43 0.503065
30 1 0.0936192 0.468958 0.497111
72 1 0.269994 0.553599 0.502847
7 1 0.371065 0.541952 0.50558
79 1 0.632882 0.54708 0.498952
10 1 0.724483 0.463615 0.503552
13 1 0.86369 0.566703 0.495993
74 1 0.00288566 0.513704 0.502515
49 1 0.0570848 0.581554 0.495199
25 1 0.163825 0.573037 0.499814
69 1 0.293051 0.615557 0.500083
66 1 0.338855 0.66143 0.507461
53 1 0.421971 0.651521 0.498557
16 1 0.547206 0.611688 0.496062
15 1 0.702902 0.637974 0.500387
62 1 0.80683 0.668601 0.502289
63 1 0.869955 0.667555 0.497926
59 1 0.978076 0.634387 0.497062
19 1 0.0706848 0.717248 0.497104
20 1 0.229623 0.715444 0.498884
37 1 0.357213 0.754771 0.504661
29 1 0.472756 0.763596 0.496454
52 1 0.670562 0.756421 0.497642
9 1 0.801618 0.763187 0.498222
32 1 0.93892 0.724863 0.50514
57 1 0.00701695 0.824258 0.501836
12 1 0.128128 0.859912 0.500091
4 1 0.270306 0.866125 0.499329
80 1 0.538006 0.887415 0.501923
40 1 0.585739 0.82256 0.499028
2 1 0.436826 0.880194 0.498917
34 1 0.543658 0.974785 0.504391
67 1 0.62884 0.902657 0.496709
55 1 0.655326 0.982531 0.498701
6 1 0.740473 0.888718 0.502445
39 1 0.877897 0.859989 0.500658
31 1 0.992372 0.92468 0.503263
71 1 0.890455 0.957153 0.498044
ITEM: TIMESTEP
2250
ITEM: NUMBER OF ATOMS
63
ITEM: BOX BOUNDS pp pp pp
-4.7968318395806984e+00 4.7968318395806984e+00
-4.7968676277970754e+00 4.7968676277970754e+00
-1.0000000000000001e-01 1.0000000000000001e-01
ITEM: ATOMS id type xs ys zs
23 1 0.100117 0.990563 0.504254
51 1 0.469193 0.0675038 0.499032
50 1 0.551595 0.0888901 0.503229
56 1 0.64877 0.0716477 0.495748
77 1 0.738857 0.995276 0.501851
22 1 0.821139 0.0310574 0.500966
68 1 0.838593 0.941778 0.498791
5 1 0.970051 0.0525122 0.502098
70 1 0.503936 0.148956 0.501813
11 1 0.604423 0.200703 0.499544
8 1 0.745018 0.149448 0.493887
18 1 0.892199 0.195405 0.503082
38 1 0.993833 0.286673 0.499246
17 1 0.314267 0.306934 0.504931
33 1 0.700382 0.328161 0.504534
46 1 0.789566 0.259617 0.498517
47 1 0.880925 0.321383 0.499601
54 1 0.0346422 0.376554 0.502525
1 1 0.229873 0.448005 0.494026
43 1 0.399818 0.401527 0.497947
78 1 0.327321 0.405345 0.502378
27 1 0.48918 0.476805 0.501533
42 1 0.606812 0.476914 0.50301
45 1 0.80407 0.367313 0.501874
58 1 0.842516 0.453462 0.500407
35 1 0.945711 0.42906 0.503888
30 1 0.0936541 0.468657 0.495055
72 1 0.270194 0.553935 0.504678
7 1 0.371064 0.542233 0.505225
79 1 0.63202 0.546978 0.500535
10 1 0.724704 0.462377 0.503376
13 1 0.863619 0.566541 0.496985
74 1 0.00263427 0.512727 0.502326
49 1 0.0565104 0.58089 0.495435
25 1 0.163082 0.57307 0.498468
69 1 0.294212 0.614984 0.499487
66 1 0.338403 0.661876 0.507711
53 1 0.421201 0.652582 0.497744
16 1 0.547154 0.61191 0.49625
15 1 0.702836 0.63778 0.501029
62 1 0.806762 0.668636 0.5025
63 1 0.869435 0.667616 0.495176
59 1 0.977898 0.634121 0.499396
19 1 0.0712179 0.716175 0.496971
20 1 0.230298 0.714525 0.499475
37 1 0.357804 0.754757 0.503829
29 1 0.473699 0.762337 0.494988
52 1 0.670288 0.756027 0.496278
9 1 0.80204 0.763706 0.497199
32 1 0.939398 0.724953 0.504211
57 1 0.00776558 0.822821 0.500043
12 1 0.127749 0.859651 0.499792
4 1 0.270389 0.865195 0.500957
80 1 0.5387 0.886741 0.500716
40 1 0.585307 0.821511 0.49832
2 1 0.437358 0.878692 0.499101
34 1 0.543104 0.974504 0.504112
67 1 0.628449 0.90192 0.497579
55 1 0.654964 0.982105 0.500007
6 1 0.740481 0.888749 0.501926
39 1 0.878081 0.860192 0.499624
31 1 0.992939 0.923877 0.503753
71 1 0.890375 0.957173 0.497293
ITEM: TIMESTEP
2500
ITEM: NUMBER OF ATOMS
63
ITEM: BOX BOUNDS pp pp pp
-4.7956301164142152e+00 4.7956301164142152e+00
-4.8043871170073862e+00 4.8043871170073862e+00
-1.0000000000000001e-01 1.0000000000000001e-01
ITEM: ATOMS id type xs ys zs
23 1 0.0999364 0.989124 0.502777
51 1 0.468119 0.0664172 0.499151
50 1 0.551113 0.0889668 0.502796
56 1 0.648095 0.0710444 0.496076
77 1 0.738754 0.994712 0.502095
22 1 0.82096 0.0304463 0.500882
68 1 0.838827 0.941487 0.498325
5 1 0.970922 0.0526432 0.501961
70 1 0.503041 0.147854 0.502163
11 1 0.603587 0.200031 0.50003
8 1 0.745068 0.148873 0.49428
18 1 0.892897 0.196505 0.503621
38 1 0.995032 0.286674 0.499707
17 1 0.314909 0.30722 0.503886
33 1 0.699492 0.328228 0.503259
46 1 0.788029 0.259687 0.498607
47 1 0.880544 0.321563 0.500281
54 1 0.0344355 0.376736 0.501453
1 1 0.229594 0.447272 0.493436
43 1 0.400062 0.400802 0.496492
78 1 0.327298 0.405031 0.500897
27 1 0.488555 0.476335 0.501307
42 1 0.605989 0.477403 0.50557
45 1 0.803473 0.36756 0.50174
58 1 0.842232 0.453143 0.502624
35 1 0.945741 0.43022 0.502696
30 1 0.0936328 0.4691 0.494515
72 1 0.270601 0.553688 0.505296
7 1 0.370833 0.542305 0.505149
79 1 0.63261 0.5472 0.50057
10 1 0.724153 0.46261 0.502617
13 1 0.863674 0.566045 0.497685
74 1 0.00280665 0.513886 0.504789
49 1 0.0563054 0.581996 0.496291
25 1 0.163235 0.572478 0.497241
69 1 0.293591 0.615326 0.498905
66 1 0.338635 0.661575 0.507919
53 1 0.421432 0.652209 0.496856
16 1 0.546527 0.610234 0.497398
15 1 0.702256 0.638001 0.499904
62 1 0.806293 0.668383 0.500951
63 1 0.868998 0.66661 0.494104
59 1 0.976846 0.634747 0.499402
19 1 0.070351 0.716091 0.499107
20 1 0.229058 0.715195 0.500389
37 1 0.357236 0.754847 0.504705
29 1 0.473711 0.762539 0.495383
52 1 0.669453 0.756633 0.497692
9 1 0.801276 0.763045 0.496775
32 1 0.938066 0.724514 0.504362
57 1 0.00662757 0.82315 0.499643
12 1 0.127734 0.857775 0.499544
4 1 0.269322 0.8651 0.501555
80 1 0.538051 0.887147 0.501549
40 1 0.58493 0.822834 0.496565
2 1 0.436692 0.879088 0.497774
34 1 0.542826 0.97449 0.504738
67 1 0.628673 0.902783 0.495165
55 1 0.655017 0.98202 0.500746
6 1 0.740458 0.888832 0.502348
39 1 0.877812 0.859459 0.498389
31 1 0.992547 0.923697 0.502757
71 1 0.890645 0.956246 0.497855
ITEM: TIMESTEP
2750
ITEM: NUMBER OF ATOMS
63
ITEM: BOX BOUNDS pp pp pp
-4.7944283932477330e+00 4.7944283932477330e+00
-4.7958228060565373e+00 4.7958228060565373e+00
-1.0000000000000001e-01 1.0000000000000001e-01
ITEM: ATOMS id type xs ys zs
23 1 0.1003 0.989151 0.503108
51 1 0.468767 0.0679012 0.499468
50 1 0.55115 0.0890718 0.504971
56 1 0.648234 0.0715484 0.496029
77 1 0.737703 0.99493 0.50172
22 1 0.820174 0.029831 0.499578
68 1 0.838346 0.941054 0.496495
5 1 0.971226 0.0527645 0.50118
70 1 0.503474 0.149408 0.504018
11 1 0.604957 0.200725 0.498525
8 1 0.745515 0.148916 0.495363
18 1 0.892865 0.196193 0.504514
38 1 0.994005 0.286742 0.500952
17 1 0.313828 0.306764 0.502082
33 1 0.699842 0.328108 0.503966
46 1 0.788492 0.258792 0.497936
47 1 0.880496 0.321716 0.501068
54 1 0.0341889 0.376413 0.501128
1 1 0.229533 0.44753 0.492214
43 1 0.400122 0.40021 0.498214
78 1 0.327089 0.404731 0.499896
27 1 0.487256 0.477856 0.501915
42 1 0.605641 0.476755 0.506701
45 1 0.803559 0.367798 0.503513
58 1 0.842359 0.45366 0.502762
35 1 0.945827 0.429719 0.501513
30 1 0.0930852 0.468346 0.494913
72 1 0.269373 0.553889 0.50477
7 1 0.370568 0.543544 0.505348
79 1 0.632045 0.546984 0.500061
10 1 0.723998 0.462737 0.500755
13 1 0.863832 0.566183 0.498049
74 1 0.0021771 0.513814 0.503216
49 1 0.0563284 0.580892 0.496036
25 1 0.163495 0.572382 0.498327
69 1 0.292684 0.615267 0.49856
66 1 0.338692 0.660708 0.507627
53 1 0.421957 0.652297 0.498118
16 1 0.546744 0.611421 0.496344
15 1 0.701906 0.638204 0.499946
62 1 0.806027 0.668366 0.499898
63 1 0.869057 0.667023 0.491953
59 1 0.977487 0.633596 0.499361
19 1 0.0698956 0.715844 0.498531
20 1 0.228336 0.715485 0.500323
37 1 0.356192 0.754052 0.505173
29 1 0.471902 0.762552 0.494783
52 1 0.670309 0.757373 0.498176
9 1 0.801436 0.762913 0.49602
32 1 0.938139 0.724755 0.504437
57 1 0.00611795 0.823021 0.50073
12 1 0.127375 0.858271 0.500926
4 1 0.269779 0.864883 0.502251
80 1 0.536039 0.886569 0.501756
40 1 0.584207 0.821758 0.497555
2 1 0.434845 0.878883 0.495221
34 1 0.541459 0.974407 0.505668
67 1 0.628346 0.901825 0.495605
55 1 0.653433 0.982146 0.500513
6 1 0.73983 0.888645 0.502518
39 1 0.877604 0.859073 0.498809
31 1 0.992191 0.923759 0.503113
71 1 0.89017 0.956461 0.497752
ITEM: TIMESTEP
3000
ITEM: NUMBER OF ATOMS
63
ITEM: BOX BOUNDS pp pp pp
-4.7932266700812507e+00 4.7932266700812507e+00
-4.8047413954010878e+00 4.8047413954010878e+00
-1.0000000000000001e-01 1.0000000000000001e-01
ITEM: ATOMS id type xs ys zs
23 1 0.0995988 0.989878 0.504402
51 1 0.468039 0.067546 0.498524
50 1 0.551321 0.0883681 0.503671
56 1 0.648786 0.071212 0.49585
77 1 0.737319 0.995269 0.502223
22 1 0.820069 0.0295451 0.499522
68 1 0.838865 0.941202 0.495389
5 1 0.970223 0.0534042 0.499317
70 1 0.503489 0.147972 0.50438
11 1 0.603603 0.200065 0.499179
8 1 0.74528 0.148989 0.495519
18 1 0.893229 0.196951 0.50426
38 1 0.99473 0.287302 0.503331
17 1 0.313975 0.30711 0.500609
33 1 0.700078 0.328494 0.503494
46 1 0.788429 0.259513 0.50026
47 1 0.881784 0.322732 0.500687
54 1 0.0340327 0.377271 0.500854
1 1 0.229395 0.447593 0.49216
43 1 0.400344 0.400043 0.497382
78 1 0.327022 0.405143 0.499055
27 1 0.48716 0.47734 0.500811
42 1 0.605301 0.477965 0.507064
45 1 0.804158 0.367583 0.504279
58 1 0.841602 0.454186 0.502507
35 1 0.945609 0.429905 0.500844
30 1 0.0933969 0.46906 0.493699
72 1 0.26885 0.553816 0.506214
7 1 0.37022 0.543066 0.504249
79 1 0.630971 0.547889 0.500525
10 1 0.723657 0.462774 0.498554
13 1 0.862958 0.566722 0.498776
74 1 0.00212954 0.513619 0.503707
49 1 0.05674 0.581426 0.496307
25 1 0.163133 0.572094 0.497263
69 1 0.29217 0.6152 0.498296
66 1 0.337035 0.661876 0.508286
53 1 0.420307 0.653146 0.500165
16 1 0.544945 0.610733 0.497359
15 1 0.701339 0.638801 0.499044
62 1 0.805512 0.668778 0.500476
63 1 0.86813 0.667495 0.490534
59 1 0.977295 0.633464 0.498697
19 1 0.0695496 0.716604 0.500322
20 1 0.227699 0.715203 0.499571
37 1 0.356246 0.754621 0.505773
29 1 0.472307 0.762733 0.495884
52 1 0.669685 0.757304 0.498506
9 1 0.800576 0.763009 0.493962
32 1 0.937485 0.723949 0.506116
57 1 0.00596231 0.823629 0.498309
12 1 0.12711 0.859105 0.502141
4 1 0.269308 0.865278 0.502077
80 1 0.536551 0.886746 0.501674
40 1 0.584285 0.822331 0.496858
2 1 0.43546 0.879023 0.495625
34 1 0.541476 0.974558 0.505557
67 1 0.628191 0.902031 0.496437
55 1 0.653256 0.982091 0.500469
6 1 0.739928 0.889465 0.502456
39 1 0.876898 0.859308 0.499719
31 1 0.991763 0.924275 0.502988
71 1 0.890915 0.956869 0.499276
ITEM: TIMESTEP
3250
ITEM: NUMBER OF ATOMS
63
ITEM: BOX BOUNDS pp pp pp
-4.7920249469147675e+00 4.7920249469147675e+00
-4.8059536217502581e+00 4.8059536217502581e+00
-1.0000000000000001e-01 1.0000000000000001e-01
ITEM: ATOMS id type xs ys zs
23 1 0.0995538 0.990135 0.507198
51 1 0.468465 0.0673675 0.49884
50 1 0.55145 0.0888085 0.502594
56 1 0.648419 0.0708131 0.498779
77 1 0.738527 0.994274 0.502915
22 1 0.820722 0.0301854 0.498953
68 1 0.837787 0.94134 0.495946
5 1 0.970547 0.0536559 0.500386
70 1 0.504431 0.14865 0.504099
11 1 0.604714 0.199778 0.499869
8 1 0.74539 0.149663 0.49643
18 1 0.892522 0.197268 0.504691
38 1 0.995798 0.28672 0.502684
17 1 0.313648 0.306583 0.500208
33 1 0.699924 0.327039 0.501532
46 1 0.788649 0.259634 0.500305
47 1 0.882818 0.323296 0.501485
54 1 0.034338 0.37761 0.500548
1 1 0.229719 0.446815 0.492694
43 1 0.400131 0.399372 0.497368
78 1 0.327216 0.404428 0.497641
27 1 0.487938 0.475853 0.499722
42 1 0.605817 0.477493 0.506036
45 1 0.804314 0.366687 0.50232
58 1 0.841397 0.453424 0.502296
35 1 0.944848 0.430092 0.501149
30 1 0.0940003 0.468976 0.493327
72 1 0.269161 0.553285 0.506997
7 1 0.370553 0.542846 0.502947
79 1 0.631548 0.547968 0.500516
10 1 0.723162 0.461308 0.495904
13 1 0.863706 0.566427 0.499091
74 1 0.00249254 0.513214 0.502818
49 1 0.0567328 0.581205 0.497188
25 1 0.16425 0.572137 0.497376
69 1 0.292184 0.614854 0.499886
66 1 0.336742 0.661703 0.508704
53 1 0.419705 0.65231 0.499957
16 1 0.545084 0.610295 0.498209
15 1 0.701158 0.638888 0.498201
62 1 0.805166 0.667913 0.500976
63 1 0.868188 0.666902 0.490322
59 1 0.978262 0.633605 0.500181
19 1 0.0701676 0.71628 0.501295
20 1 0.22783 0.715566 0.499296
37 1 0.356129 0.754067 0.506112
29 1 0.471974 0.762753 0.496761
52 1 0.670544 0.757617 0.499448
9 1 0.801277 0.762573 0.492968
32 1 0.938017 0.723515 0.507204
57 1 0.00689906 0.824213 0.49881
12 1 0.127333 0.85915 0.502982
4 1 0.27008 0.865314 0.502091
80 1 0.537343 0.886573 0.501061
40 1 0.585083 0.821758 0.498051
2 1 0.435777 0.879504 0.494113
34 1 0.542014 0.974442 0.504359
67 1 0.627863 0.901717 0.496571
55 1 0.654098 0.981623 0.500343
6 1 0.739768 0.8881 0.501859
39 1 0.876908 0.859488 0.500316
31 1 0.991679 0.924574 0.500046
71 1 0.889822 0.956483 0.499686
ITEM: TIMESTEP
3500
ITEM: NUMBER OF ATOMS
63
ITEM: BOX BOUNDS pp pp pp
-4.7908232237482853e+00 4.7908232237482853e+00
-4.8064353886426447e+00 4.8064353886426447e+00
-1.0000000000000001e-01 1.0000000000000001e-01
ITEM: ATOMS id type xs ys zs
23 1 0.0995992 0.989953 0.506952
51 1 0.468967 0.0675919 0.498664
50 1 0.551785 0.0885822 0.504215
56 1 0.648897 0.0712194 0.49853
77 1 0.739587 0.993168 0.50377
22 1 0.821155 0.0297125 0.498341
68 1 0.838028 0.940585 0.495288
5 1 0.970082 0.0530586 0.498868
70 1 0.504314 0.148431 0.505393
11 1 0.604855 0.199874 0.49978
8 1 0.745547 0.149028 0.49463
18 1 0.89228 0.197621 0.508488
38 1 0.994663 0.287887 0.502717
17 1 0.312641 0.306446 0.498804
33 1 0.698697 0.327592 0.498992
46 1 0.787875 0.259491 0.501586
47 1 0.88158 0.324076 0.501881
54 1 0.0341127 0.377725 0.5004