LAMMPS (23 Jun 2022 - Update 4)
  using 1 OpenMP thread(s) per MPI task
# Compute elastic constant tensor for a crystal
#
# Written by Aidan Thompson (Sandia, athomps@sandia.gov)
#
#  This script uses the following three include files.
#
#   init.mod      (must be modified for different crystal structures)
# 	       	  Define units, deformation parameters and initial
#		  configuration of the atoms and simulation cell.
#
#
#   potential.mod    (must be modified for different pair styles)
# 		     Define pair style and other attributes
#		     not stored in restart file
#
#
#   displace.mod    (displace.mod should not need to be modified)
# 		    Perform positive and negative box displacements
# 		    in direction ${dir} and size ${up}.
# 		    It uses the resultant changes
#		    in stress to compute one
# 		    row of the elastic stiffness tensor
#
#		    Inputs variables:
#		    	   dir = the Voigt deformation component
#		    		    (1,2,3,4,5,6)
#		    Global constants:
#       	    	   up = the deformation magnitude (strain units)
#       		   cfac = conversion from LAMMPS pressure units to
#               	   output units for elastic constants
#
#
#  To run this on a different system, it should only be necessary to
#  modify the files init.mod and potential.mod. In order to calculate
#  the elastic constants correctly, care must be taken to specify
#  the correct units in init.mod (units, cfac and cunits). It is also
#  important to verify that the minimization of energy w.r.t atom
#  positions in the deformed cell is fully converged.
#  One indication of this is that the elastic constants are insensitive
#  to the choice of the variable ${up} in init.mod. Another is to check
#  the final max and two-norm forces reported in the log file. If you know
#  that minimization is not required, you can set maxiter = 0.0 in
#  init.mod.
#



variable dt equal 0.01
variable strain equal 0.05
variable srate equal 1e-4
variable M equal 1000 # averaging time for properties
variable strainsteps equal ${strain}/${dt}/${srate}
variable strainsteps equal 0.05/${dt}/${srate}
variable strainsteps equal 0.05/0.01/${srate}
variable strainsteps equal 0.05/0.01/0.0001


dimension 2
include init.mod
# NOTE: This script can be modified for different atomic structures,
# units, etc. See in.elastic for more info.
#

# Define the finite deformation size. Try several values of this
# variable to verify that results do not depend on it.
variable up equal 1.0e-1

# Define the amount of random jiggle for atoms
# This prevents atoms from staying on saddle points
variable atomjiggle equal 1.0e-6

# Uncomment one of these blocks, depending on what units
# you are using in LAMMPS and for output

# metal units, elastic constants in eV/A^3
#units		metal
#variable cfac equal 6.2414e-7
#variable cunits string eV/A^3

# Choose potential
# metal units, elastic constants in GPa
units		metal
atom_style	full
#pair_style      lj/cut 1.0
#pair_style      yukawa 1.0 2.0
#pair_modify     mix arithmetic
bond_style      harmonic
angle_style     harmonic
dihedral_style  zero
special_bonds   amber
variable cfac equal 1.0e-4
variable cunits string GPa
boundary	p p p

# Need to set mass to something, just to satisfy LAMMPS
#mass 1 1.0e-20
read_data network.lmp
Reading data file ...
  orthogonal box = (-4.806893 -4.806893 -0.1) to (4.806893 4.806893 0.1)
  1 by 1 by 1 MPI processor grid
WARNING: Atom style in data file differs from currently defined atom style (src/read_data.cpp:538)
  reading atoms ...
  63 atoms
WARNING: Bond style in data file differs from currently defined bond style (src/read_data.cpp:630)
  scanning bonds ...
  5 = max bonds/atom
  reading bonds ...
  135 bonds
Finding 1-2 1-3 1-4 neighbors ...
  special bond factors lj:    0        0        0.5     
  special bond factors coul:  0        0        0.8333333333333334
     7 = max # of 1-2 neighbors
    27 = max # of 1-3 neighbors
   144 = max # of 1-4 neighbors
    34 = max # of special neighbors
  special bonds CPU = 0.000 seconds
  read_data CPU = 0.003 seconds

# real units, elastic constants in GPa
#units		real
#variable cfac equal 1.01325e-4
#variable cunits string GPa

# Define minimization parameters
variable etol equal 0.0
variable ftol equal 5.0e-10
variable maxiter equal 100000
variable maxeval equal 20000
variable dmax equal 1.0e-2


include potential.mod
# NOTE: This script can be modified for different pair styles
# See in.elastic for more info.

# Setup neighbor style
neighbor 3.0 nsq
neigh_modify once no every 1 delay 0 check yes
comm_modify cutoff 2.0

# Setup minimization style
min_style	     cg
min_modify	     dmax ${dmax} line quadratic
min_modify	     dmax 0.01 line quadratic

timestep	0.001


# Setup output
thermo		500
thermo_style custom step temp pe ebond eangle edihed press pxx pyy pzz pxy pxz pyz lx ly lz vol
thermo_modify norm no


#change_box all triclinic
comm_modify mode single cutoff 10.0 vel yes
atom_modify sort 0 0



# Compute initial state

#dump rela all atom 1 traj_relax.lmpstrj
fix 3 all box/relax x 0 y 0 # xy 0  #MS comment: relax if the network is periodic
minimize ${etol} ${ftol} ${maxiter} ${maxeval}
minimize 0 ${ftol} ${maxiter} ${maxeval}
minimize 0 5e-10 ${maxiter} ${maxeval}
minimize 0 5e-10 100000 ${maxeval}
minimize 0 5e-10 100000 20000
Neighbor list info ...
  update every 1 steps, delay 0 steps, check yes
  max neighbors/atom: 2000, page size: 100000
  master list distance cutoff = 0
  ghost atom cutoff = 10
  0 neighbor lists, perpetual/occasional/extra = 0 0 0
WARNING: Inconsistent image flags (src/domain.cpp:819)
Per MPI rank memory allocation (min/avg/max) = 9.094 | 9.094 | 9.094 Mbytes
   Step          Temp          PotEng         E_bond        E_angle        E_dihed         Press           Pxx            Pyy            Pzz            Pxy            Pxz            Pyz             Lx             Ly             Lz           Volume    
         0   0              3.9453899e-11  3.9453899e-11  0              0             -0.15318106    -0.055513804   -0.25084832     0              0.049062766    0              0              9.613786       9.613786       0.2            92.424881    
       157   0              9.4941682e-20  9.4941682e-20  0              0              2.7562516e-07  4.5554849e-07  9.5701826e-08  0             -4.5378049e-06  0              0              9.6137853      9.6137854      0.2            92.424869    
Loop time of 0.0101732 on 1 procs for 157 steps with 63 atoms

100.0% CPU use with 1 MPI tasks x 1 OpenMP threads

Minimization stats:
  Stopping criterion = force tolerance
  Energy initial, next-to-last, final = 
    3.9453899256271e-11 1.20694676845506e-19 9.49416820598611e-20
  Force two-norm initial, final = 2.8262635e-05 4.8316385e-10
  Force max component initial, final = 1.4470707e-05 1.6289426e-10
  Final line search alpha, max atom move = 1 1.6289426e-10
  Iterations, force evaluations = 157 314

MPI task timing breakdown:
Section |  min time  |  avg time  |  max time  |%varavg| %total
---------------------------------------------------------------
Pair    | 0          | 0          | 0          |   0.0 |  0.00
Bond    | 0.0013831  | 0.0013831  | 0.0013831  |   0.0 | 13.60
Neigh   | 0          | 0          | 0          |   0.0 |  0.00
Comm    | 0.0030995  | 0.0030995  | 0.0030995  |   0.0 | 30.47
Output  | 0          | 0          | 0          |   0.0 |  0.00
Modify  | 0          | 0          | 0          |   0.0 |  0.00
Other   |            | 0.005691   |            |       | 55.94

Nlocal:             63 ave          63 max          63 min
Histogram: 1 0 0 0 0 0 0 0 0 0
Nghost:            540 ave         540 max         540 min
Histogram: 1 0 0 0 0 0 0 0 0 0
Neighs:              0 ave           0 max           0 min
Histogram: 1 0 0 0 0 0 0 0 0 0

Total # of neighbors = 0
Ave neighs/atom = 0
Ave special neighs/atom = 22.126984
Neighbor list builds = 0
Dangerous builds = 0
#dump rela all atom 1 traj_relax.lmpstrj
thermo 100
unfix 3

fix 2d all enforce2d



#dump dump0 all xyz 1000000 cfg0.xyz
#dump_modify dump0 format line "%d %20.10g %20.10g %20.10g"
#minimize ${etol} ${ftol} ${maxiter} ${maxeval}

#undump rela

#write_restart restart.equil

# These formulas define the derivatives w.r.t. strain components
# Constants uses $, variables use v_


timestep        ${dt}
timestep        0.01
variable nsteps equal round(${strainsteps})
variable nsteps equal round(50000)

fix             4 all nve
fix             5 all langevin 0.1 0.1 1 904297
#fix		6 all press/berendsen y  0.0 0.0 1 x 0.0 0.0 10
fix             6 all nph y 0.0 0.0 10 ptemp 0.1 # x 0.0 0.0 10

# For PLUMED2
# fix 22 all plumed plumedfile plumed.dat outfile plumed.out

#fix             6 all nph x 0.0 0.0 10
fix     	9 all deform 1 x erate -${srate} units box remap x
fix     	9 all deform 1 x erate -0.0001 units box remap x

#fix     8 all deform 1 xy erate ${srate} units box remap x



#fix    10 all ave/time

dump 1 all atom 250 deform_dump.lammpstrj


#To avoid flying ice cube phenomenon:
#fix 21 all momentum 100 linear 1 1 1 angular


run  ${nsteps}
run  50000
WARNING: One or more atoms are time integrated more than once (src/modify.cpp:292)
WARNING: Inconsistent image flags (src/domain.cpp:819)
Per MPI rank memory allocation (min/avg/max) = 7.969 | 7.969 | 7.969 Mbytes
   Step          Temp          PotEng         E_bond        E_angle        E_dihed         Press           Pxx            Pyy            Pzz            Pxy            Pxz            Pyz             Lx             Ly             Lz           Volume    
       157   0              9.4941682e-20  9.4941682e-20  0              0              2.7562516e-07  4.5554849e-07  9.5701826e-08  0             -4.5378049e-06  0              0              9.6137853      9.6137854      0.2            92.424869    
       200   0.12422304     0.00049844746  0.00049844746  0              0             -11.845994     -109.52684      85.649522      0              56.630547      0              0              9.6133719      9.6141604      0.2            92.4245      
       300   0.17954864     0.00070263066  0.00070263066  0              0              161.70507      249.29289      73.93991       0             -452.22479      0              0              9.6124106      9.6158431      0.2            92.431432    
       400   0.23154823     0.00082924118  0.00082924118  0              0              127.99685      260.36624     -4.5521067      0             -372.41554      0              0              9.6114492      9.6083008      0.2            92.349695    
       500   0.15483478     0.00087689709  0.00087689709  0              0             -125.10468     -181.67939     -68.755675      0              239.14875      0              0              9.6104878      9.6157227      0.2            92.411786    
       600   0.21495413     0.0010498485   0.0010498485   0              0              831.27691      1733.2639     -70.872218      0             -355.86128      0              0              9.6095264      9.6046466      0.2            92.296105    
       700   0.2442793      0.0010780732   0.0010780732   0              0              346.73816      738.72921     -45.437377      0             -115.38585      0              0              9.608565       9.5959705      0.2            92.203507    
       800   0.24034959     0.0011236911   0.0011236911   0              0              569.19444      942.26889      195.92346      0             -169.33211      0              0              9.6076037      9.5926946      0.2            92.162808    
       900   0.15662249     0.0010657192   0.0010657192   0              0              227.91301      245.53363      210.14389      0              47.201825      0              0              9.6066423      9.6065926      0.2            92.287099    
      1000   0.18341723     0.00098118325  0.00098118325  0              0              370.18615      376.86593      363.32336      0              173.89119      0              0              9.6056809      9.5956452      0.2            92.172706    
      1100   0.242826       0.0012125551   0.0012125551   0              0             -7.0783446     -297.04238      282.68708      0              182.84747      0              0              9.6047195      9.60075        0.2            92.212511    
      1200   0.25532114     0.00095560686  0.00095560686  0              0             -887.85893     -1917.6262      141.69732      0             -98.122313      0              0              9.6037582      9.6059398      0.2            92.253123    
      1300   0.2266624      0.00096442338  0.00096442338  0              0             -63.399467      69.752584     -196.70821      0             -508.13994      0              0              9.6027968      9.6080475      0.2            92.264128    
      1400   0.19085498     0.0008262073   0.0008262073   0              0             -279.15131     -286.11423     -272.39104      0             -420.9235       0              0              9.6018354      9.604263       0.2            92.218553    
      1500   0.18560413     0.00093561512  0.00093561512  0              0             -640.4874      -789.01419     -492.12756      0             -72.589295      0              0              9.600874       9.5997966      0.2            92.166438    
      1600   0.26647126     0.001070405    0.001070405    0              0             -48.287704      360.05155     -456.82595      0             -277.81191      0              0              9.5999126      9.6062705      0.2            92.219358    
      1700   0.17619622     0.00089331504  0.00089331504  0              0             -619.09412     -925.63826     -312.73753      0              202.81849      0              0              9.5989513      9.6059916      0.2            92.207445    
      1800   0.22104905     0.0010114274   0.0010114274   0              0             -344.62336     -463.40945     -226.02083      0              197.05888      0              0              9.5979899      9.5992474      0.2            92.13348     
      1900   0.22953334     0.0010442668   0.0010442668   0              0             -64.208497     -133.52201      4.9300659      0             -437.14074      0              0              9.5970285      9.6065669      0.2            92.194497    
      2000   0.16518522     0.0010137507   0.0010137507   0              0              47.561626     -230.6645       325.59142      0             -93.689068      0              0              9.5960671      9.5951532      0.2            92.075734    
      2100   0.21212114     0.0010709573   0.0010709573   0              0              499.58563      257.35058      741.66079      0              186.32659      0              0              9.5951057      9.5935271      0.2            92.050907    
      2200   0.23484611     0.0010192002   0.0010192002   0              0              1040.9741      1176.9894      904.7887       0              193.75088      0              0              9.5941444      9.593438       0.2            92.040829    
      2300   0.17849559     0.0010702749   0.0010702749   0              0              438.03595      369.82894      506.07327      0             -761.03963      0              0              9.593183       9.5913131      0.2            92.011222    
      2400   0.2513267      0.0009500277   0.0009500277   0              0              211.06448      473.35722     -51.464718      0              189.67264      0              0              9.5922216      9.5938611      0.2            92.026441    
      2500   0.22022176     0.0014238784   0.0014238784   0              0             -669.42171     -775.30527     -563.76483      0              608.38227      0              0              9.5912602      9.6087742      0.2            92.160254    
      2600   0.17748562     0.001067049    0.001067049    0              0             -994.60619     -1052.4826     -936.88832      0              832.27489      0              0              9.5902989      9.6048644      0.2            92.11352     
      2700   0.17791892     0.00094700723  0.00094700723  0              0             -273.32354      533.56294     -1080.3735      0              81.758263      0              0              9.5893375      9.5986531      0.2            92.044724    
      2800   0.18494544     0.0010503474   0.0010503474   0              0              68.95979       764.72178     -626.99035      0              684.25968      0              0              9.5883761      9.6070693      0.2            92.116194    
      2900   0.18633764     0.00095398968  0.00095398968  0              0              43.381572      62.968281      23.649812      0              63.807825      0              0              9.5874147      9.6060838      0.2            92.097509    
      3000   0.1875651      0.00092573639  0.00092573639  0              0              306.17993     -51.864995      664.05019      0              135.43622      0              0              9.5864533      9.6094828      0.2            92.120858    
      3100   0.21016978     0.0011850883   0.0011850883   0              0              449.64738     -78.926956      978.01133      0              272.38222      0              0              9.585492       9.6094005      0.2            92.110831    
      3200   0.2134727      0.0010750899   0.0010750899   0              0              512.56451     -144.20285      1169.1234      0             -550.65533      0              0              9.5845306      9.6025352      0.2            92.035792    
      3300   0.19613234     0.0008763799   0.0008763799   0              0              1136.0835      1433.5481      838.41527      0              255.52486      0              0              9.5835692      9.6029675      0.2            92.030703    
      3400   0.21716407     0.0010521757   0.0010521757   0              0              311.76316      334.01691      289.33921      0              264.7079       0              0              9.5826078      9.6024731      0.2            92.016734    
      3500   0.2175708      0.0011477462   0.0011477462   0              0              620.98087      1650.5806     -408.82326      0             -57.782592      0              0              9.5816464      9.6128708      0.2            92.107129    
      3600   0.19860151     0.0013039709   0.0013039709   0              0              220.10659      1249.8613     -809.85905      0              462.3006       0              0              9.5806851      9.6090957      0.2            92.06172     
      3700   0.1923548      0.0012280396   0.0012280396   0              0             -89.419446      672.87091     -851.93713      0              556.12122      0              0              9.5797237      9.6124574      0.2            92.084686    
      3800   0.24171053     0.00089971594  0.00089971594  0              0             -185.77165      506.23757     -877.94789      0              322.53872      0              0              9.5787623      9.6151818      0.2            92.101541    
      3900   0.2174387      0.001124538    0.001124538    0              0              138.95472      815.78599     -538.08945      0              363.40234      0              0              9.5778009      9.6128458      0.2            92.069923    
      4000   0.20007453     0.0010057195   0.0010057195   0              0              333.2407       733.69607     -67.412268      0              388.88635      0              0              9.5768396      9.6091206      0.2            92.025007    
      4100   0.15858531     0.0011613528   0.0011613528   0              0              594.94161      798.94174      390.76938      0              489.19661      0              0              9.5758782      9.5925664      0.2            91.857248    
      4200   0.20930452     0.0010285071   0.0010285071   0              0              1191.058       1696.4642      685.47359      0             -99.44454       0              0              9.5749168      9.5853424      0.2            91.778856    
      4300   0.22100522     0.0011811582   0.0011811582   0              0              1094.3784      1388.5766      800.00973      0             -65.255169      0              0              9.5739554      9.5918883      0.2            91.832311    
      4400   0.19368374     0.0012456493   0.0012456493   0              0              1599.5814      2656.992       542.00541      0              320.06076      0              0              9.572994       9.5921576      0.2            91.825668    
      4500   0.23159784     0.0012414923   0.0012414923   0              0              929.34935      1619.4701      239.02295      0              223.58599      0              0              9.5720327      9.5944269      0.2            91.838167    
      4600   0.21727269     0.0014217947   0.0014217947   0              0              952.52315      1950.5295     -45.672396      0             -185.9067       0              0              9.5710713      9.5926802      0.2            91.812226    
      4700   0.2117288      0.0011728314   0.0011728314   0              0              684.03285      1708.1615     -340.26849      0              227.85335      0              0              9.5701099      9.5984722      0.2            91.858434    
      4800   0.23723855     0.0015235337   0.0015235337   0              0              802.93004      1946.0329     -340.36339      0              184.3577       0              0              9.5691485      9.5941712      0.2            91.80805     
      4900   0.16202147     0.0010876383   0.0010876383   0              0              927.75418      2177.7114     -322.42045      0             -68.168387      0              0              9.5681871      9.5810958      0.2            91.673717    
      5000   0.22736395     0.0011178014   0.0011178014   0              0              1469.7855      3351.0627     -411.70425      0              322.3903       0              0              9.5672258      9.5817587      0.2            91.670849    
      5100   0.17429142     0.0012292776   0.0012292776   0              0              955.3935       2190.3558     -279.75989      0              212.60393      0              0              9.5662644      9.5919213      0.2            91.758855    
      5200   0.27145763     0.0012645549   0.0012645549   0              0              469.47317      861.49518      77.271087      0             -82.172672      0              0              9.565303       9.5985627      0.2            91.813161    
      5300   0.22458914     0.0011834257   0.0011834257   0              0              462.3521       612.13485      312.37461      0             -322.94742      0              0              9.5643416      9.5992912      0.2            91.8109      
      5400   0.24642724     0.0011983538   0.0011983538   0              0              550.34767      595.319        505.20785      0             -740.12563      0              0              9.5633803      9.6047073      0.2            91.853468    
      5500   0.23323053     0.0013193121   0.0013193121   0              0              1036.412       1509.5058      563.13831      0             -209.77729      0              0              9.5624189      9.6053577      0.2            91.850454    
      5600   0.19580775     0.0013979209   0.0013979209   0              0              966.17656      1596.3353      335.82833      0             -5.478109       0              0              9.5614575      9.6020581      0.2            91.809671    
      5700   0.21246275     0.0012731637   0.0012731637   0              0              577.6164       1110.0691      44.952777      0              305.32305      0              0              9.5604961      9.6061217      0.2            91.839289    
      5800   0.18841751     0.0011729229   0.0011729229   0              0              424.17237      1136.1049     -287.92744      0              22.261845      0              0              9.5595347      9.6011879      0.2            91.782889    
      5900   0.25219952     0.00094475564  0.00094475564  0              0              225.87873      902.93614     -451.39747      0             -825.69575      0              0              9.5585734      9.6031112      0.2            91.792043    
      6000   0.20999125     0.0010636789   0.0010636789   0              0             -11.727455      438.62326     -462.27809      0              270.76604      0              0              9.557612       9.6100675      0.2            91.849296    
      6100   0.20214733     0.0010254098   0.0010254098   0              0             -184.43238     -31.623795     -337.45579      0             -163.4653       0              0              9.5566506      9.6148792      0.2            91.886042    
      6200   0.20152649     0.00094563249  0.00094563249  0              0              733.94952      1622.8967     -155.22622      0             -234.84263      0              0              9.5556892      9.6083953      0.2            91.81484     
      6300   0.198975       0.0011213819   0.0011213819   0              0              680.60161      1302.2605      58.722618      0             -212.47197      0              0              9.5547278      9.6178509      0.2            91.895947    
      6400   0.18505396     0.0009693869   0.0009693869   0              0              577.62984      893.21944      261.86932      0              256.18863      0              0              9.5537665      9.6174765      0.2            91.883124    
      6500   0.19457196     0.0016458648   0.0016458648   0              0              881.84179      1302.0924      461.40988      0             -62.445773      0              0              9.5528051      9.6152377      0.2            91.852492    
      6600   0.2010643      0.00094980177  0.00094980177  0              0              859.64778      1173.4469      545.65783      0              805.07885      0              0              9.5518437      9.6185048      0.2            91.874455    
      6700   0.22179561     0.0011052757   0.0011052757   0              0              830.50176      1243.8882      416.94306      0              113.67271      0              0              9.5508823      9.6258088      0.2            91.934968    
      6800   0.22048803     0.00099199927  0.00099199927  0              0              270.40975      185.91568      354.70991      0              484.30301      0              0              9.549921       9.6273665      0.2            91.940589    
      6900   0.16174291     0.0011076475   0.0011076475   0              0              167.89053      214.4032       121.17639      0              204.11667      0              0              9.5489596      9.6309271      0.2            91.965334    
      7000   0.17858349     0.0011226224   0.0011226224   0              0             -85.787451     -131.30901     -40.479714      0              521.59093      0              0              9.5479982      9.6281412      0.2            91.929475    
      7100   0.18145721     0.00095450502  0.00095450502  0              0             -299.07618     -357.22067     -241.12472      0              284.91617      0              0              9.5470368      9.6204248      0.2            91.846549    
      7200   0.17793822     0.0011950569   0.0011950569   0              0             -357.1503      -223.19197     -491.28421      0              894.94366      0              0              9.5460754      9.612205       0.2            91.758835    
      7300   0.20981091     0.001110018    0.001110018    0              0             -863.32576     -1186.066      -540.77902      0              259.62728      0              0              9.5451141      9.6026294      0.2            91.658193    
      7400   0.18554908     0.0012148706   0.0012148706   0              0             -626.0937      -687.60933     -564.77583      0              76.384839      0              0              9.5441527      9.6002561      0.2            91.62631     
      7500   0.21582177     0.0013171013   0.0013171013   0              0             -228.77142      93.923586     -551.69575      0             -86.654066      0              0              9.5431913      9.5953988      0.2            91.570726    
      7600   0.2187323      0.0011552603   0.0011552603   0              0             -264.27819      51.962851     -580.68725      0              489.22161      0              0              9.5422299      9.6025792      0.2            91.630018    
      7700   0.23236067     0.0010265106   0.0010265106   0              0              113.38209      696.30373     -469.71163      0             -213.55569      0              0              9.5412685      9.6030535      0.2            91.625312    
      7800   0.24411909     0.0012578327   0.0012578327   0              0              3.4157687      449.15081     -442.51921      0             -168.96788      0              0              9.5403072      9.6063103      0.2            91.647151    
      7900   0.23856521     0.0010022482   0.0010022482   0              0             -16.835913      160.1187      -194.00653      0              428.34473      0              0              9.5393458      9.6020489      0.2            91.597265    
      8000   0.2266482      0.0010037133   0.0010037133   0              0              477.51147      1082.4074     -127.55554      0             -4.0077352      0              0              9.5383844      9.6021042      0.2            91.588561    
      8100   0.18225958     0.0011952421   0.0011952421   0              0              165.09986      401.54692     -71.557496      0              231.29833      0              0              9.537423       9.6079258      0.2            91.634853    
      8200   0.17418741     0.0010384723   0.0010384723   0              0              648.73413      1113.4064      183.89559      0             -149.87529      0              0              9.5364617      9.6076956      0.2            91.62342     
      8300   0.19344904     0.0011862857   0.0011862857   0              0              702.17838      933.43119      470.75902      0             -44.413456      0              0              9.5355003      9.6023824      0.2            91.56352     
      8400   0.24626301     0.0010832778   0.0010832778   0              0              847.97803      1198.8122      496.95667      0              165.03344      0              0              9.5345389      9.6155775      0.2            91.680098    
      8500   0.22500881     0.0010228497   0.0010228497   0              0              652.63481      817.393        487.67903      0             -274.15803      0              0              9.5335775      9.6233173      0.2            91.744642    
      8600   0.24504363     0.00098418615  0.00098418615  0              0              965.83551      1413.2305      518.24486      0             -8.2258435      0              0              9.5326161      9.6214622      0.2            91.717706    
      8700   0.15950422     0.0010998752   0.0010998752   0              0              681.6131       947.50212      415.48603      0             -461.82933      0              0              9.5316548      9.6208964      0.2            91.703063    
      8800   0.20235887     0.00098881613  0.00098881613  0              0              462.38112      796.63228      127.96103      0             -13.331218      0              0              9.5306934      9.6178748      0.2            91.665016    
      8900   0.22369352     0.0011849654   0.0011849654   0              0              584.43748      1096.9769      71.737581      0              397.19869      0              0              9.529732       9.6230768      0.2            91.705343    
      9000   0.24964727     0.00095677227  0.00095677227  0              0             -390.22934     -721.15531     -59.474459      0             -113.84826      0              0              9.5287706      9.6461986      0.2            91.916414    
      9100   0.16581136     0.0011469425   0.0011469425   0              0             -154.05502     -266.33297     -41.968847      0              166.03899      0              0              9.5278092      9.6581346      0.2            92.020864    
      9200   0.24806016     0.0010958007   0.0010958007   0              0              432.68985      984.98504     -119.81502      0              129.96886      0              0              9.5268479      9.650082       0.2            91.934863    
      9300   0.21368883     0.0010845824   0.0010845824   0              0              769.26316      1800.5173     -262.14368      0             -365.43627      0              0              9.5258865      9.6540559      0.2            91.963441    
      9400   0.18990251     0.0012221846   0.0012221846   0              0              22.926028      370.34579     -324.69881      0              231.69056      0              0              9.5249251      9.6601202      0.2            92.011922    
      9500   0.19352232     0.0011396734   0.0011396734   0              0             -459.62105     -453.9652      -465.45273      0             -51.224888      0              0              9.5239637      9.6662712      0.2            92.061217    
      9600   0.2309915      0.0011731754   0.0011731754   0              0              71.023613      751.01396     -609.19287      0             -704.0704       0              0              9.5230024      9.6606632      0.2            91.998518    
      9700   0.22132815     0.0010392801   0.0010392801   0              0             -326.81019      10.760639     -664.5343       0              252.68868      0              0              9.522041       9.6553777      0.2            91.938902    
      9800   0.18348139     0.0011364257   0.0011364257   0              0             -106.05797      415.0667      -627.38812      0             -336.14774      0              0              9.5210796      9.6613316      0.2            91.986308    
      9900   0.18410197     0.0009909098   0.0009909098   0              0              0.77010583     682.48607     -681.1466       0             -328.6088       0              0              9.5201182      9.6696829      0.2            92.056524    
     10000   0.26197747     0.00093967747  0.00093967747  0              0             -239.68409      245.10753     -724.66623      0              764.55746      0              0              9.5191568      9.6684431      0.2            92.035426    
     10100   0.21743654     0.00098759391  0.00098759391  0              0              13.719461      699.9251      -672.66846      0              134.80411      0              0              9.5181955      9.6662722      0.2            92.005468    
     10200   0.17448899     0.0010534317   0.0010534317   0              0             -62.740106      500.01915     -625.70166      0              7.3827503      0              0              9.5172341      9.6811734      0.2            92.137993    
     10300   0.22953819     0.0011165081   0.0011165081   0              0             -144.4069       276.3986      -565.40267      0             -67.418378      0              0              9.5162727      9.675941       0.2            92.078893    
     10400   0.24245798     0.00092989503  0.00092989503  0              0              18.361051      552.72787     -516.20586      0              320.47019      0              0              9.5153113      9.6707641      0.2            92.020331    
     10500   0.22018551     0.001040162    0.001040162    0              0              387.88586      1203.8009     -428.20995      0              518.98332      0              0              9.51435        9.6656996      0.2            91.962849    
     10600   0.23899942     0.0013278538   0.0013278538   0              0             -49.387845      156.53219     -255.49888      0              112.84135      0              0              9.5133886      9.6655268      0.2            91.951912    
     10700   0.19166913     0.001230325    0.001230325    0              0              612.30713      1303.1245     -78.740975      0              859.90174      0              0              9.5124272      9.6703084      0.2            91.988105    
     10800   0.21940554     0.0011281546   0.0011281546   0              0              199.89644      463.96442     -64.351291      0              312.88403      0              0              9.5114658      9.6591667      0.2            91.872834    
     10900   0.18713284     0.0011370933   0.0011370933   0              0              687.08828      1298.8402      75.186525      0             -304.77506      0              0              9.5105044      9.6640473      0.2            91.909964    
     11000   0.20044178     0.001055501    0.001055501    0              0              1085.4375      2008.6621      162.00515      0              44.114051      0              0              9.5095431      9.6652419      0.2            91.912034    
     11100   0.20331563     0.0011221669   0.0011221669   0              0              702.05132      1135.2845      268.63582      0             -50.06335       0              0              9.5085817      9.6536808      0.2            91.792812    
     11200   0.17516242     0.0010023593   0.0010023593   0              0              859.29644      1334.3486      384.08095      0             -679.88544      0              0              9.5076203      9.6512223      0.2            91.760157    
     11300   0.15815612     0.0010994806   0.0010994806   0              0              459.19335      469.50906      448.72438      0              640.41363      0              0              9.5066589      9.6477785      0.2            91.71814     
     11400   0.22148608     0.0010874775   0.0010874775   0              0              437.25663      314.72675      559.59704      0              174.28912      0              0              9.5056975      9.6473389      0.2            91.704686    
     11500   0.1633648      0.00081388331  0.00081388331  0              0              1108.8843      1644.927       572.64799      0              131.51986      0              0              9.5047362      9.6547261      0.2            91.765625    
     11600   0.18931165     0.00088079397  0.00088079397  0              0              1083.5435      1520.9586      645.9161       0              103.60528      0              0              9.5037748      9.6543452      0.2            91.752723    
     11700   0.21419695     0.00092623911  0.00092623911  0              0              568.57079      311.73157      825.24184      0              505.85143      0              0              9.5028134      9.661613       0.2            91.812506    
     11800   0.23207608     0.0010665725   0.0010665725   0              0              1024.1433      1162.8451      885.22311      0             -133.33973      0              0              9.501852       9.6687042      0.2            91.870596    
     11900   0.14496944     0.0011745653   0.0011745653   0              0              1324.0315      1661.6004      986.25281      0             -96.929374      0              0              9.5008907      9.6621967      0.2            91.799474    
     12000   0.19401715     0.001211392    0.001211392    0              0              1203.5367      1313.2202      1093.6558      0             -507.43754      0              0              9.4999293      9.6584202      0.2            91.754308    
     12100   0.18053919     0.0011492602   0.0011492602   0              0              1677.0196      2039.3046      1314.5533      0             -243.26485      0              0              9.4989679      9.6592339      0.2            91.752752    
     12200   0.22288577     0.0011239648   0.0011239648   0              0              1308.9582      1185.6513      1432.0753      0             -268.07387      0              0              9.4980065      9.6631254      0.2            91.780428    
     12300   0.23087568     0.0011160881   0.0011160881   0              0              1864.227       2280.457       1447.8171      0              72.595088      0              0              9.4970451      9.6695404      0.2            91.832062    
     12400   0.23490152     0.0012544659   0.0012544659   0              0              1495.4136      1573.9794      1416.6582      0              255.83385      0              0              9.4960838      9.6740298      0.2            91.865397    
     12500   0.22243394     0.001033469    0.001033469    0              0              1407.9793      1371.3064      1444.4732      0             -257.49345      0              0              9.4951224      9.6714874      0.2            91.831957    
     12600   0.20753117     0.0010547535   0.0010547535   0              0              2272.5511      3213.2861      1331.6561      0             -446.82584      0              0              9.494161       9.6583041      0.2            91.697494    
     12700   0.18142924     0.0011067022   0.0011067022   0              0              1764.9983      2180.4167      1349.3757      0             -372.34799      0              0              9.4931996      9.6617435      0.2            91.72086     
     12800   0.20625693     0.0010995603   0.0010995603   0              0              1457.9749      1490.157       1425.5663      0             -250.77595      0              0              9.4922382      9.6724215      0.2            91.812929    
     12900   0.19689344     0.0011745395   0.0011745395   0              0              940.12247      417.93217      1462.1426      0              73.366837      0              0              9.4912769      9.6667975      0.2            91.750251    
     13000   0.18153672     0.0013294272   0.0013294272   0              0              1293.2246      1307.2227      1279.0369      0             -517.17975      0              0              9.4903155      9.6691969      0.2            91.763729    
     13100   0.22726215     0.001283893    0.001283893    0              0              651.56583      240.81959      1062.1659      0             -531.85037      0              0              9.4893541      9.6809009      0.2            91.865497    
     13200   0.18626939     0.0012665611   0.0012665611   0              0              503.63428      142.21069      864.87173      0              44.986173      0              0              9.4883927      9.6897708      0.2            91.940351    
     13300   0.19711816     0.00119869     0.00119869     0              0              405.86219      28.283383      783.25508      0             -611.93377      0              0              9.4874314      9.6805455      0.2            91.843511    
     13400   0.19254839     0.0010343136   0.0010343136   0              0              757.64061      918.20383      596.91865      0              450.92807      0              0              9.48647        9.6840785      0.2            91.86772     
     13500   0.22542702     0.0013904391   0.0013904391   0              0              709.0558       955.30351      462.63389      0              259.52289      0              0              9.4855086      9.6896619      0.2            91.911372    
     13600   0.18553588     0.0010470327   0.0010470327   0              0              813.39098      1271.1449      355.43628      0              163.78023      0              0              9.4845472      9.7037994      0.2            92.036143    
     13700   0.17654296     0.0011939793   0.0011939793   0              0              1171.6854      1977.7877      365.40297      0             -70.712788      0              0              9.4835858      9.6955391      0.2            91.948478    
     13800   0.15957175     0.0010744475   0.0010744475   0              0              862.41595      1415.1088      309.51752      0              403.60133      0              0              9.4826245      9.7089198      0.2            92.06604     
     13900   0.22554704     0.0010782726   0.0010782726   0              0              792.81601      1270.6348      314.84056      0             -391.46019      0              0              9.4816631      9.7210228      0.2            92.171463    
     14000   0.20825574     0.0012736951   0.0012736951   0              0              693.26955      1117.7937      268.54147      0              27.349748      0              0              9.4807017      9.7159693      0.2            92.114207    
     14100   0.22790664     0.001288804    0.001288804    0              0              563.00303      748.11898      377.71841      0              297.05557      0              0              9.4797403      9.7212293      0.2            92.154729    
     14200   0.16621746     0.00092215364  0.00092215364  0              0              693.08639      1052.8565      333.16775      0              159.15549      0              0              9.4787789      9.7232337      0.2            92.164383    
     14300   0.21072377     0.0008426499   0.0008426499   0              0              572.78491      618.72446      526.67822      0             -157.69576      0              0              9.4778176      9.7236507      0.2            92.158988    
     14400   0.17908497     0.0013533595   0.0013533595   0              0              1283.3409      2033.3155      533.14882      0              844.91093      0              0              9.4768562      9.7231383      0.2            92.144784    
     14500   0.26256884     0.0013404863   0.0013404863   0              0              514.40134      437.89973      590.69071      0              299.12402      0              0              9.4758948      9.720279       0.2            92.108342    
     14600   0.2024712      0.0011893642   0.0011893642   0              0              628.05422      544.56899      711.3587       0             -288.69205      0              0              9.4749334      9.7254443      0.2            92.147937    
     14700   0.17378004     0.0011077245   0.0011077245   0              0              1017.0596      1232.3508      801.61182      0             -457.26007      0              0              9.4739721      9.720723       0.2            92.093858    
     14800   0.23531326     0.0012975041   0.0012975041   0              0              607.10199      472.55097      741.50594      0             -114.12712      0              0              9.4730107      9.7339812      0.2            92.210108    
     14900   0.20600407     0.0011300431   0.0011300431   0              0              1127.9961      1460.2727      795.54197      0             -378.36711      0              0              9.4720493      9.7267028      0.2            92.131808    
     15000   0.23117037     0.0011865511   0.0011865511   0              0              205.41541     -244.76807      655.39267      0             -317.10725      0              0              9.4710879      9.7439698      0.2            92.285994    
     15100   0.22701878     0.0011819872   0.0011819872   0              0              515.35594      418.31818      612.18353      0              118.2222       0              0              9.4701265      9.7355068      0.2            92.196481    
     15200   0.22355544     0.001087941    0.001087941    0              0              1212.5643      1959.5893      465.38027      0              190.95279      0              0              9.4691652      9.7359216      0.2            92.191049    
     15300   0.22555518     0.0012510128   0.0012510128   0              0              851.15441      1186.5773      515.55722      0             -150.39924      0              0              9.4682038      9.7285361      0.2            92.111762    
     15400   0.23076175     0.0012068926   0.0012068926   0              0              649.23164      814.39314      483.869        0             -1018.9452      0              0              9.4672424      9.7203986      0.2            92.025369    
     15500   0.20407028     0.001095223    0.001095223    0              0              960.13877      1468.7638      451.34704      0             -83.297089      0              0              9.466281       9.7294658      0.2            92.101857    
     15600   0.18786962     0.0012333104   0.0012333104   0              0              419.66163      306.85625      532.27571      0             -172.54301      0              0              9.4653196      9.7451028      0.2            92.240513    
     15700   0.21517538     0.0011890405   0.0011890405   0              0              707.256        943.68437      470.66163      0             -230.96286      0              0              9.4643583      9.7378579      0.2            92.162576    
     15800   0.19112473     0.0012598607   0.0012598607   0              0              497.18664      502.43245      491.7458       0              430.94606      0              0              9.4633969      9.7449456      0.2            92.220288    
     15900   0.22125352     0.0011866142   0.0011866142   0              0              1176.5262      1981.5129      371.37827      0              548.35186      0              0              9.4624355      9.7384561      0.2            92.149513    
     16000   0.19068798     0.0013862468   0.0013862468   0              0              605.09316      1008.4042      201.59638      0             -377.81743      0              0              9.4614741      9.7500377      0.2            92.249729    
     16100   0.24151323     0.0012055347   0.0012055347   0              0              1570.8054      3019.1038      122.32272      0              337.00146      0              0              9.4605128      9.7386378      0.2            92.132507    
     16200   0.20526771     0.0011336334   0.0011336334   0              0              631.66162      1263.5663     -0.42715154     0             -59.271187      0              0              9.4595514      9.7373125      0.2            92.110608    
     16300   0.25609872     0.0012220438   0.0012220438   0              0             -94.435721     -71.20862      -117.83606      0             -23.51574       0              0              9.45859        9.7492615      0.2            92.214267    
     16400   0.23446318     0.001096441    0.001096441    0              0             -56.996281      175.44292     -289.61828      0             -357.59745      0              0              9.4576286      9.749683       0.2            92.208881    
     16500   0.16266983     0.0012658472   0.0012658472   0              0              8.6652116      312.65083     -295.48631      0             -125.53145      0              0              9.4566672      9.7419866      0.2            92.126726    
     16600   0.21059526     0.001191817    0.001191817    0              0              134.12303      642.56691     -374.55021      0             -487.89562      0              0              9.4557059      9.7406734      0.2            92.104943    
     16700   0.17732302     0.0012895289   0.0012895289   0              0             -224.54251     -48.319063     -400.92937      0             -64.685426      0              0              9.4547445      9.7482673      0.2            92.167377    
     16800   0.2053261      0.00097165029  0.00097165029  0              0              203.75348      726.56708     -319.22072      0              152.46608      0              0              9.4537831      9.7504354      0.2            92.178502    
     16900   0.20217996     0.0011355427   0.0011355427   0              0              440.14849      1198.3989     -318.28894      0             -107.61152      0              0              9.4528217      9.7560464      0.2            92.222167    
     17000   0.1976803      0.0012609527   0.0012609527   0              0              411.71496      1007.6669     -184.41299      0             -427.35449      0              0              9.4518603      9.7632381      0.2            92.280763    
     17100   0.17365698     0.0013255916   0.0013255916   0              0              171.71736      507.60833     -164.34089      0             -823.68483      0              0              9.450899       9.7631348      0.2            92.270401    
     17200   0.15002999     0.0010840913   0.0010840913   0              0              660.20378      1398.3294     -78.125807      0              187.7361       0              0              9.4499376      9.7582109      0.2            92.214484    
     17300   0.18044376     0.001109374    0.001109374    0              0              479.87245      1039.5639     -79.997322      0             -91.431549      0              0              9.4489762      9.7642136      0.2            92.261822    
     17400   0.22321592     0.0010179851   0.0010179851   0              0              178.51307      489.87646     -133.05626      0              753.38112      0              0              9.4480148      9.7570716      0.2            92.184957    
     17500   0.22424853     0.00096610973  0.00096610973  0              0             -111.2356      -74.826239     -147.87247      0             -199.34188      0              0              9.4470535      9.7601412      0.2            92.204576    
     17600   0.20521447     0.001070983    0.001070983    0              0              267.4519       696.67055     -162.00572      0              209.79727      0              0              9.4460921      9.7623328      0.2            92.215894    
     17700   0.18421235     0.001086875    0.001086875    0              0              136.4995       344.41143     -71.610419      0              203.82822      0              0              9.4451307      9.7733758      0.2            92.310812    
     17800   0.20205466     0.0011545541   0.0011545541   0              0             -158.3438      -314.1465      -2.7420587      0              181.75733      0              0              9.4441693      9.7806147      0.2            92.369781    
     17900   0.20816218     0.0011539932   0.0011539932   0              0              265.42185      307.01729      223.68002      0             -208.24529      0              0              9.4432079      9.7655297      0.2            92.217927    
     18000   0.18226886     0.0011178595   0.0011178595   0              0              713.74117      982.75766      444.53317      0              452.2365       0              0              9.4422466      9.7733556      0.2            92.282433    
     18100   0.15896028     0.0014325149   0.0014325149   0              0              626.8138       784.34418      469.12899      0              15.778442      0              0              9.4412852      9.7695847      0.2            92.237435    
     18200   0.20280936     0.0014476741   0.0014476741   0              0              1273.1471      1932.8435      613.27309      0              356.04277      0              0              9.4403238      9.7653759      0.2            92.18831     
     18300   0.2143626      0.0011945394   0.0011945394   0              0              1095.3248      1488.038       702.38001      0             -244.45866      0              0              9.4393624      9.7678901      0.2            92.202655    
     18400   0.22050606     0.0011866588   0.0011866588   0              0              410.73257      234.20816      587.04177      0              201.61361      0              0              9.438401       9.7712538      0.2            92.225012    
     18500   0.22565258     0.0010803742   0.0010803742   0              0              689.92018      916.75187      462.95208      0             -447.00721      0              0              9.4374397      9.7744582      0.2            92.24586     
     18600   0.22099147     0.0013111229   0.0013111229   0              0              1165.8696      1852.1359      479.4085       0              339.13856      0              0              9.4364783      9.7721587      0.2            92.214764    
     18700   0.18862585     0.0010841255   0.0010841255   0              0              615.81634      852.1601       379.25727      0              325.29121      0              0              9.4355169      9.7815481      0.2            92.293962    
     18800   0.19232513     0.0010149259   0.0010149259   0              0              620.83089      1042.7467      198.75052      0              172.15007      0              0              9.4345555      9.7803343      0.2            92.273108    
     18900   0.22804003     0.001078612    0.001078612    0              0              459.87273      996.18694     -76.658924      0              111.337        0              0              9.4335942      9.7983668      0.2            92.433816    
     19000   0.23665148     0.0010850386   0.0010850386   0              0              32.715658      427.31355     -362.0705       0              1388.4493      0              0              9.4326328      9.8036425      0.2            92.474159    
     19100   0.1873027      0.0012268744   0.0012268744   0              0             -408.31301     -34.375451     -782.40454      0             -48.003179      0              0              9.4316714      9.8072734      0.2            92.49898     
     19200   0.22024799     0.0012455638   0.0012455638   0              0             -305.36473      371.55046     -982.47942      0             -7.6849192      0              0              9.43071        9.8120018      0.2            92.534143    
     19300   0.18886003     0.0010423465   0.0010423465   0              0             -278.70782      627.53443     -1185.1515      0              677.7607       0              0              9.4297486      9.8138836      0.2            92.542456    
     19400   0.17833        0.0010853884   0.0010853884   0              0             -393.09054      304.88408     -1091.2531      0              210.06506      0              0              9.4287873      9.8157429      0.2            92.550552    
     19500   0.17710672     0.0010971118   0.0010971118   0              0              90.752964      1290.6917     -1109.3452      0              807.34951      0              0              9.4278259      9.8224075      0.2            92.603948    
     19600   0.1562198      0.0010437072   0.0010437072   0              0              11.426423      901.21835     -878.52041      0             -377.75679      0              0              9.4268645      9.8148821      0.2            92.523564    
     19700   0.21902048     0.0010092645   0.0010092645   0              0              322.50818      1026.3539     -381.53856      0             -638.20654      0              0              9.4259031      9.8148645      0.2            92.513962    
     19800   0.19642282     0.0011776522   0.0011776522   0              0              820.54581      1540.112       100.814        0             -53.411616      0              0              9.4249417      9.8156295      0.2            92.511736    
     19900   0.21737377     0.0010447357   0.0010447357   0              0              1412.2545      2385.1618      439.15741      0             -256.93947      0              0              9.4239804      9.8030042      0.2            92.383319    
     20000   0.2061245      0.0010929158   0.0010929158   0              0              1367.7853      1834.6415      900.74583      0             -13.93825       0              0              9.423019       9.8062421      0.2            92.404406    
     20100   0.22689155     0.0011977219   0.0011977219   0              0              1406.8789      1770.2937      1043.2436      0             -431.62854      0              0              9.4220576      9.8097099      0.2            92.427652    
     20200   0.19466        0.0012564482   0.0012564482   0              0              1364.8186      1665.2401      1064.2076      0             -447.97343      0              0              9.4210962      9.8137899      0.2            92.456659    
     20300   0.21564172     0.0010647323   0.0010647323   0              0              837.17563      628.68982      1045.4664      0              120.03016      0              0              9.4201349      9.8117366      0.2            92.427882    
     20400   0.22562412     0.0010971329   0.0010971329   0              0              1686.7468      2451.8559      921.46581      0             -406.78519      0              0              9.4191735      9.8147788      0.2            92.447104    
     20500   0.18435975     0.0010860844   0.0010860844   0              0              1223.0211      1889.5033      556.3756       0              121.3554       0              0              9.4182121      9.820558       0.2            92.492098    
     20600   0.22685461     0.0010970683   0.0010970683   0              0              444.76656      642.04871      247.29389      0              394.34646      0              0              9.4172507      9.8222091      0.2            92.498206    
     20700   0.20791495     0.001160947    0.001160947    0              0              963.90863      2073.2391     -145.61304      0             -4.1130318      0              0              9.4162893      9.8236121      0.2            92.501974    
     20800   0.24478294     0.001179933    0.001179933    0              0              682.91118      1748.4014     -382.79983      0             -120.72817      0              0              9.415328       9.8246632      0.2            92.502426    
     20900   0.20475513     0.0013803346   0.0013803346   0              0              7.2178541      590.57805     -576.36205      0             -226.43865      0              0              9.4143666      9.8380022      0.2            92.618559    
     21000   0.20633369     0.0014131843   0.0014131843   0              0             -331.37126     -35.501045     -627.44052      0             -397.23247      0              0              9.4134052      9.8396807      0.2            92.624902    
     21100   0.23957941     0.001180872    0.001180872    0              0              561.63017      1726.9746     -603.88431      0             -260.63493      0              0              9.4124438      9.8349576      0.2            92.570986    
     21200   0.25212663     0.0012826563   0.0012826563   0              0              422.57108      1259.3079     -414.33598      0              116.94086      0              0              9.4114824      9.8346939      0.2            92.559049    
     21300   0.2250241      0.0011143656   0.0011143656   0              0              603.63299      1352.3148     -145.22883      0             -419.77115      0              0              9.4105211      9.8323642      0.2            92.527671    
     21400   0.22318577     0.0011209616   0.0011209616   0              0              227.4819       485.64658     -30.935968      0             -401.16459      0              0              9.4095597      9.8369826      0.2            92.561674    
     21500   0.20001815     0.0010008629   0.0010008629   0              0             -214.70243     -567.50314      137.90844      0             -514.04629      0              0              9.4085983      9.8418973      0.2            92.598458    
     21600   0.17268278     0.0012779224   0.0012779224   0              0              830.78951      1342.3609      319.03325      0              17.420128      0              0              9.4076369      9.8333839      0.2            92.508906    
     21700   0.2037301      0.0012476538   0.0012476538   0              0              313.94678      241.59596      386.11728      0             -399.02518      0              0              9.4066756      9.8353525      0.2            92.51797     
     21800   0.21734405     0.0010597505   0.0010597505   0              0              646.43792      950.58513      342.16011      0              127.25139      0              0              9.4057142      9.8444658      0.2            92.594232    
     21900   0.22262396     0.0011661924   0.0011661924   0              0              450.25129      609.141        291.1833       0             -16.568448      0              0              9.4047528      9.8348828      0.2            92.494642    
     22000   0.23318502     0.0016085339   0.0016085339   0              0              809.85256      1271.0874      348.43089      0              34.159149      0              0              9.4037914      9.8350729      0.2            92.486974    
     22100   0.25741725     0.0012663973   0.0012663973   0              0              122.85179      122.02366      123.49731      0              295.6665       0              0              9.40283        9.8428612      0.2            92.550751    
     22200   0.2063095      0.0010836682   0.0010836682   0              0              185.15479      523.92193     -153.72867      0             -105.03248      0              0              9.4018687      9.8475529      0.2            92.585399    
     22300   0.1749227      0.0011329138   0.0011329138   0              0              102.19362      510.63608     -306.39641      0             -341.4377       0              0              9.4009073      9.8525873      0.2            92.62326     
     22400   0.19607264     0.0010666738   0.0010666738   0              0             -267.36708     -126.30805     -408.62418      0              112.52817      0              0              9.3999459      9.8547158      0.2            92.633796    
     22500   0.25148494     0.0010684294   0.0010684294   0              0              229.80322      895.31317     -435.92254      0             -79.832665      0              0              9.3989845      9.8523034      0.2            92.601647    
     22600   0.15598768     0.0012288526   0.0012288526   0              0              545.03348      1345.3639     -255.46477      0             -479.96898      0              0              9.3980231      9.8477587      0.2            92.549464    
     22700   0.20354614     0.0011372535   0.0011372535   0              0              537.62626      985.00857      90.048965      0             -233.28405      0              0              9.3970618      9.84704        0.2            92.533244    
     22800   0.19998169     0.0010676057   0.0010676057   0              0              802.94671      1325.8668      279.88509      0             -100.9138       0              0              9.3961004      9.8486619      0.2            92.539016    
     22900   0.21802309     0.0011185222   0.0011185222   0              0              793.837        1036.6522      550.82524      0             -9.2806936      0              0              9.395139       9.8410442      0.2            92.457978    
     23000   0.22236485     0.00089810283  0.00089810283  0              0              576.16018      549.01124      603.10046      0              164.20473      0              0              9.3941776      9.8474394      0.2            92.508595    
     23100   0.18506393     0.0011613724   0.0011613724   0              0              871.83563      1229.6411      513.81568      0             -185.243        0              0              9.3932163      9.8422569      0.2            92.450447    
     23200   0.27851424     0.0010493295   0.0010493295   0              0              172.69772      33.506742      311.73163      0              665.40874      0              0              9.3922549      9.8563328      0.2            92.57319     
     23300   0.18632368     0.0011948099   0.0011948099   0              0              879.10279      1898.1227     -140.11245      0             -16.59611       0              0              9.3912935      9.8560592      0.2            92.561144    
     23400   0.18847738     0.0010395225   0.0010395225   0              0              255.03265      708.02256     -198.11322      0              405.08181      0              0              9.3903321      9.8586861      0.2            92.576337    
     23500   0.23057338     0.0011508594   0.0011508594   0              0              741.42455      1847.0631     -364.36586      0              360.71048      0              0              9.3893707      9.8569637      0.2            92.550687    
     23600   0.21386985     0.0010120309   0.0010120309   0              0              66.940734      550.12184     -416.42772      0             -317.77555      0              0              9.3884094      9.8722719      0.2            92.68493     
     23700   0.19134926     0.0010517963   0.0010517963   0              0              782.93214      1684.9444     -119.30007      0             -136.48736      0              0              9.387448       9.868408       0.2            92.639167    
     23800   0.23476569     0.0010756313   0.0010756313   0              0              1079.2262      1838.9155      319.35381      0             -179.72819      0              0              9.3864866      9.8631023      0.2            92.579877    
     23900   0.2640908      0.0011766466   0.0011766466   0              0              511.10316      353.70612      668.33011      0              197.31312      0              0              9.3855252      9.8641799      0.2            92.580509    
     24000   0.19990829     0.00098666534  0.00098666534  0              0              793.83365      899.40842      688.05545      0              500.13575      0              0              9.3845638      9.8698613      0.2            92.624343    
     24100   0.17519479     0.0011714043   0.0011714043   0              0              579.89583      833.23582      326.38387      0             -43.581391      0              0              9.3836025      9.8803665      0.2            92.713432    
     24200   0.18819042     0.0009563795   0.0009563795   0              0              311.11067      675.7838      -53.734262      0             -444.62903      0              0              9.3826411      9.8800841      0.2            92.701283    
     24300   0.18483607     0.00090874609  0.00090874609  0              0              167.93388      871.57839     -535.9181       0             -107.43497      0              0              9.3816797      9.8826679      0.2            92.716025    
     24400   0.20850629     0.0010377813   0.0010377813   0              0              353.87044      1379.8359     -672.2829       0              106.00353      0              0              9.3807183      9.885614       0.2            92.734161    
     24500   0.2887516      0.0010395612   0.0010395612   0              0              613.13272      1830.0979     -604.00991      0             -202.93608      0              0              9.379757       9.879732       0.2            92.669485    
     24600   0.18942802     0.0010091854   0.0010091854   0              0              367.09201      816.09958     -82.132902      0             -64.338292      0              0              9.3787956      9.8759292      0.2            92.624321    
     24700   0.18007297     0.00095509326  0.00095509326  0              0              395.73744      433.40253      357.86063      0              399.20959      0              0              9.3778342      9.8683914      0.2            92.544138    
     24800   0.19448894     0.0011056854   0.0011056854   0              0              470.32605      368.60828      571.83924      0             -254.90338      0              0              9.3768728      9.8741382      0.2            92.588539    
     24900   0.16133431     0.0010496777   0.0010496777   0              0              143.7708      -411.28356      698.66703      0              484.11306      0              0              9.3759114      9.875379       0.2            92.590679    
     25000   0.17614561     0.0010327762   0.0010327762   0              0              545.90779      555.9298       535.66366      0             -1041.1765      0              0              9.3749501      9.8690861      0.2            92.522189    
     25100   0.16467824     0.0010690018   0.0010690018   0              0              217.84669      263.33628      172.19747      0             -1079.8877      0              0              9.3739887      9.8661265      0.2            92.484958    
     25200   0.20682477     0.00092805829  0.00092805829  0              0             -782.4608      -1379.9532     -185.14845      0              313.37574      0              0              9.3730273      9.8691247      0.2            92.503575    
     25300   0.19160465     0.0010206465   0.0010206465   0              0             -315.50779     -53.226115     -577.95519      0              407.10914      0              0              9.3720659      9.8761681      0.2            92.560099    
     25400   0.20503092     0.00123212     0.00123212     0              0             -459.70362     -296.73319     -622.89073      0             -146.86285      0              0              9.3711045      9.8805473      0.2            92.591642    
     25500   0.17551239     0.0011253899   0.0011253899   0              0             -495.65947     -711.69861     -279.83751      0              453.66903      0              0              9.3701432      9.8636162      0.2            92.423496    
     25600   0.19276273     0.0011938555   0.0011938555   0              0              122.2593      -121.8263       366.16782      0             -97.970652      0              0              9.3691818      9.8736243      0.2            92.507781    
     25700   0.23182062     0.00092500011  0.00092500011  0              0              1079.8148      1298.9118      860.54196      0              79.602077      0              0              9.3682204      9.8720514      0.2            92.483554    
     25800   0.26288549     0.0010526687   0.0010526687   0              0              476.6253       58.202613      894.88036      0             -73.094908      0              0              9.367259       9.8838969      0.2            92.585022    
     25900   0.17780985     0.0012427024   0.0012427024   0              0              468.38779      547.616        388.96882      0              460.3891       0              0              9.3662977      9.8833762      0.2            92.570643    
     26000   0.19659623     0.0012498354   0.0012498354   0              0             -336.91978     -408.16362     -265.8619       0              142.55658      0              0              9.3653363      9.8823399      0.2            92.551436    
     26100   0.20810331     0.001361197    0.001361197    0              0             -247.73825      206.88448     -702.55058      0             -524.11729      0              0              9.3643749      9.8842434      0.2            92.559761    
     26200   0.23865249     0.0011283951   0.0011283951   0              0             -37.168663      654.73238     -729.25881      0             -233.48199      0              0              9.3634135      9.8939371      0.2            92.641024    
     26300   0.18766726     0.0010747115   0.0010747115   0              0             -108.18896      177.91758     -394.49206      0             -675.41245      0              0              9.3624521      9.8924602      0.2            92.617685    
     26400   0.20632667     0.0009663123   0.0009663123   0              0              517.03575      912.11627      121.76078      0             -524.40372      0              0              9.3614908      9.8866769      0.2            92.554035    
     26500   0.23114659     0.0009264441   0.0009264441   0              0              770.94257      918.8775       622.81225      0             -410.9762       0              0              9.3605294      9.8829501      0.2            92.509644    
     26600   0.21487893     0.0009917345   0.0009917345   0              0              494.07716      148.10717      839.87402      0             -398.34293      0              0              9.359568       9.894459       0.2            92.607862    
     26700   0.26012731     0.0010457681   0.0010457681   0              0              1006.8727      1318.1858      695.40124      0             -127.91868      0              0              9.3586066      9.891589       0.2            92.57149     
     26800   0.17662864     0.0010446279   0.0010446279   0              0              129.18908      179.81826      78.361597      0              119.81814      0              0              9.3576452      9.9012668      0.2            92.652543    
     26900   0.21813083     0.0012322238   0.0012322238   0              0              772.15024      2234.2489     -690.12796      0             -49.616741      0              0              9.3566839      9.8963057      0.2            92.596604    
     27000   0.22089148     0.0011811285   0.0011811285   0              0             -308.81597      736.09842     -1353.9072      0             -469.35491      0              0              9.3557225      9.8998859      0.2            92.620585    
     27100   0.22781635     0.0012578504   0.0012578504   0              0             -110.47679      1161.8178     -1382.9178      0              137.59208      0              0              9.3547611      9.8958218      0.2            92.573049    
     27200   0.24416484     0.0012027059   0.0012027059   0              0              252.01216      1115.6811     -611.8513       0              99.039443      0              0              9.3537997      9.8951338      0.2            92.5571      
     27300   0.22114746     0.0012288487   0.0012288487   0              0              794.11073      989.03011      598.97864      0              311.82289      0              0              9.3528384      9.8919673      0.2            92.517971    
     27400   0.24713294     0.0012640677   0.0012640677   0              0              1861.8371      2026.3451      1697.1609      0              231.87506      0              0              9.351877       9.8880324      0.2            92.471662    
     27500   0.23081157     0.0014215433   0.0014215433   0              0              1696.2294      1627.7123      1764.5621      0              141.98266      0              0              9.3509156      9.8844297      0.2            92.428468    
     27600   0.17829813     0.0014355489   0.0014355489   0              0              954.69887      939.10606      970.09699      0              805.34063      0              0              9.3499542      9.9014392      0.2            92.578004    
     27700   0.1990494      0.0013092483   0.0013092483   0              0              475.85045      1304.685      -353.14297      0             -68.706011      0              0              9.3489928      9.9079406      0.2            92.629266    
     27800   0.19704718     0.001343044    0.001343044    0              0              77.660752      1366.1081     -1210.9676      0              401.92329      0              0              9.3480315      9.9040612      0.2            92.583476    
     27900   0.20348604     0.0011948437   0.0011948437   0              0             -222.3853       1052.057      -1497.046       0             -52.807976      0              0              9.3470701      9.9207298      0.2            92.729756    
[...]
     42900   0.18176389     0.000972011    0.000972011    0              0             -918.02172     -391.60209     -1444.6713      0             -305.85932      0              0              9.2028633      9.9863486      0.2            91.903001    
     43000   0.26806846     0.0010549088   0.0010549088   0              0             -554.33596     -561.14753     -547.69006      0             -103.49777      0              0              9.2019019      9.9775415      0.2            91.812359    
     43100   0.22963197     0.0010463299   0.0010463299   0              0              833.65469      524.63714      1142.4788      0             -348.53091      0              0              9.2009405      9.9697285      0.2            91.730879    
     43200   0.15381103     0.00081537965  0.00081537965  0              0              711.84098      777.54893      645.94001      0             -153.1811       0              0              9.1999792      9.9673886      0.2            91.699767    
     43300   0.19528314     0.000917431    0.000917431    0              0             -367.53741      165.60723     -900.88334      0             -394.93568      0              0              9.1990178      9.9880236      0.2            91.880007    
     43400   0.25897737     0.0010495454   0.0010495454   0              0             -382.16338     -192.57583     -571.91284      0              432.81911      0              0              9.1980564      9.9873612      0.2            91.864312    
     43500   0.18080413     0.0011439719   0.0011439719   0              0             -3.1071341     -665.70385      659.28293      0              702.81537      0              0              9.197095       9.9797197      0.2            91.784431    
     43600   0.1861198      0.00085379231  0.00085379231  0              0              508.97043      604.92548      412.8256       0              187.60972      0              0              9.1961337      9.9770799      0.2            91.75056     
     43700   0.23722771     0.001429984    0.001429984    0              0             -232.79887     -41.2575       -424.51625      0              580.88457      0              0              9.1951723      9.9925443      0.2            91.883167    
     43800   0.20055538     0.00091758534  0.00091758534  0              0              18.017226      286.32399     -250.45995      0              517.68252      0              0              9.1942109      9.9903173      0.2            91.853084    
     43900   0.20314302     0.00098505181  0.00098505181  0              0              335.33426      363.37629      307.09707      0             -175.90192      0              0              9.1932495      9.9934835      0.2            91.872587    
     44000   0.16881232     0.0010112338   0.0010112338   0              0              783.55254      1278.5878      288.34371      0              41.883124      0              0              9.1922881      9.9969913      0.2            91.895225    
     44100   0.26001413     0.00094280301  0.00094280301  0              0             -292.81151     -340.5517      -245.24294      0             -335.59892      0              0              9.1913268      10.003594      0.2            91.946305    
     44200   0.17637737     0.0011287961   0.0011287961   0              0              134.32365      647.47384     -379.00703      0             -119.56106      0              0              9.1903654      9.9909411      0.2            91.820399    
     44300   0.20588918     0.00083808172  0.00083808172  0              0              65.592122     -123.28418      254.29243      0              529.56521      0              0              9.189404       9.9945903      0.2            91.844328    
     44400   0.20896651     0.00097185344  0.00097185344  0              0              390.01007      510.34555      269.5071       0             -15.412281      0              0              9.1884426      9.9940916      0.2            91.830137    
     44500   0.20640616     0.00079178897  0.00079178897  0              0              148.73598      521.80764     -224.5179       0             -510.15908      0              0              9.1874812      10.00059       0.2            91.880234    
     44600   0.19108438     0.00081657206  0.00081657206  0              0              343.76477      1006.417      -319.05412      0              159.31613      0              0              9.1865199      10.000071      0.2            91.865855    
     44700   0.22970499     0.00083931309  0.00083931309  0              0              629.81539      977.50245      281.94017      0             -504.43855      0              0              9.1855585      10.003224      0.2            91.885197    
     44800   0.15170715     0.00081182116  0.00081182116  0              0              516.38914      768.97001      263.58864      0             -3.6332446      0              0              9.1845971      10.000444      0.2            91.85005     
     44900   0.1949896      0.0011443248   0.0011443248   0              0             -584.02234     -992.83875     -175.40959      0              482.08436      0              0              9.1836357      10.010226      0.2            91.930274    
     45000   0.206698       0.00096467797  0.00096467797  0              0             -679.9352      -1147.1528     -212.9084       0              1001.3698      0              0              9.1826744      10.018422      0.2            91.995909    
     45100   0.20341815     0.0013007229   0.0013007229   0              0             -77.666636     -352.41534      196.89517      0             -317.61053      0              0              9.181713       10.006019      0.2            91.872396    
     45200   0.16781229     0.0010105568   0.0010105568   0              0              113.28913      143.13898      83.283164      0              99.933872      0              0              9.1807516      10.010317      0.2            91.902235    
     45300   0.17922505     0.00085917911  0.00085917911  0              0             -133.50462     -185.73021     -81.448234      0              513.94761      0              0              9.1797902      10.00034       0.2            91.801025    
     45400   0.19983894     0.00083018045  0.00083018045  0              0             -402.90652     -595.9778      -210.00576      0             -191.22226      0              0              9.1788288      9.9957656      0.2            91.749422    
     45500   0.21995001     0.00093801898  0.00093801898  0              0              331.97234      556.75099      106.98365      0             -312.5489       0              0              9.1778675      9.9917         0.2            91.702498    
     45600   0.24165987     0.00068717843  0.00068717843  0              0              171.73827      104.56918      238.7305       0             -90.577456      0              0              9.1769061      9.9891258      0.2            91.66927     
     45700   0.18873184     0.00098768924  0.00098768924  0              0             -481.04167     -987.248        24.934856      0             -10.436556      0              0              9.1759447      9.9876412      0.2            91.646043    
     45800   0.18246057     0.0009488342   0.0009488342   0              0             -206.14474     -378.75217     -33.736437      0              637.09207      0              0              9.1749833      9.985864       0.2            91.620136    
     45900   0.21017081     0.00095057039  0.00095057039  0              0             -85.016198     -59.173086     -111.04447      0             -93.74635       0              0              9.1740219      9.9948362      0.2            91.692846    
     46000   0.21763849     0.0008138824   0.0008138824   0              0             -62.589291     -41.545134     -83.821527      0             -676.862        0              0              9.1730606      9.9976819      0.2            91.709342    
     46100   0.21622638     0.00082993357  0.00082993357  0              0              364.6876       580.79194      148.40998      0             -96.677664      0              0              9.1720992      9.993581       0.2            91.662116    
     46200   0.20605093     0.00076003071  0.00076003071  0              0              353.45749      540.87754      165.82465      0              287.15416      0              0              9.1711378      9.9929883      0.2            91.647073    
     46300   0.19715646     0.0010318273   0.0010318273   0              0             -581.66581     -922.25148     -241.23398      0              457.68862      0              0              9.1701764      9.9984993      0.2            91.688003    
     46400   0.22550702     0.00096576963  0.00096576963  0              0              213.08796      631.5803      -205.61547      0              213.74569      0              0              9.1692151      9.9949258      0.2            91.645624    
     46500   0.2493937      0.00097628004  0.00097628004  0              0             -105.88742     -394.57371      182.56053      0             -358.96243      0              0              9.1682537      9.9875165      0.2            91.568085    
     46600   0.18878788     0.0010236508   0.0010236508   0              0              248.86156      172.29664      325.23628      0             -31.168027      0              0              9.1672923      9.9937052      0.2            91.615216    
     46700   0.22047945     0.00096145346  0.00096145346  0              0             -62.478642      91.644932     -216.80246      0             -262.11069      0              0              9.1663309      9.9996431      0.2            91.660038    
     46800   0.17203277     0.0012013035   0.0012013035   0              0             -92.607117      297.78323     -483.18976      0             -108.83609      0              0              9.1653695      9.9936514      0.2            91.595508    
     46900   0.16334747     0.0010853348   0.0010853348   0              0              153.24992      118.73897      187.5439       0             -919.835        0              0              9.1644082      10.000309      0.2            91.646917    
     47000   0.24627201     0.0011032039   0.0011032039   0              0              377.51941      83.50227       671.33968      0             -481.94603      0              0              9.1634468      9.9933379      0.2            91.57342     
     47100   0.18311958     0.0011352505   0.0011352505   0              0             -199.20688     -350.2549      -48.3676        0              13.831793      0              0              9.1624854      9.9972226      0.2            91.599406    
     47200   0.17374799     0.0011440352   0.0011440352   0              0             -316.64204      111.80568     -745.27329      0             -219.14664      0              0              9.161524       10.003114      0.2            91.643766    
     47300   0.23700711     0.0011293825   0.0011293825   0              0              149.16233      294.65642      3.4825063      0             -1249.7863      0              0              9.1605626      9.9946565      0.2            91.556677    
     47400   0.17428831     0.0011947764   0.0011947764   0              0              86.65246      -547.24856      720.4008       0             -1165.1644      0              0              9.1596013      9.987922       0.2            91.485383    
     47500   0.21646996     0.00099026081  0.00099026081  0              0             -169.05971     -309.09834     -29.226173      0              11.373683      0              0              9.1586399      9.9914663      0.2            91.508242    
     47600   0.23073367     0.00098281164  0.00098281164  0              0             -681.80283     -673.87316     -689.91012      0             -602.48288      0              0              9.1576785      9.9957779      0.2            91.538121    
     47700   0.19653396     0.00078371379  0.00078371379  0              0             -105.68706     -60.04306      -151.49642      0             -486.39622      0              0              9.1567171      9.9945513      0.2            91.517279    
     47800   0.20376045     0.0013159168   0.0013159168   0              0              510.72521      385.41994      635.8596       0             -564.22478      0              0              9.1557558      10.006854      0.2            91.620315    
     47900   0.23790699     0.0010067297   0.0010067297   0              0              249.94806      406.35102      93.342437      0              410.36074      0              0              9.1547944      10.000928      0.2            91.556438    
     48000   0.17942952     0.00086764018  0.00086764018  0              0             -75.108025      532.22277     -682.65671      0              48.541524      0              0              9.153833       9.9977101      0.2            91.517369    
     48100   0.19254459     0.00081758961  0.00081758961  0              0              329.1519       715.73844     -57.633639      0              83.386912      0              0              9.1528716      10.005555      0.2            91.579559    
     48200   0.13264348     0.0011076787   0.0011076787   0              0              1175.9965      1661.424       690.36983      0             -345.27904      0              0              9.1519102      10.000412      0.2            91.522875    
     48300   0.20480281     0.0009398468   0.0009398468   0              0             -105.49222     -289.28734      78.131684      0              95.373511      0              0              9.1509489      10.008818      0.2            91.590183    
     48400   0.20554151     0.001184206    0.001184206    0              0              173.59154      1143.9078     -796.90815      0              597.79705      0              0              9.1499875      10.00682       0.2            91.562278    
     48500   0.208152       0.00085834066  0.00085834066  0              0              624.22485      1185.8296      62.417656      0              128.14327      0              0              9.1490261      9.995873       0.2            91.452503    
     48600   0.19421214     0.0010633879   0.0010633879   0              0              880.08138      986.58041      773.39991      0              563.52786      0              0              9.1480647      9.9900557      0.2            91.389677    
     48700   0.21113947     0.00099251729  0.00099251729  0              0              581.41622      1214.0751     -51.44174       0             -634.73555      0              0              9.1471034      9.9924488      0.2            91.401962    
     48800   0.19699776     0.0010752026   0.0010752026   0              0             -126.12068      576.93301     -829.34137      0              190.13753      0              0              9.146142       10.010963      0.2            91.561693    
     48900   0.20973674     0.0010103939   0.0010103939   0              0              882.49244      1309.4033      455.39271      0              273.76395      0              0              9.1451806      10.004622      0.2            91.494073    
     49000   0.22005667     0.00080033186  0.00080033186  0              0              638.84811      567.52693      709.96533      0             -344.79276      0              0              9.1442192      10.001622      0.2            91.457021    
     49100   0.17349588     0.00075626378  0.00075626378  0              0             -469.20615     -432.2502      -506.36703      0              526.58521      0              0              9.1432578      10.00927       0.2            91.517334    
     49200   0.19551994     0.00080860975  0.00080860975  0              0             -260.12663      131.95659     -652.37512      0              80.681925      0              0              9.1422965      10.013964      0.2            91.550627    
     49300   0.21276492     0.00079575628  0.00079575628  0              0              834.89123      1105.9521      563.63804      0             -194.03317      0              0              9.1413351      10.012998      0.2            91.532172    
     49400   0.21427811     0.0011256444   0.0011256444   0              0              362.22949      100.12953      624.15811      0              179.15525      0              0              9.1403737      10.009977      0.2            91.494929    
     49500   0.20910143     0.00091608602  0.00091608602  0              0              75.665799      663.87669     -512.78555      0              21.933423      0              0              9.1394123      10.008882      0.2            91.475297    
     49600   0.20679354     0.0013387195   0.0013387195   0              0              296.30995      882.37572     -289.94536      0             -90.581472      0              0              9.1384509      10.001742      0.2            91.400426    
     49700   0.18109446     0.0009641966   0.0009641966   0              0              453.22615      244.47209      661.79608      0              181.44795      0              0              9.1374896      10.00951       0.2            91.461796    
     49800   0.22478037     0.0010864668   0.0010864668   0              0              336.41388      153.15664      519.50371      0             -283.13159      0              0              9.1365282      10.017998      0.2            91.52972     
     49900   0.2313905      0.0010168437   0.0010168437   0              0             -163.28753      317.82122     -644.57196      0             -871.61235      0              0              9.1355668      10.019071      0.2            91.529896    
     50000   0.19453092     0.0011580748   0.0011580748   0              0              188.40889      732.12869     -355.48445      0             -562.22274      0              0              9.1346054      10.018116      0.2            91.511537    
     50100   0.18229911     0.00093724476  0.00093724476  0              0              635.90187      550.17095      721.42711      0              189.61256      0              0              9.1336441      10.016201      0.2            91.484416    
     50157   0.24439336     0.001126764    0.001126764    0              0              594.25646      392.24364      796.10831      0              548.00218      0              0              9.1330961      10.014425      0.2            91.462705    
Loop time of 1.15899 on 1 procs for 50000 steps with 63 atoms

Performance: 37273.686 ns/day, 0.001 hours/ns, 43140.840 timesteps/s
99.7% CPU use with 1 MPI tasks x 1 OpenMP threads

MPI task timing breakdown:
Section |  min time  |  avg time  |  max time  |%varavg| %total
---------------------------------------------------------------
Pair    | 0          | 0          | 0          |   0.0 |  0.00
Bond    | 0.16552    | 0.16552    | 0.16552    |   0.0 | 14.28
Neigh   | 0          | 0          | 0          |   0.0 |  0.00
Comm    | 0.40445    | 0.40445    | 0.40445    |   0.0 | 34.90
Output  | 0.0072415  | 0.0072415  | 0.0072415  |   0.0 |  0.62
Modify  | 0.55392    | 0.55392    | 0.55392    |   0.0 | 47.79
Other   |            | 0.02786    |            |       |  2.40

Nlocal:             63 ave          63 max          63 min
Histogram: 1 0 0 0 0 0 0 0 0 0
Nghost:            540 ave         540 max         540 min
Histogram: 1 0 0 0 0 0 0 0 0 0
Neighs:              0 ave           0 max           0 min
Histogram: 1 0 0 0 0 0 0 0 0 0

Total # of neighbors = 0
Ave neighs/atom = 0
Ave special neighs/atom = 22.126984
Neighbor list builds = 0
Dangerous builds = 0


Total wall time: 0:00:01
