LAMMPS data file via write_data, version 23 Jun 2022, timestep = 10000

80 atoms
4 atom types

-4.816403248090782 4.816403248090782 xlo xhi
-4.816403248090782 4.816403248090782 ylo yhi
-0.1 0.1 zlo zhi

Atoms # sphere

67 4 0.7 2.915451895043732 -3.357908168328192 -4.289737051588151 0 0 1 0
42 3 1 1 4.770212347830205 4.518427040490914 0 0 -1 0
76 4 0.7 2.915451895043732 -2.28209975360186 -3.603737980337749 0 0 1 0
77 4 0.7 2.915451895043732 -2.882331506172484 -3.9461909959098254 0 0 1 0
57 3 1 1 -2.303786492288683 -4.429692427890203 0 1 1 0
32 2 1.3 0.4551661356395083 -1.2315917329151302 -4.750377637608177 0 0 1 0
55 3 1 1 0.5121585462274725 -3.857197941627022 0 -1 0 0
48 3 1 1 1.4076314095868234 -3.8589299563384074 0 0 0 0
8 1 1.6 0.2441406249999999 2.9612441759380213 -4.211759455527207 0 0 0 0
51 3 1 1 4.299198166575837 -4.431991273724154 0 0 0 0
24 2 1.3 0.4551661356395083 -3.871011929612605 -3.6207233277809325 0 0 0 0
5 1 1.6 0.2441406249999999 -2.776153752377166 -2.663089109385023 0 1 0 0
53 3 1 1 -1.5382802807868736 -3.7701591246000428 0 0 1 0
16 1 1.6 0.2441406249999999 -0.5306281769612191 -3.52084640389584 0 0 0 0
54 3 1 1 0.7798837851545537 -2.953096793040136 0 0 1 0
49 3 1 1 3.705409676446453 -3.2056454734198474 0 0 0 0
61 4 0.7 2.915451895043732 -4.414487214521052 -4.403189383533285 0 0 0 0
56 3 1 1 4.59080868001664 -3.6093014706650175 0 -1 0 0
68 4 0.7 2.915451895043732 -3.8174485643754323 -2.6133707345616983 0 0 0 0
70 4 0.7 2.915451895043732 -4.694057394963467 -2.9572034185516234 0 0 0 0
4 1 1.6 0.2441406249999999 -1.3487793221426942 -2.287773455021704 0 0 1 0
9 1 1.6 0.2441406249999999 -0.006821949818717421 -2.103915407261289 0 0 0 0
7 1 1.6 0.2441406249999999 2.282584089322448 -2.9036401029083985 0 0 0 0
18 1 1.6 0.2441406249999999 3.6977888734712048 -2.0414397852694415 0 -1 0 0
78 4 0.7 2.915451895043732 4.345655616908952 -2.818855571460505 0 -1 0 0
28 2 1.3 0.4551661356395083 -4.663662139876189 -1.9231514060367578 0 0 0 0
75 4 0.7 2.915451895043732 -4.453844956686193 -1.0060506988746973 0 0 0 0
31 2 1.3 0.4551661356395083 -3.535615953899267 -1.342635074591065 0 0 0 0
41 3 1 1 -2.795145989292303 -0.5627598051091365 0 0 0 0
40 2 1.3 0.4551661356395083 -2.2776478025100135 -1.4215895889717522 0 0 1 0
29 2 1.3 0.4551661356395083 -0.7924255403375309 -0.905495524413519 0 0 0 0
12 1 1.6 0.2441406249999999 0.5431279029635245 -0.5551331413380254 0 0 0 0
34 2 1.3 0.4551661356395083 1.2477078700234747 -2.083367443781235 0 0 0 0
33 2 1.3 0.4551661356395083 2.4390137903090947 -1.629681169702176 0 0 0 0
66 4 0.7 2.915451895043732 3.0375047718286243 -0.8925697344594123 0 0 0 0
35 2 1.3 0.4551661356395083 4.008642926886947 -0.6657208098105114 0 -1 0 0
71 4 0.7 2.915451895043732 -4.702708884581294 -0.4670741571901047 0 0 0 0
3 1 1.6 0.2441406249999999 -4.727027488446195 0.6234569291052257 0 1 0 0
52 3 1 1 -3.9295943824496806 -0.37872429082482384 0 0 0 0
38 2 1.3 0.4551661356395083 -1.6430044449566337 -0.15492568144183672 0 0 1 0
10 1 1.6 0.2441406249999999 -2.6931258063249794 0.6546552820358835 0 0 0 0
6 1 1.6 0.2441406249999999 -0.6331650163503388 0.558122013432496 0 0 0 0
63 4 0.7 2.915451895043732 1.5152407471330873 -1.128051948451716 0 0 0 0
45 3 1 1 2.0437848634220686 -0.6315598995944658 0 0 0 0
46 3 1 1 1.552012834187674 0.2008113667876099 0 0 0 0
26 2 1.3 0.4551661356395083 2.867470699318262 0.019681886678661442 0 -1 0 0
60 3 1 1 3.6582741772770513 0.8625156004479804 0 -1 0 0
72 4 0.7 2.915451895043732 -3.6759772965040707 0.3282763045834134 0 0 0 0
27 2 1.3 0.4551661356395083 -3.7989564683468657 1.4669464413110838 0 0 0 0
14 1 1.6 0.2441406249999999 -1.6749488829976595 1.7030577850659654 0 0 0 0
69 4 0.7 2.915451895043732 -0.6263400443661169 1.7758941307631453 0 0 0 0
47 3 1 1 -0.012401431241868544 1.5788574576696917 0 0 0 0
22 2 1.3 0.4551661356395083 0.7847693788905454 0.8368186686691894 0 0 0 0
43 3 1 1 1.5789417094221765 1.402349170421986 0 0 0 0
59 3 1 1 2.3225609653017765 0.8457984912868035 0 0 0 0
65 4 0.7 2.915451895043732 4.160118324255596 1.3334845839296836 0 -1 0 0
15 1 1.6 0.2441406249999999 4.691253409954643 2.148764392633586 0 0 0 0
79 4 0.7 2.915451895043732 -2.638984903351915 1.720663660097931 0 1 0 0
58 3 1 1 -1.7138922638482335 2.9439841416902315 0 0 0 0
11 1 1.6 0.2441406249999999 -0.47054029716371026 2.734624660425247 0 0 -1 0
17 1 1.6 0.2441406249999999 0.9047159529186324 2.2780209611795925 0 0 -1 0
74 4 0.7 2.915451895043732 2.0790510094061903 2.0219611364801757 0 0 0 0
25 2 1.3 0.4551661356395083 2.2178169429068992 2.861653847447439 0 0 0 0
20 1 1.6 0.2441406249999999 3.0654424274524317 1.7254651632210516 0 0 -1 0
62 4 0.7 2.915451895043732 -3.988651268345551 2.632438374918795 0 1 0 0
64 4 0.7 2.915451895043732 -3.8186875633232975 3.3647778187996886 0 1 -1 0
37 2 1.3 0.4551661356395083 -4.695133370029319 3.478258380510659 0 1 0 0
2 1 1.6 0.2441406249999999 -2.9480624996623526 2.7998662137004864 0 0 0 0
80 4 0.7 2.915451895043732 -1.1278817396918628 3.64790589326524 0 0 -1 0
73 4 0.7 2.915451895043732 0.3983469990795889 3.525175197340679 0 0 0 0
36 2 1.3 0.4551661356395083 1.2914928578219262 3.708897654107683 0 0 -1 0
13 1 1.6 0.2441406249999999 3.606615453958857 3.142147712485082 0 0 0 0
19 1 1.6 0.2441406249999999 -3.6359160908994737 4.458632584403712 0 1 0 0
1 1 1.6 0.2441406249999999 -2.076705550519712 4.05228472095184 0 0 -1 0
44 3 1 1 -0.0750261373060912 -4.517295510639346 0 0 0 0
39 2 1.3 0.4551661356395083 -0.29736893415778276 4.08896246246733 0 0 -1 0
23 2 1.3 0.4551661356395083 0.765742254866514 4.641367189362076 0 0 -1 0
50 3 1 1 1.7569704178136805 -4.698794671678708 0 0 0 0
30 2 1.3 0.4551661356395083 2.5157769893413064 4.1146453995239805 0 0 0 0
21 2 1.3 0.4551661356395083 3.7746320659891888 4.337222083476456 0 0 0 0

Velocities

67 0.2888491285450095 -0.17013212583297438 0 0 0 0
42 0.011612249402548855 -0.14054942108880022 0 0 0 0
76 -0.04393379735859508 -0.00035846602662484734 0 0 0 0
77 0.07638450723245459 0.18110594656831225 0 0 0 0
57 0.1581261925179815 0.13839476760185315 0 0 0 0
32 0.051522503073177836 0.16327739592996815 0 0 0 0
55 -0.12485283369767519 -0.1970509312178264 0 0 0 0
48 0.1372973545330375 -0.025128061488856972 0 0 0 0
8 0.009792832243897279 -0.07703150278282979 0 0 0 0
51 0.12752632664854419 -0.12857760862617656 0 0 0 0
24 -0.12345701732754541 0.05176542412338588 0 0 0 0
5 0.031834143407881564 0.12825619463767912 0 0 0 0
53 -0.06185602017789423 0.04869291066889102 0 0 0 0
16 0.07082099503973169 -0.05097991079342233 0 0 0 0
54 -0.10192529700028612 0.21274642559693685 0 0 0 0
49 0.14719828562982312 -0.018794978462159988 0 0 0 0
61 0.16720069292423062 -0.0417604866814972 0 0 0 0
56 0.038281862172516695 -0.0907438269525045 0 0 0 0
68 -0.012575400422051927 -0.0943542620923169 0 0 0 0
70 -0.21821889545119535 0.09226066028507691 0 0 0 0
4 0.1357290100970481 0.10625664887209005 0 0 0 0
9 -0.0360808391330974 -0.04238612042896525 0 0 0 0
7 0.05878393778823638 0.015835921719924498 0 0 0 0
18 -0.13411464262646233 0.019229469097225147 0 0 0 0
78 -0.022941350965170026 -0.036192021991830914 0 0 0 0
28 0.0596915156639573 -0.033742052905152364 0 0 0 0
75 -0.0543041333555506 0.18918798084337005 0 0 0 0
31 -0.1221304870910527 0.06438528800085623 0 0 0 0
41 -0.007961363487825182 0.020633665694260738 0 0 0 0
40 0.08114098429386153 0.021515851464738667 0 0 0 0
29 -0.02536724678984508 0.10830297497062684 0 0 0 0
12 -0.08316612688181711 -0.07815733396056168 0 0 0 0
34 0.1109461572758311 0.02123598596517769 0 0 0 0
33 -0.08749459693779804 0.15226569327641132 0 0 0 0
66 -0.06859762071096978 0.10228164501660782 0 0 0 0
35 -0.09758949875175885 0.019117913895856677 0 0 0 0
71 0.020937299645664466 0.20563106931382719 0 0 0 0
3 -0.014221995178831581 0.11181264719469053 0 0 0 0
52 -0.039757604225521014 -0.24731216866031563 0 0 0 0
38 0.036770569630915566 -0.07671366789720296 0 0 0 0
10 -0.12079810058071613 0.07009741975272667 0 0 0 0
6 0.04775343617227521 -0.016181709909684844 0 0 0 0
63 0.044192224427461964 0.1668731819952074 0 0 0 0
45 -0.10637651089900657 0.03420892232561576 0 0 0 0
46 0.06217710202848044 0.14174816547667715 0 0 0 0
26 -0.08428106110991525 0.04494021329420747 0 0 0 0
60 -0.17402630197138638 -0.021984281025654875 0 0 0 0
72 0.010114665444076456 -0.01111628557302241 0 0 0 0
27 0.05690187170858511 0.01148327100490304 0 0 0 0
14 0.0782869468698638 -0.2025517626685817 0 0 0 0
69 0.007614578432473014 0.0877622143789265 0 0 0 0
47 -0.11457225445830817 -0.11031596100530719 0 0 0 0
22 0.06587218728396722 -0.18530662400618153 0 0 0 0
43 -0.03311586282946138 0.008537536623587232 0 0 0 0
59 -0.060686167268103414 -0.041119527064775514 0 0 0 0
65 -0.03955113806981889 -0.12028078879711696 0 0 0 0
15 -0.20850308618228625 0.07626351946320205 0 0 0 0
79 -0.018520725032804244 0.1051603361848185 0 0 0 0
58 0.034205968727924904 -0.03795923574702886 0 0 0 0
11 0.1149659082584772 -0.15042335240499138 0 0 0 0
17 -0.07139279828794469 0.1947837342077643 0 0 0 0
74 -0.02623082207690282 -0.06872499841562273 0 0 0 0
25 -0.07124129028807775 -0.05011401666662693 0 0 0 0
20 0.2024865359020601 -0.14500556844758045 0 0 0 0
62 0.07447637966866803 -0.06135444916003518 0 0 0 0
64 -0.16190720127189676 -0.03994678450614526 0 0 0 0
37 -0.0714605611024345 0.10154809742987002 0 0 0 0
2 0.14071999961957563 -0.09484903825465336 0 0 0 0
80 0.011322868165881227 0.17802685887618494 0 0 0 0
73 -0.12268100051624002 -0.20675094461226937 0 0 0 0
36 0.05462236110569264 0.03290546250947291 0 0 0 0
13 0.22982031111070728 -0.14626649893087038 0 0 0 0
19 -0.007043351793507725 -0.10526861200874145 0 0 0 0
1 -0.03699256160365845 -0.0008498006897473608 0 0 0 0
44 -0.04743600701147722 -0.2330416584711666 0 0 0 0
39 -0.018993491726893044 0.20173256491404376 0 0 0 0
23 -0.1779065294248263 0.1343236023016726 0 0 0 0
50 0.13355513646189762 0.0072336192715400935 0 0 0 0
30 0.0976629676540412 -0.0624078551968417 0 0 0 0
21 -0.03293440573184664 -0.11003649929551769 0 0 0 0
