LAMMPS data file.

     68 atoms
    149 bonds
      0 angles
      0 dihedrals
      0 impropers
      1 atom types
    149 bond types
      0 angle types
      0 dihedral types
      0 improper types
  -4.816403   4.816403 xlo xhi
  -4.816403   4.816403 ylo yhi
  -0.100000   0.100000 zlo zhi

Masses # ['atom_id', 'mass']

1 10000.0

Atoms # ['atomID', 'moleculeID', 'atomType', 'charge', 'x', 'y', 'z']

     42      1      1   0.000000   4.770212   4.518427   0.000000
     76      1      1   0.000000  -2.282100  -3.603738   0.000000
     57      1      1   0.000000  -2.303786  -4.429692   0.000000
     32      1      1   0.000000  -1.231592  -4.750378   0.000000
     55      1      1   0.000000   0.512159  -3.857198   0.000000
     48      1      1   0.000000   1.407631  -3.858930   0.000000
      8      1      1   0.000000   2.961244  -4.211759   0.000000
     51      1      1   0.000000   4.299198  -4.431991   0.000000
      5      1      1   0.000000  -2.776154  -2.663089   0.000000
     53      1      1   0.000000  -1.538280  -3.770159   0.000000
     16      1      1   0.000000  -0.530628  -3.520846   0.000000
     54      1      1   0.000000   0.779884  -2.953097   0.000000
     49      1      1   0.000000   3.705410  -3.205645   0.000000
     56      1      1   0.000000   4.590809  -3.609301   0.000000
      4      1      1   0.000000  -1.348779  -2.287773   0.000000
      9      1      1   0.000000  -0.006822  -2.103915   0.000000
      7      1      1   0.000000   2.282584  -2.903640   0.000000
     18      1      1   0.000000   3.697789  -2.041440   0.000000
     78      1      1   0.000000   4.345656  -2.818856   0.000000
     75      1      1   0.000000  -4.453845  -1.006051   0.000000
     31      1      1   0.000000  -3.535616  -1.342635   0.000000
     41      1      1   0.000000  -2.795146  -0.562760   0.000000
     40      1      1   0.000000  -2.277648  -1.421590   0.000000
     29      1      1   0.000000  -0.792426  -0.905496   0.000000
     12      1      1   0.000000   0.543128  -0.555133   0.000000
     34      1      1   0.000000   1.247708  -2.083367   0.000000
     33      1      1   0.000000   2.439014  -1.629681   0.000000
     66      1      1   0.000000   3.037505  -0.892570   0.000000
     35      1      1   0.000000   4.008643  -0.665721   0.000000
     71      1      1   0.000000  -4.702709  -0.467074   0.000000
      3      1      1   0.000000  -4.727027   0.623457   0.000000
     52      1      1   0.000000  -3.929594  -0.378724   0.000000
     38      1      1   0.000000  -1.643004  -0.154926   0.000000
     10      1      1   0.000000  -2.693126   0.654655   0.000000
      6      1      1   0.000000  -0.633165   0.558122   0.000000
     63      1      1   0.000000   1.515241  -1.128052   0.000000
     45      1      1   0.000000   2.043785  -0.631560   0.000000
     46      1      1   0.000000   1.552013   0.200811   0.000000
     26      1      1   0.000000   2.867471   0.019682   0.000000
     72      1      1   0.000000  -3.675977   0.328276   0.000000
     14      1      1   0.000000  -1.674949   1.703058   0.000000
     69      1      1   0.000000  -0.626340   1.775894   0.000000
     47      1      1   0.000000  -0.012401   1.578857   0.000000
     22      1      1   0.000000   0.784769   0.836819   0.000000
     43      1      1   0.000000   1.578942   1.402349   0.000000
     59      1      1   0.000000   2.322561   0.845798   0.000000
     15      1      1   0.000000   4.691253   2.148764   0.000000
     79      1      1   0.000000  -2.638985   1.720664   0.000000
     58      1      1   0.000000  -1.713892   2.943984   0.000000
     11      1      1   0.000000  -0.470540   2.734625   0.000000
     17      1      1   0.000000   0.904716   2.278021   0.000000
     74      1      1   0.000000   2.079051   2.021961   0.000000
     25      1      1   0.000000   2.217817   2.861654   0.000000
     20      1      1   0.000000   3.065442   1.725465   0.000000
     64      1      1   0.000000  -3.818688   3.364778   0.000000
     37      1      1   0.000000  -4.695133   3.478258   0.000000
      2      1      1   0.000000  -2.948062   2.799866   0.000000
     80      1      1   0.000000  -1.127882   3.647906   0.000000
     36      1      1   0.000000   1.291493   3.708898   0.000000
     13      1      1   0.000000   3.606615   3.142148   0.000000
     19      1      1   0.000000  -3.635916   4.458633   0.000000
      1      1      1   0.000000  -2.076706   4.052285   0.000000
     44      1      1   0.000000  -0.075026  -4.517296   0.000000
     39      1      1   0.000000  -0.297369   4.088962   0.000000
     23      1      1   0.000000   0.765742   4.641367   0.000000
     50      1      1   0.000000   1.756970  -4.698795   0.000000
     30      1      1   0.000000   2.515777   4.114645   0.000000
     21      1      1   0.000000   3.774632   4.337222   0.000000

Bond Coeffs # ['bondID', 'bondCoeff', 'd']

      1   1.059953   0.971307
      2   1.454529   0.829161
      3   1.454529   0.829161
      4   0.654359   1.236209
      5   0.936177   1.033525
      6   0.936177   1.033525
      7   0.737772   1.164231
      8   0.499227   1.415308
      9   1.125443   0.942624
     10   1.125443   0.942624
     11   0.877728   1.067382
     12   0.665619   1.225708
     13   0.665619   1.225708
     14   0.900906   1.053563
     15   0.429587   1.525718
     16   0.900906   1.053563
     17   0.480060   1.443286
     18   0.592600   1.299030
     19   0.942616   1.029989
     20   0.777098   1.134390
     21   0.696691   1.198064
     22   1.280352   0.883762
     23   0.545062   1.354494
     24   0.885810   1.062502
     25   0.484294   1.436963
     26   0.789777   1.125247
     27   1.721279   0.762210
     28   0.712577   1.184634
     29   0.602857   1.287932
     30   0.905071   1.051135
     31   1.124764   0.942908
     32   1.247078   0.895475
     33   0.832997   1.095666
     34   0.478879   1.445064
     35   0.434810   1.516528
     36   0.813059   1.109019
     37   1.772511   0.751113
     38   0.646961   1.243257
     39   0.615369   1.274771
     40   1.025338   0.987567
     41   0.497663   1.417531
     42   1.651496   0.778146
     43   0.476232   1.449074
     44   0.570106   1.324409
     45   0.832961   1.095690
     46   0.524533   1.380745
     47   1.208590   0.909621
     48   0.801829   1.116758
     49   0.801829   1.116758
     50   0.460457   1.473688
     51   1.281206   0.883467
     52   1.109232   0.949487
     53   0.928408   1.037841
     54   0.487001   1.432963
     55   0.607002   1.283527
     56   0.785398   1.128379
     57   1.460057   0.827590
     58   1.312585   0.872843
     59   0.619935   1.270067
     60   0.478137   1.446185
     61   0.906968   1.050035
     62   0.648755   1.241537
     63   0.417329   1.547964
     64   0.601141   1.289769
     65   0.872666   1.070473
     66   2.405326   0.644782
     67   0.843097   1.089083
     68   0.462267   1.470799
     69   1.073302   0.965248
     70   1.073302   0.965248
     71   0.864677   1.075407
     72   0.609657   1.280729
     73   1.069883   0.966789
     74   1.006879   0.996578
     75   0.726758   1.173019
     76   0.726758   1.173019
     77   1.130860   0.940363
     78   0.735314   1.166175
     79   0.536418   1.365364
     80   1.496161   0.817543
     81   0.798441   1.119125
     82   0.922217   1.041318
     83   0.558713   1.337845
     84   0.544580   1.355093
     85   0.544580   1.355093
     86   0.751917   1.153228
     87   0.867715   1.073523
     88   0.976461   1.011982
     89   0.700649   1.194675
     90   0.502706   1.410402
     91   0.611899   1.278380
     92   1.464834   0.826239
     93   0.662992   1.228135
     94   0.818745   1.105161
     95   0.501022   1.412770
     96   0.793520   1.122589
     97   0.932383   1.035626
     98   0.638550   1.251418
     99   0.686609   1.206827
    100   0.595905   1.295423
    101   0.839040   1.091713
    102   0.976548   1.011936
    103   1.380567   0.851082
    104   0.670013   1.221682
    105   0.635216   1.254698
    106   0.712577   1.184634
    107   0.629028   1.260855
    108   0.573455   1.320536
    109   0.754326   1.151385
    110   0.438199   1.510651
    111   0.940036   1.031401
    112   1.052040   0.974954
    113   1.901635   0.725164
    114   1.577217   0.796259
    115   0.546963   1.352138
    116   0.546963   1.352138
    117   0.746260   1.157590
    118   0.498147   1.416841
    119   0.456654   1.479811
    120   1.159127   0.928826
    121   0.840442   1.090802
    122   1.787242   0.748012
    123   1.016052   0.992069
    124   0.629207   1.260675
    125   1.021038   0.989644
    126   0.647691   1.242556
    127   0.524900   1.380263
    128   0.524900   1.380263
    129   2.837451   0.593657
    130   0.459082   1.475893
    131   0.397657   1.585790
    132   0.906423   1.050351
    133   0.629438   1.260443
    134   0.906423   1.050351
    135   1.056112   0.973072
    136   1.075644   0.964197
    137   1.005460   0.997281
    138   0.468202   1.461449
    139   0.421481   1.540319
    140   0.421481   1.540319
    141   0.928057   1.038036
    142   1.161286   0.927963
    143   1.045551   0.977974
    144   0.979468   1.010427
    145   0.979468   1.010427
    146   0.634559   1.255348
    147   0.994636   1.002693
    148   0.568771   1.325962
    149   0.947970   1.027077

Bonds # ['ID', 'type', 'atom1', 'atom2']

         1         1        69        11
         2         2        42        51
         3         3        51        42
         4         4        38         6
         5         5        23        50
         6         6        50        23
         7         7        49        18
         8         8        32        16
         9         9        35        71
        10        10        71        35
        11        11        10        79
        12        12        39        32
        13        13        32        39
        14        14        37        42
        15        15         2         1
        16        16        42        37
        17        17        37        19
        18        18         8        50
        19        19        74        20
        20        20        29        38
        21        21        39        23
        22        22        64        37
        23        23         4         9
        24        24        76         5
        25        25        17        25
        26        26        11        80
        27        27        76        53
        28        28        32         1
        29        29        25        30
        30        30        14        69
        31        31        55        54
        32        32        55        48
        33        33        16        44
        34        34         6        22
        35        35        20        13
        36        36        64        19
        37        37        52        72
        38        38        47        11
        39        39        34        33
        40        40        54        34
        41        41        25        20
        42        42        71        52
        43        43        11        17
        44        44        18        33
        45        45        55        16
        46        46        29        12
        47        47        48        50
        48        48        50        30
        49        49        30        50
        50        50         8         7
        51        51        55        44
        52        52        33        66
        53        53        64         2
        54        54         9        29
        55        55         7        33
        56        56        12        63
        57        57        56        78
        58        58        51        56
        59        59         4        40
        60        60        22        17
        61        61        45        26
        62        62        14        58
        63        63         6        14
        64        64        36        30
        65        65        36        23
        66        66        69        47
        67        67        47        22
        68        68        15        13
        69        69        44        23
        70        70        23        44
        71        71        31        41
        72        72         3        52
        73        73        45        46
        74        74        46        22
        75        75        57         1
        76        76         1        57
        77        77        80        39
        78        78        58         1
        79        79        11        39
        80        80        75        52
        81        81        57        32
        82        82        31        52
        83        83         5        40
        84        84         8        21
        85        85        21         8
        86        86        47        17
        87        87        33        45
        88        88        18        78
        89        89         6        47
        90        90        18        35
        91        91        30        21
        92        92        76        57
        93        93        19        42
        94        94        43        17
        95        95        12        22
        96        96        79         2
        97        97        10        72
        98        98         8        49
        99        99        13        21
       100       100        48         7
       101       101         3        72
       102       102        42        21
       103       103        74        25
       104       104        41        10
       105       105         9        34
       106       106         1        32
       107       107        58        11
       108       108         7        34
       109       109        59        20
       110       110        16         9
       111       111        80         1
       112       112        22        43
       113       113        63        45
       114       114        43        74
       115       115        15        37
       116       116        37        15
       117       117        54         9
       118       118        25        13
       119       119        16         4
       120       120        43        59
       121       121        71         3
       122       122        49        78
       123       123        34        63
       124       124        12        46
       125       125        26        59
       126       126        58         2
       127       127         8        30
       128       128        30         8
       129       129        75        71
       130       130         5         4
       131       131        14        11
       132       132        44        39
       133       133        31        40
       134       134        39        44
       135       135        49        56
       136       136        14        79
       137       137        66        35
       138       138        10        14
       139       139         3        15
       140       140        15         3
       141       141        53        16
       142       142        66        26
       143       143        75        31
       144       144        51        21
       145       145        21        51
       146       146        25        36
       147       147        41        40
       148       148        38        10
       149       149        32        53
