ITEM: TIMESTEP
0
ITEM: NUMBER OF ATOMS
80
ITEM: BOX BOUNDS pp pp pp
-1.0000000000000000e+01 1.0000000000000000e+01
-1.0000000000000000e+01 1.0000000000000000e+01
-1.0000000000000001e-01 1.0000000000000001e-01
ITEM: ATOMS id type xs ys zs
80 4 0.211759 0.0252984 0.5
11 1 0.0559325 0.0574486 0.5
16 1 0.193673 0.0565827 0.5
1 1 0.324512 0.0776743 0.5
44 3 0.409299 0.0809109 0.5
20 1 0.832275 0.0539211 0.5
17 1 0.85465 0.101236 0.5
39 2 0.911828 0.0883837 0.5
41 3 0.167497 0.122444 0.5
7 1 0.858042 0.108791 0.5
50 3 0.886784 0.182692 0.5
9 1 0.445425 0.258519 0.5
42 3 0.472199 0.247234 0.5
5 1 0.812889 0.229897 0.5
33 2 0.936767 0.249813 0.5
18 1 0.016856 0.298421 0.5
61 4 0.115801 0.274914 0.5
55 3 0.293645 0.283716 0.5
48 3 0.565437 0.296795 0.5
36 2 0.606193 0.289708 0.5
23 2 0.693596 0.273226 0.5
57 3 0.768506 0.276823 0.5
29 2 0.275857 0.324471 0.5
24 2 0.327324 0.340578 0.5
22 2 0.474702 0.320199 0.5
46 3 0.888699 0.3576 0.5
49 3 0.84431 0.324455 0.5
3 1 0.925945 0.350129 0.5
6 1 0.150676 0.406234 0.5
75 4 0.284369 0.382135 0.5
8 1 0.385516 0.370757 0.5
31 2 0.378735 0.393384 0.5
56 3 0.707764 0.39786 0.5
35 2 0.106649 0.448448 0.5
47 3 0.370883 0.422383 0.5
74 4 0.681648 0.461192 0.5
51 3 0.88686 0.451534 0.5
15 1 0.925119 0.467817 0.5
66 4 0.982653 0.455019 0.5
2 1 0.0139521 0.492995 0.5
71 4 0.165973 0.505751 0.5
12 1 0.587168 0.525219 0.5
64 4 0.838192 0.491496 0.5
62 4 0.875378 0.474399 0.5
79 4 0.962068 0.474792 0.5
72 4 0.046384 0.575532 0.5
60 3 0.0668492 0.534842 0.5
68 4 0.281642 0.551464 0.5
26 2 0.343996 0.54137 0.5
59 3 0.3509 0.576999 0.5
21 2 0.627508 0.527986 0.5
27 2 0.214708 0.602914 0.5
58 3 0.264629 0.616042 0.5
28 2 0.444078 0.618461 0.5
13 1 0.762755 0.630296 0.5
19 1 0.849681 0.580407 0.5
78 4 0.367804 0.675878 0.5
45 3 0.51661 0.661594 0.5
52 3 0.644115 0.645522 0.5
4 1 0.091313 0.698137 0.5
53 3 0.18324 0.706881 0.5
65 4 0.166104 0.714861 0.5
32 2 0.236968 0.724785 0.5
77 4 0.237442 0.687091 0.5
14 1 0.326931 0.731491 0.5
70 4 0.569448 0.707662 0.5
43 3 0.624962 0.728633 0.5
40 2 0.159325 0.773537 0.5
10 1 0.30706 0.756898 0.5
38 2 0.307596 0.764533 0.5
63 4 0.533156 0.747646 0.5
73 4 0.619252 0.772141 0.5
30 2 0.673396 0.76802 0.5
34 2 0.673632 0.740638 0.5
37 2 0.716592 0.755635 0.5
67 4 0.133981 0.820737 0.5
69 4 0.34663 0.815555 0.5
76 4 0.221032 0.88259 0.5
54 3 0.433739 0.857943 0.5
25 2 0.417921 0.992821 0.5
ITEM: TIMESTEP
10
ITEM: NUMBER OF ATOMS
80
ITEM: BOX BOUNDS pp pp pp
-9.2705816587667975e+00 9.2705816587667975e+00
-9.2705816587667975e+00 9.2705816587667975e+00
-1.0000000000000001e-01 1.0000000000000001e-01
ITEM: ATOMS id type xs ys zs
80 4 0.211799 0.0252289 0.5
11 1 0.0559325 0.0574486 0.5
16 1 0.193633 0.0566522 0.5
1 1 0.324512 0.0776743 0.5
44 3 0.409299 0.0809109 0.5
20 1 0.832199 0.0537599 0.5
17 1 0.854534 0.101101 0.5
39 2 0.911934 0.0883514 0.5
41 3 0.167497 0.122444 0.5
7 1 0.858127 0.109119 0.5
50 3 0.886784 0.182692 0.5
9 1 0.445294 0.258554 0.5
42 3 0.472322 0.247182 0.5
5 1 0.812893 0.229894 0.5
33 2 0.936767 0.249813 0.5
18 1 0.016856 0.298421 0.5
61 4 0.115801 0.274914 0.5
55 3 0.293665 0.28367 0.5
48 3 0.565376 0.296806 0.5
36 2 0.606254 0.289697 0.5
23 2 0.693596 0.273226 0.5
57 3 0.768503 0.276827 0.5
29 2 0.275795 0.324504 0.5
24 2 0.32734 0.340578 0.5
22 2 0.47471 0.320216 0.5
46 3 0.8886 0.35762 0.5
49 3 0.84431 0.324455 0.5
3 1 0.926044 0.350109 0.5
6 1 0.150708 0.406202 0.5
75 4 0.284369 0.382135 0.5
8 1 0.385606 0.370554 0.5
31 2 0.37871 0.393459 0.5
56 3 0.707764 0.39786 0.5
35 2 0.106616 0.448479 0.5
47 3 0.370844 0.422525 0.5
74 4 0.681648 0.461192 0.5
51 3 0.886807 0.451443 0.5
15 1 0.925154 0.467834 0.5
66 4 0.982651 0.454976 0.5
2 1 0.0139841 0.493024 0.5
71 4 0.165973 0.505751 0.5
12 1 0.587048 0.525211 0.5
64 4 0.838192 0.491496 0.5
62 4 0.87532 0.47446 0.5
79 4 0.962112 0.474819 0.5
72 4 0.046384 0.575532 0.5
60 3 0.0668495 0.534843 0.5
68 4 0.281642 0.551464 0.5
26 2 0.343981 0.541291 0.5
59 3 0.350915 0.577077 0.5
21 2 0.627628 0.527994 0.5
27 2 0.214685 0.602908 0.5
58 3 0.264652 0.616048 0.5
28 2 0.444078 0.618461 0.5
13 1 0.762755 0.630296 0.5
19 1 0.849681 0.580407 0.5
78 4 0.367804 0.675878 0.5
45 3 0.51661 0.661594 0.5
52 3 0.644115 0.645522 0.5
4 1 0.091313 0.698137 0.5
53 3 0.183313 0.706842 0.5
65 4 0.166025 0.714898 0.5
32 2 0.236973 0.724834 0.5
77 4 0.237443 0.687043 0.5
14 1 0.327104 0.731242 0.5
70 4 0.569448 0.707662 0.5
43 3 0.624933 0.728626 0.5
40 2 0.159325 0.773537 0.5
10 1 0.306934 0.7568 0.5
38 2 0.307549 0.764881 0.5
63 4 0.533156 0.747646 0.5
73 4 0.619252 0.772142 0.5
30 2 0.673322 0.768181 0.5
34 2 0.673593 0.740482 0.5
37 2 0.716734 0.755638 0.5
67 4 0.133981 0.820737 0.5
69 4 0.34663 0.815555 0.5
76 4 0.221032 0.88259 0.5
54 3 0.433739 0.857943 0.5
25 2 0.417921 0.992821 0.5
ITEM: TIMESTEP
20
ITEM: NUMBER OF ATOMS
80
ITEM: BOX BOUNDS pp pp pp
-8.3555309060883367e+00 8.3555309060883367e+00
-8.3555309060883367e+00 8.3555309060883367e+00
-1.0000000000000001e-01 1.0000000000000001e-01
ITEM: ATOMS id type xs ys zs
80 4 0.211947 0.0249716 0.5
11 1 0.0559325 0.0574486 0.5
16 1 0.193487 0.0569022 0.5
1 1 0.324512 0.0776743 0.5
44 3 0.409299 0.0809109 0.5
20 1 0.831912 0.053149 0.5
17 1 0.854112 0.100659 0.5
39 2 0.912359 0.088222 0.5
41 3 0.167494 0.122451 0.5
7 1 0.858411 0.110302 0.5
50 3 0.886784 0.182692 0.5
9 1 0.44481 0.25865 0.5
42 3 0.472763 0.246997 0.5
5 1 0.812926 0.229859 0.5
33 2 0.936767 0.249813 0.5
18 1 0.016856 0.298421 0.5
61 4 0.115801 0.274914 0.5
55 3 0.293743 0.28349 0.5
48 3 0.565146 0.296846 0.5
36 2 0.606484 0.289657 0.5
23 2 0.693596 0.273226 0.5
57 3 0.768469 0.276862 0.5
29 2 0.275547 0.324631 0.5
24 2 0.32739 0.340569 0.5
22 2 0.474753 0.320305 0.5
46 3 0.888239 0.357695 0.5
49 3 0.844307 0.324452 0.5
3 1 0.926407 0.350036 0.5
6 1 0.150844 0.406072 0.5
75 4 0.284369 0.382135 0.5
8 1 0.385958 0.36983 0.5
31 2 0.378623 0.393714 0.5
56 3 0.707764 0.39786 0.5
35 2 0.106481 0.448609 0.5
47 3 0.370698 0.423055 0.5
74 4 0.681648 0.461192 0.5
51 3 0.88661 0.451106 0.5
15 1 0.92528 0.467899 0.5
66 4 0.982661 0.454793 0.5
2 1 0.0141195 0.493139 0.5
71 4 0.165973 0.505751 0.5
12 1 0.586612 0.525181 0.5
64 4 0.838192 0.491496 0.5
62 4 0.875091 0.474685 0.5
79 4 0.96225 0.474919 0.5
72 4 0.0463805 0.575539 0.5
60 3 0.0668713 0.53485 0.5
68 4 0.281642 0.551464 0.5
26 2 0.343925 0.541002 0.5
59 3 0.350971 0.577367 0.5
21 2 0.628063 0.528024 0.5
27 2 0.214579 0.60288 0.5
58 3 0.264758 0.616076 0.5
28 2 0.444078 0.618461 0.5
13 1 0.762755 0.630296 0.5
19 1 0.849681 0.580407 0.5
78 4 0.367804 0.675878 0.5
45 3 0.51661 0.661594 0.5
52 3 0.644115 0.645522 0.5
4 1 0.091313 0.698137 0.5
53 3 0.183551 0.706694 0.5
65 4 0.16574 0.715031 0.5
32 2 0.237002 0.725025 0.5
77 4 0.237445 0.686861 0.5
14 1 0.327727 0.730348 0.5
70 4 0.569448 0.707662 0.5
43 3 0.624805 0.728574 0.5
40 2 0.159329 0.773529 0.5
10 1 0.306496 0.756471 0.5
38 2 0.30738 0.76611 0.5
63 4 0.533156 0.747646 0.5
73 4 0.619243 0.772158 0.5
30 2 0.673055 0.768763 0.5
34 2 0.673459 0.739921 0.5
37 2 0.717272 0.755652 0.5
67 4 0.133977 0.820745 0.5
69 4 0.34663 0.815555 0.5
76 4 0.221032 0.88259 0.5
54 3 0.433739 0.857943 0.5
25 2 0.417921 0.992821 0.5
ITEM: TIMESTEP
30
ITEM: NUMBER OF ATOMS
80
ITEM: BOX BOUNDS pp pp pp
-7.6797332785575945e+00 7.6797332785575945e+00
-7.6797332785575945e+00 7.6797332785575945e+00
-1.0000000000000001e-01 1.0000000000000001e-01
ITEM: ATOMS id type xs ys zs
80 4 0.212246 0.0244558 0.5
11 1 0.0559325 0.0574486 0.5
16 1 0.193212 0.0573594 0.5
1 1 0.324512 0.0776743 0.5
44 3 0.409299 0.0809109 0.5
20 1 0.831323 0.0518984 0.5
17 1 0.853285 0.099881 0.5
39 2 0.913268 0.0879453 0.5
41 3 0.167471 0.12251 0.5
7 1 0.858915 0.112597 0.5
50 3 0.886788 0.182702 0.5
9 1 0.44384 0.25878 0.5
42 3 0.473622 0.246637 0.5
5 1 0.813032 0.229746 0.5
33 2 0.936767 0.249813 0.5
18 1 0.016856 0.298421 0.5
61 4 0.115801 0.274914 0.5
55 3 0.293899 0.283093 0.5
48 3 0.564672 0.296928 0.5
36 2 0.606958 0.289575 0.5
23 2 0.693596 0.273226 0.5
57 3 0.768363 0.276974 0.5
29 2 0.275006 0.32488 0.5
24 2 0.327471 0.340531 0.5
22 2 0.474864 0.320535 0.5
46 3 0.887549 0.357864 0.5
49 3 0.844276 0.324429 0.5
3 1 0.927129 0.349891 0.5
6 1 0.151143 0.405786 0.5
75 4 0.284366 0.382154 0.5
8 1 0.386705 0.368428 0.5
31 2 0.378479 0.394208 0.5
56 3 0.707764 0.39786 0.5
35 2 0.106182 0.448896 0.5
47 3 0.370401 0.424131 0.5
74 4 0.681648 0.461192 0.5
51 3 0.886209 0.450429 0.5
15 1 0.925482 0.468031 0.5
66 4 0.982725 0.454376 0.5
2 1 0.0144347 0.493382 0.5
71 4 0.165973 0.505751 0.5
12 1 0.585751 0.525122 0.5
64 4 0.838181 0.491501 0.5
62 4 0.87461 0.475135 0.5
79 4 0.962477 0.475118 0.5
72 4 0.0463588 0.575582 0.5
60 3 0.0669765 0.534873 0.5
68 4 0.281641 0.551464 0.5
26 2 0.343812 0.54042 0.5
59 3 0.351084 0.577948 0.5
21 2 0.628925 0.528083 0.5
27 2 0.21433 0.602814 0.5
58 3 0.265007 0.616141 0.5
28 2 0.444078 0.618461 0.5
13 1 0.762755 0.630297 0.5
19 1 0.849681 0.580406 0.5
78 4 0.367812 0.675866 0.5
45 3 0.51661 0.661594 0.5
52 3 0.644115 0.645522 0.5
4 1 0.091313 0.698137 0.5
53 3 0.183963 0.706385 0.5
65 4 0.165187 0.715278 0.5
32 2 0.23705 0.725414 0.5
77 4 0.237449 0.68648 0.5
14 1 0.328928 0.728629 0.5
70 4 0.569448 0.707662 0.5
43 3 0.624486 0.728402 0.5
40 2 0.159354 0.773491 0.5
10 1 0.305694 0.755894 0.5
38 2 0.307061 0.768458 0.5
63 4 0.533156 0.747646 0.5
73 4 0.619182 0.772232 0.5
30 2 0.67258 0.769921 0.5
34 2 0.673222 0.738834 0.5
37 2 0.718363 0.755679 0.5
67 4 0.13395 0.820795 0.5
69 4 0.346631 0.815557 0.5
76 4 0.221032 0.88259 0.5
54 3 0.433739 0.857943 0.5
25 2 0.417921 0.992821 0.5
ITEM: TIMESTEP
40
ITEM: NUMBER OF ATOMS
80
ITEM: BOX BOUNDS pp pp pp
-7.2039873890203463e+00 7.2039873890203463e+00
-7.2039873890203463e+00 7.2039873890203463e+00
-1.0000000000000001e-01 1.0000000000000001e-01
ITEM: ATOMS id type xs ys zs
80 4 0.212728 0.0236221 0.5
11 1 0.0559325 0.0574486 0.5
16 1 0.192796 0.0580262 0.5
1 1 0.324506 0.0776741 0.5
44 3 0.409305 0.0809111 0.5
20 1 0.830338 0.0498386 0.5
17 1 0.851972 0.09876 0.5
39 2 0.914825 0.0874846 0.5
41 3 0.167405 0.122676 0.5
7 1 0.859626 0.116165 0.5
50 3 0.886818 0.182775 0.5
9 1 0.442274 0.258912 0.5
42 3 0.474977 0.246064 0.5
5 1 0.813254 0.229512 0.5
33 2 0.936758 0.249807 0.5
18 1 0.0168762 0.298421 0.5
61 4 0.115801 0.274914 0.5
55 3 0.294138 0.282387 0.5
48 3 0.56389 0.297064 0.5
36 2 0.60774 0.289439 0.5
23 2 0.693591 0.273226 0.5
57 3 0.768147 0.27721 0.5
29 2 0.274072 0.325251 0.5
24 2 0.327587 0.34043 0.5
22 2 0.475076 0.320976 0.5
46 3 0.886488 0.35817 0.5
49 3 0.844179 0.324354 0.5
3 1 0.928276 0.349666 0.5
6 1 0.15166 0.40529 0.5
75 4 0.284345 0.382252 0.5
8 1 0.38797 0.36623 0.5
31 2 0.378297 0.394996 0.5
56 3 0.707764 0.39786 0.5
35 2 0.105665 0.449392 0.5
47 3 0.369918 0.425879 0.5
74 4 0.681648 0.461192 0.5
51 3 0.885553 0.44933 0.5
15 1 0.925703 0.468239 0.5
66 4 0.982883 0.453637 0.5
2 1 0.0150306 0.493795 0.5
71 4 0.165973 0.505751 0.5
12 1 0.584376 0.525027 0.5
64 4 0.838132 0.491523 0.5
62 4 0.873832 0.475851 0.5
79 4 0.962788 0.47544 0.5
72 4 0.0463016 0.575695 0.5
60 3 0.067232 0.534917 0.5
68 4 0.281626 0.551467 0.5
26 2 0.343645 0.539477 0.5
59 3 0.351266 0.578888 0.5
21 2 0.6303 0.528178 0.5
27 2 0.213881 0.602696 0.5
58 3 0.265456 0.616259 0.5
28 2 0.444078 0.618461 0.5
13 1 0.762728 0.630312 0.5
19 1 0.849707 0.580391 0.5
78 4 0.367863 0.675798 0.5
45 3 0.51661 0.661594 0.5
52 3 0.644115 0.645522 0.5
4 1 0.091309 0.698136 0.5
53 3 0.184551 0.70585 0.5
65 4 0.164324 0.715629 0.5
32 2 0.237068 0.726036 0.5
77 4 0.237458 0.685845 0.5
14 1 0.330801 0.72599 0.5
70 4 0.569448 0.707662 0.5
43 3 0.623885 0.728029 0.5
40 2 0.15941 0.773444 0.5
10 1 0.304489 0.755048 0.5
38 2 0.306581 0.772088 0.5
63 4 0.533156 0.747646 0.5
73 4 0.619006 0.772409 0.5
30 2 0.67191 0.771791 0.5
34 2 0.672894 0.737115 0.5
37 2 0.72014 0.755724 0.5
67 4 0.133879 0.820926 0.5
69 4 0.34666 0.815593 0.5
76 4 0.221032 0.88259 0.5
54 3 0.433739 0.857943 0.5
25 2 0.417921 0.992821 0.5
ITEM: TIMESTEP
50
ITEM: NUMBER OF ATOMS
80
ITEM: BOX BOUNDS pp pp pp
-6.8952399296267579e+00 6.8952399296267579e+00
-6.8952399296267579e+00 6.8952399296267579e+00
-1.0000000000000001e-01 1.0000000000000001e-01
ITEM: ATOMS id type xs ys zs
80 4 0.213408 0.0224454 0.5
11 1 0.0559325 0.0574486 0.5
16 1 0.192243 0.0588789 0.5
1 1 0.324461 0.0776724 0.5
44 3 0.409349 0.0809128 0.5
20 1 0.828911 0.0468927 0.5
17 1 0.850153 0.0973305 0.5
39 2 0.917114 0.0868215 0.5
41 3 0.167277 0.123 0.5
7 1 0.860502 0.121 0.5
50 3 0.88692 0.182966 0.5
9 1 0.44006 0.259011 0.5
42 3 0.476853 0.245247 0.5
5 1 0.813602 0.229135 0.5
33 2 0.936707 0.249768 0.5
18 1 0.0169931 0.298414 0.5
61 4 0.115801 0.274914 0.5
55 3 0.294457 0.281311 0.5
48 3 0.562769 0.297259 0.5
36 2 0.608839 0.289248 0.5
23 2 0.693568 0.27322 0.5
57 3 0.767822 0.277601 0.5
29 2 0.27268 0.325726 0.5
24 2 0.32774 0.340238 0.5
22 2 0.475432 0.321685 0.5
46 3 0.885058 0.358648 0.5
49 3 0.84397 0.324199 0.5
3 1 0.929849 0.349389 0.5
6 1 0.152427 0.404555 0.5
75 4 0.284289 0.382486 0.5
8 1 0.389809 0.363222 0.5
31 2 0.3781 0.396104 0.5
56 3 0.707764 0.39786 0.5
35 2 0.104904 0.450124 0.5
47 3 0.369233 0.428346 0.5
74 4 0.681648 0.461192 0.5
51 3 0.884611 0.44777 0.5
15 1 0.925876 0.468526 0.5
66 4 0.983169 0.45252 0.5
2 1 0.0159705 0.494404 0.5
71 4 0.165973 0.505751 0.5
12 1 0.582454 0.524896 0.5
64 4 0.838013 0.491575 0.5
62 4 0.872747 0.476845 0.5
79 4 0.963174 0.475897 0.5
72 4 0.046195 0.575905 0.5
60 3 0.0676931 0.534987 0.5
68 4 0.281566 0.551479 0.5
26 2 0.343449 0.53814 0.5
59 3 0.351523 0.580214 0.5
21 2 0.632222 0.52831 0.5
27 2 0.213198 0.602517 0.5
58 3 0.266139 0.616439 0.5
28 2 0.444078 0.618461 0.5
13 1 0.762634 0.630366 0.5
19 1 0.849802 0.580337 0.5
78 4 0.367993 0.675621 0.5
45 3 0.51661 0.661594 0.5
52 3 0.644115 0.645522 0.5
4 1 0.0912702 0.698125 0.5
53 3 0.185288 0.705034 0.5
65 4 0.163166 0.71606 0.5
32 2 0.236979 0.726894 0.5
77 4 0.237485 0.684923 0.5
14 1 0.333368 0.722463 0.5
70 4 0.56944 0.707659 0.5
43 3 0.622945 0.727405 0.5
40 2 0.159498 0.77343 0.5
10 1 0.302884 0.753937 0.5
38 2 0.305947 0.777005 0.5
63 4 0.533156 0.747646 0.5
73 4 0.618653 0.772727 0.5
30 2 0.67108 0.77443 0.5
34 2 0.672517 0.73472 0.5
37 2 0.722647 0.755789 0.5
67 4 0.133748 0.82117 0.5
69 4 0.346766 0.815722 0.5
76 4 0.221032 0.88259 0.5
54 3 0.433739 0.857943 0.5
25 2 0.417921 0.992821 0.5
ITEM: TIMESTEP
60
ITEM: NUMBER OF ATOMS
80
ITEM: BOX BOUNDS pp pp pp
-6.6980513259770893e+00 6.6980513259770893e+00
-6.6980513259770893e+00 6.6980513259770893e+00
-1.0000000000000001e-01 1.0000000000000001e-01
ITEM: ATOMS id type xs ys zs
80 4 0.214287 0.0209273 0.5
11 1 0.0559325 0.0574486 0.5
16 1 0.191566 0.0598808 0.5
1 1 0.324348 0.0776681 0.5
44 3 0.409462 0.0809172 0.5
20 1 0.827057 0.0430708 0.5
17 1 0.847845 0.0956425 0.5
39 2 0.920124 0.085949 0.5
41 3 0.167074 0.123516 0.5
7 1 0.86149 0.126977 0.5
50 3 0.88715 0.183322 0.5
9 1 0.437204 0.259039 0.5
42 3 0.479236 0.244185 0.5
5 1 0.814064 0.228621 0.5
33 2 0.93659 0.249652 0.5
18 1 0.0172778 0.298395 0.5
61 4 0.115801 0.274914 0.5
55 3 0.294851 0.279842 0.5
48 3 0.56131 0.297513 0.5
36 2 0.610221 0.289009 0.5
23 2 0.693537 0.273199 0.5
57 3 0.767402 0.278168 0.5
29 2 0.270802 0.326284 0.5
24 2 0.327927 0.339942 0.5
22 2 0.475993 0.322668 0.5
46 3 0.883285 0.359317 0.5
49 3 0.843611 0.323936 0.5
3 1 0.931816 0.349121 0.5
6 1 0.153452 0.403572 0.5
75 4 0.28419 0.382898 0.5
8 1 0.392199 0.35948 0.5
31 2 0.377905 0.397522 0.5
56 3 0.707764 0.39786 0.5
35 2 0.103921 0.451086 0.5
47 3 0.368347 0.431515 0.5
74 4 0.681648 0.461192 0.5
51 3 0.883375 0.445742 0.5
15 1 0.925945 0.468895 0.5
66 4 0.983599 0.450997 0.5
2 1 0.0172519 0.495228 0.5
71 4 0.165973 0.505751 0.5
12 1 0.579997 0.524727 0.5
64 4 0.837802 0.491667 0.5
62 4 0.871377 0.47811 0.5
79 4 0.963629 0.476495 0.5
72 4 0.0460298 0.576226 0.5
60 3 0.0683984 0.535091 0.5
68 4 0.281439 0.551505 0.5
26 2 0.343246 0.536407 0.5
59 3 0.351853 0.581921 0.5
21 2 0.634679 0.528478 0.5
27 2 0.212268 0.602272 0.5
58 3 0.267069 0.616684 0.5
28 2 0.444077 0.61846 0.5
13 1 0.762437 0.630479 0.5
19 1 0.849999 0.580224 0.5
78 4 0.368239 0.675288 0.5
45 3 0.51661 0.661595 0.5
52 3 0.644115 0.645522 0.5
4 1 0.0911466 0.698079 0.5
53 3 0.186128 0.703912 0.5
65 4 0.161757 0.71655 0.5
32 2 0.236749 0.727969 0.5
77 4 0.237554 0.683701 0.5
14 1 0.336578 0.718163 0.5
70 4 0.569401 0.707644 0.5
43 3 0.621661 0.726518 0.5
40 2 0.159614 0.773506 0.5
10 1 0.300918 0.752582 0.5
38 2 0.305169 0.783106 0.5
63 4 0.533156 0.747646 0.5
73 4 0.618083 0.773204 0.5
30 2 0.670134 0.777832 0.5
34 2 0.672135 0.731656 0.5
37 2 0.725867 0.755874 0.5
67 4 0.133546 0.821546 0.5
69 4 0.346995 0.815982 0.5
76 4 0.221032 0.88259 0.5
54 3 0.433739 0.857943 0.5
25 2 0.417921 0.992821 0.5
ITEM: TIMESTEP
70
ITEM: NUMBER OF ATOMS
80
ITEM: BOX BOUNDS pp pp pp
-6.5912147417621947e+00 6.5912147417621947e+00
-6.5912147417621947e+00 6.5912147417621947e+00
-1.0000000000000001e-01 1.0000000000000001e-01
ITEM: ATOMS id type xs ys zs
80 4 0.21535 0.0190932 0.5
11 1 0.0559325 0.0574486 0.5
16 1 0.190788 0.0609872 0.5
1 1 0.324148 0.0776604 0.5
44 3 0.409663 0.0809248 0.5
20 1 0.824845 0.0384621 0.5
17 1 0.845107 0.0937662 0.5
39 2 0.923762 0.0848734 0.5
41 3 0.16679 0.124244 0.5
7 1 0.862547 0.13384 0.5
50 3 0.887548 0.183865 0.5
9 1 0.433774 0.25893 0.5
42 3 0.482077 0.242901 0.5
5 1 0.814599 0.228022 0.5
33 2 0.936399 0.249438 0.5
18 1 0.0177785 0.298353 0.5
61 4 0.115801 0.274914 0.5
55 3 0.295314 0.277993 0.5
48 3 0.559533 0.297822 0.5
36 2 0.611832 0.288731 0.5
23 2 0.693506 0.273155 0.5
57 3 0.766906 0.278913 0.5
29 2 0.268442 0.326903 0.5
24 2 0.328138 0.339542 0.5
22 2 0.476806 0.323902 0.5
46 3 0.881217 0.360185 0.5
49 3 0.84309 0.323552 0.5
3 1 0.934109 0.348914 0.5
6 1 0.154723 0.402352 0.5
75 4 0.284046 0.383505 0.5
8 1 0.395053 0.355172 0.5
31 2 0.377726 0.399218 0.5
56 3 0.707764 0.39786 0.5
35 2 0.102761 0.452249 0.5
47 3 0.367278 0.435311 0.5
74 4 0.681648 0.461192 0.5
51 3 0.881854 0.443268 0.5
15 1 0.925868 0.469348 0.5
66 4 0.984175 0.449074 0.5
2 1 0.0188287 0.496266 0.5
71 4 0.165973 0.505751 0.5
12 1 0.577054 0.524525 0.5
64 4 0.837476 0.491806 0.5
62 4 0.869768 0.479616 0.5
79 4 0.964153 0.477228 0.5
72 4 0.0458023 0.576667 0.5
60 3 0.069369 0.535236 0.5
68 4 0.281231 0.55155 0.5
26 2 0.343057 0.534304 0.5
59 3 0.35225 0.583979 0.5
21 2 0.637622 0.52868 0.5
27 2 0.211098 0.601964 0.5
58 3 0.268239 0.616991 0.5
28 2 0.444068 0.618455 0.5
13 1 0.76212 0.630661 0.5
19 1 0.850316 0.580042 0.5
78 4 0.368631 0.674757 0.5
45 3 0.516619 0.6616 0.5
52 3 0.644115 0.645522 0.5
4 1 0.0908891 0.697976 0.5
53 3 0.187029 0.70248 0.5
65 4 0.16015 0.717078 0.5
32 2 0.236376 0.729236 0.5
77 4 0.237684 0.682189 0.5
14 1 0.340317 0.713277 0.5
70 4 0.569309 0.707611 0.5
43 3 0.620062 0.725393 0.5
40 2 0.159755 0.773718 0.5
10 1 0.298663 0.751025 0.5
38 2 0.30425 0.790199 0.5
63 4 0.533156 0.747646 0.5
73 4 0.617287 0.773832 0.5
30 2 0.669116 0.781932 0.5
34 2 0.671788 0.727985 0.5
37 2 0.729718 0.755976 0.5
67 4 0.133268 0.822061 0.5
69 4 0.347382 0.816387 0.5
76 4 0.221032 0.88259 0.5
54 3 0.433739 0.857943 0.5
25 2 0.417921 0.992821 0.5
ITEM: TIMESTEP
80
ITEM: NUMBER OF ATOMS
80
ITEM: BOX BOUNDS pp pp pp
-6.5593640191428646e+00 6.5593640191428646e+00
-6.5593640191428646e+00 6.5593640191428646e+00
-1.0000000000000001e-01 1.0000000000000001e-01
ITEM: ATOMS id type xs ys zs
80 4 0.21657 0.0169901 0.5
11 1 0.0559325 0.0574486 0.5
16 1 0.189933 0.0621474 0.5
1 1 0.323854 0.0776492 0.5
44 3 0.409957 0.080936 0.5
20 1 0.822381 0.0332276 0.5
17 1 0.842035 0.0917871 0.5
39 2 0.927866 0.0836197 0.5
41 3 0.166424 0.125187 0.5
7 1 0.863635 0.141235 0.5
50 3 0.888143 0.184606 0.5
9 1 0.429883 0.258626 0.5
42 3 0.485293 0.241445 0.5
5 1 0.815153 0.227408 0.5
33 2 0.93614 0.249125 0.5
18 1 0.0185174 0.298279 0.5
61 4 0.115801 0.274914 0.5
55 3 0.295834 0.275807 0.5
48 3 0.557492 0.298176 0.5
36 2 0.613605 0.288428 0.5
23 2 0.693485 0.273084 0.5
57 3 0.766356 0.279827 0.5
29 2 0.265643 0.327557 0.5
24 2 0.328359 0.339052 0.5
22 2 0.477895 0.325333 0.5
46 3 0.87892 0.361245 0.5
49 3 0.842417 0.323042 0.5
3 1 0.936638 0.348797 0.5
6 1 0.156211 0.400926 0.5
75 4 0.283865 0.384305 0.5
8 1 0.398244 0.350514 0.5
31 2 0.377572 0.401134 0.5
56 3 0.707764 0.39786 0.5
35 2 0.101481 0.453569 0.5
47 3 0.36606 0.439606 0.5
74 4 0.681648 0.461192 0.5
51 3 0.880076 0.440403 0.5
15 1 0.925622 0.469888 0.5
66 4 0.984887 0.446789 0.5
2 1 0.0206215 0.497485 0.5
71 4 0.165973 0.505751 0.5
12 1 0.57371 0.524296 0.5
64 4 0.837023 0.491992 0.5
62 4 0.867982 0.481317 0.5
79 4 0.964749 0.478081 0.5
72 4 0.045518 0.577233 0.5
60 3 0.0706077 0.53543 0.5
68 4 0.280942 0.551618 0.5
26 2 0.342895 0.531885 0.5
59 3 0.352701 0.586329 0.5
21 2 0.640966 0.528909 0.5
27 2 0.209716 0.601601 0.5
58 3 0.269621 0.617355 0.5
28 2 0.444043 0.61844 0.5
13 1 0.761679 0.630914 0.5
19 1 0.850757 0.579789 0.5
78 4 0.369193 0.673995 0.5
45 3 0.516645 0.661615 0.5
52 3 0.644113 0.645516 0.5
4 1 0.0904736 0.697802 0.5
53 3 0.187946 0.70076 0.5
65 4 0.158406 0.717626 0.5
32 2 0.235881 0.730667 0.5
77 4 0.237884 0.680422 0.5
14 1 0.344412 0.708045 0.5
70 4 0.569146 0.707552 0.5
43 3 0.618206 0.724082 0.5
40 2 0.159916 0.774084 0.5
10 1 0.296222 0.749324 0.5
38 2 0.303195 0.798022 0.5
63 4 0.533156 0.747646 0.5
73 4 0.616285 0.774578 0.5
30 2 0.668069 0.786603 0.5
34 2 0.671506 0.723825 0.5
37 2 0.734071 0.756095 0.5
67 4 0.132916 0.822713 0.5
69 4 0.34795 0.816922 0.5
76 4 0.221032 0.88259 0.5
54 3 0.433739 0.857943 0.5
25 2 0.417921 0.992821 0.5
ITEM: TIMESTEP
90
ITEM: NUMBER OF ATOMS
80
ITEM: BOX BOUNDS pp pp pp
-6.5823970657786894e+00 6.5823970657786894e+00
-6.5823970657786894e+00 6.5823970657786894e+00
-1.0000000000000001e-01 1.0000000000000001e-01
ITEM: ATOMS id type xs ys zs
80 4 0.217914 0.0146776 0.5
11 1 0.0559325 0.0574486 0.5
16 1 0.189032 0.0633124 0.5
1 1 0.323472 0.0776346 0.5
44 3 0.410339 0.0809506 0.5
20 1 0.819769 0.027556 0.5
17 1 0.838739 0.089786 0.5
39 2 0.932262 0.0822392 0.5
41 3 0.165982 0.126335 0.5
7 1 0.864714 0.148784 0.5
50 3 0.88896 0.18555 0.5
9 1 0.425662 0.258088 0.5
42 3 0.488782 0.239881 0.5
5 1 0.815673 0.226844 0.5
33 2 0.935825 0.248726 0.5
18 1 0.0194921 0.298164 0.5
61 4 0.115801 0.274914 0.5
55 3 0.296398 0.273356 0.5
48 3 0.555266 0.298558 0.5
36 2 0.615467 0.28811 0.5
23 2 0.693485 0.27298 0.5
57 3 0.765777 0.280889 0.5
29 2 0.262475 0.328224 0.5
24 2 0.32858 0.338492 0.5
22 2 0.479249 0.326899 0.5
46 3 0.876463 0.362479 0.5
49 3 0.841623 0.322414 0.5
3 1 0.939298 0.348789 0.5
6 1 0.15787 0.399334 0.5
75 4 0.283657 0.385276 0.5
8 1 0.40163 0.345727 0.5
31 2 0.377451 0.4032 0.5
56 3 0.707764 0.39786 0.5
35 2 0.100142 0.45499 0.5
47 3 0.364738 0.444245 0.5
74 4 0.681648 0.461192 0.5
51 3 0.878082 0.437225 0.5
15 1 0.925203 0.470508 0.5
66 4 0.985712 0.444207 0.5
2 1 0.0225345 0.49884 0.5
71 4 0.165973 0.505751 0.5
12 1 0.570069 0.524046 0.5
64 4 0.836437 0.492225 0.5
62 4 0.866091 0.483157 0.5
79 4 0.965421 0.47903 0.5
72 4 0.0451853 0.57792 0.5
60 3 0.0721009 0.535683 0.5
68 4 0.280579 0.551709 0.5
26 2 0.342767 0.529225 0.5
59 3 0.353192 0.588899 0.5
21 2 0.644607 0.529159 0.5
27 2 0.208162 0.601192 0.5
58 3 0.271175 0.617763 0.5
28 2 0.443999 0.618414 0.5
13 1 0.761124 0.631233 0.5
19 1 0.851312 0.57947 0.5
78 4 0.369938 0.67298 0.5
45 3 0.516689 0.661641 0.5
52 3 0.644101 0.64548 0.5
4 1 0.0899031 0.69756 0.5
53 3 0.188829 0.698792 0.5
65 4 0.156585 0.718175 0.5
32 2 0.235294 0.732238 0.5
77 4 0.238161 0.678448 0.5
14 1 0.348668 0.702728 0.5
70 4 0.568897 0.707465 0.5
43 3 0.616169 0.722661 0.5
40 2 0.160091 0.774597 0.5
10 1 0.293716 0.747549 0.5
38 2 0.302011 0.806284 0.5
63 4 0.533156 0.747646 0.5
73 4 0.615118 0.775392 0.5
30 2 0.667031 0.791677 0.5
34 2 0.671316 0.719347 0.5
37 2 0.738766 0.756229 0.5
67 4 0.132494 0.823489 0.5
69 4 0.348702 0.817544 0.5
76 4 0.221032 0.88259 0.5
54 3 0.433739 0.857943 0.5
25 2 0.417921 0.992821 0.5
ITEM: TIMESTEP
100
ITEM: NUMBER OF ATOMS
80
ITEM: BOX BOUNDS pp pp pp
-6.6366567396671670e+00 6.6366567396671670e+00
-6.6366567396671670e+00 6.6366567396671670e+00
-1.0000000000000001e-01 1.0000000000000001e-01
ITEM: ATOMS id type xs ys zs
80 4 0.219349 0.0122134 0.5
11 1 0.0559325 0.0574486 0.5
16 1 0.188109 0.0644409 0.5
1 1 0.323014 0.0776171 0.5
44 3 0.410797 0.0809681 0.5
20 1 0.817075 0.0215852 0.5
17 1 0.83533 0.0878307 0.5
39 2 0.936789 0.080794 0.5
41 3 0.165471 0.12767 0.5
7 1 0.865763 0.156191 0.5
50 3 0.890025 0.186697 0.5
9 1 0.421236 0.257295 0.5
42 3 0.492444 0.23827 0.5
5 1 0.81611 0.226378 0.5
33 2 0.935471 0.248267 0.5
18 1 0.0206841 0.297999 0.5
61 4 0.115801 0.274914 0.5
55 3 0.296992 0.270714 0.5
48 3 0.55293 0.298952 0.5
36 2 0.617353 0.287792 0.5
23 2 0.693514 0.272841 0.5
57 3 0.765187 0.282074 0.5
29 2 0.259014 0.328885 0.5
24 2 0.328787 0.337888 0.5
22 2 0.480842 0.328538 0.5
46 3 0.873909 0.363855 0.5
49 3 0.840736 0.321676 0.5
3 1 0.942003 0.348896 0.5
6 1 0.159656 0.39762 0.5
75 4 0.283434 0.386385 0.5
8 1 0.405095 0.340973 0.5
31 2 0.377368 0.405347 0.5
56 3 0.707764 0.39786 0.5
35 2 0.0988004 0.456454 0.5
47 3 0.363343 0.44911 0.5
74 4 0.681648 0.461192 0.5
51 3 0.875913 0.433823 0.5
15 1 0.924624 0.471197 0.5
66 4 0.986622 0.441403 0.5
2 1 0.0244742 0.500285 0.5
71 4 0.165973 0.505751 0.5
12 1 0.566232 0.523783 0.5
64 4 0.835714 0.492498 0.5
62 4 0.86416 0.485081 0.5
79 4 0.966176 0.480048 0.5
72 4 0.0448132 0.578715 0.5
60 3 0.0738267 0.536013 0.5
68 4 0.280159 0.551822 0.5
26 2 0.34267 0.526401 0.5
59 3 0.353708 0.591616 0.5
21 2 0.648444 0.529422 0.5
27 2 0.206482 0.60075 0.5
58 3 0.272855 0.618205 0.5
28 2 0.443939 0.618378 0.5
13 1 0.760472 0.631607 0.5
19 1 0.851964 0.579096 0.5
78 4 0.370876 0.671696 0.5
45 3 0.516748 0.661677 0.5
52 3 0.644068 0.64539 0.5
4 1 0.0891969 0.697255 0.5
53 3 0.189639 0.696623 0.5
65 4 0.154736 0.718716 0.5
32 2 0.234616 0.73393 0.5
77 4 0.238513 0.676319 0.5
14 1 0.352942 0.697532 0.5
70 4 0.568556 0.707348 0.5
43 3 0.614028 0.721211 0.5
40 2 0.160277 0.775229 0.5
10 1 0.291252 0.745756 0.5
38 2 0.300705 0.814752 0.5
63 4 0.533156 0.747646 0.5
73 4 0.613824 0.776233 0.5
30 2 0.666028 0.796977 0.5
34 2 0.671246 0.714717 0.5
37 2 0.743647 0.756376 0.5
67 4 0.132012 0.824373 0.5
69 4 0.34963 0.818203 0.5
76 4 0.221032 0.88259 0.5
54 3 0.433739 0.857943 0.5
25 2 0.417921 0.992821 0.5
ITEM: TIMESTEP
110
ITEM: NUMBER OF ATOMS
80
ITEM: BOX BOUNDS pp pp pp
-6.6970460690998772e+00 6.6970460690998772e+00
-6.6970460690998772e+00 6.6970460690998772e+00
-1.0000000000000001e-01 1.0000000000000001e-01
ITEM: ATOMS id type xs ys zs
80 4 0.220847 0.00964345 0.5
11 1 0.0559325 0.0574486 0.5
16 1 0.187183 0.0655022 0.5
1 1 0.322496 0.0775974 0.5
44 3 0.411315 0.0809879 0.5
20 1 0.814337 0.0153831 0.5
17 1 0.831899 0.08597 0.5
39 2 0.941312 0.0793432 0.5
41 3 0.164899 0.129179 0.5
7 1 0.866778 0.163272 0.5
50 3 0.891363 0.188036 0.5
9 1 0.416705 0.256238 0.5
42 3 0.496199 0.236646 0.5
5 1 0.816422 0.226044 0.5
33 2 0.935098 0.24778 0.5
18 1 0.0220698 0.297773 0.5
61 4 0.115801 0.274914 0.5
55 3 0.297603 0.267946 0.5
48 3 0.55055 0.29934 0.5
36 2 0.619211 0.287481 0.5
23 2 0.693582 0.272666 0.5
57 3 0.764601 0.283363 0.5
29 2 0.255332 0.329528 0.5
24 2 0.328971 0.337258 0.5
22 2 0.482639 0.330221 0.5
46 3 0.871304 0.365327 0.5
49 3 0.839775 0.320835 0.5
3 1 0.944696 0.349116 0.5
6 1 0.161529 0.395822 0.5
75 4 0.283209 0.387598 0.5
8 1 0.408563 0.336341 0.5
31 2 0.377324 0.407519 0.5
56 3 0.707764 0.39786 0.5
35 2 0.0975043 0.457906 0.5
47 3 0.361902 0.454107 0.5
74 4 0.681648 0.461192 0.5
51 3 0.873606 0.430291 0.5
15 1 0.923905 0.471946 0.5
66 4 0.987592 0.438448 0.5
2 1 0.0263602 0.50178 0.5
71 4 0.165973 0.505751 0.5
12 1 0.562283 0.523512 0.5
64 4 0.83485 0.492807 0.5
62 4 0.862236 0.487043 0.5
79 4 0.967021 0.481109 0.5
72 4 0.0444102 0.579603 0.5
60 3 0.075766 0.536435 0.5
68 4 0.279696 0.551953 0.5
26 2 0.342589 0.523515 0.5
59 3 0.354238 0.594421 0.5
21 2 0.652393 0.529693 0.5
27 2 0.204714 0.600285 0.5
58 3 0.274623 0.61867 0.5
28 2 0.44387 0.618337 0.5
13 1 0.759743 0.632025 0.5
19 1 0.852693 0.578678 0.5
78 4 0.37201 0.670127 0.5
45 3 0.516818 0.661718 0.5
52 3 0.644005 0.645224 0.5
4 1 0.0883723 0.6969 0.5
53 3 0.190354 0.694301 0.5
65 4 0.152891 0.719241 0.5
32 2 0.233825 0.735718 0.5
77 4 0.238936 0.674081 0.5
14 1 0.35715 0.692562 0.5
70 4 0.568113 0.707201 0.5
43 3 0.611838 0.71978 0.5
40 2 0.160468 0.775943 0.5
10 1 0.288912 0.743978 0.5
38 2 0.299282 0.82332 0.5
63 4 0.533156 0.747646 0.5
73 4 0.612432 0.777073 0.5
30 2 0.665096 0.802366 0.5
34 2 0.671326 0.710072 0.5
37 2 0.748587 0.756536 0.5
67 4 0.131475 0.82535 0.5
69 4 0.350717 0.818863 0.5
76 4 0.221032 0.88259 0.5
54 3 0.433739 0.857943 0.5
25 2 0.417921 0.992821 0.5
ITEM: TIMESTEP
120
ITEM: NUMBER OF ATOMS
80
ITEM: BOX BOUNDS pp pp pp
-6.7356186838058907e+00 6.7356186838058907e+00
-6.7356186838058907e+00 6.7356186838058907e+00
-1.0000000000000001e-01 1.0000000000000001e-01
ITEM: ATOMS id type xs ys zs
80 4 0.222394 0.00699333 0.5
11 1 0.0559325 0.0574486 0.5
16 1 0.186265 0.0664768 0.5
1 1 0.32193 0.0775758 0.5
44 3 0.411881 0.0810095 0.5
20 1 0.811565 0.00896956 0.5
17 1 0.828496 0.0842326 0.5
39 2 0.945771 0.0779133 0.5
41 3 0.164269 0.130854 0.5
7 1 0.867738 0.169947 0.5
50 3 0.893011 0.189547 0.5
9 1 0.41213 0.254912 0.5
42 3 0.499995 0.235023 0.5
5 1 0.816574 0.225863 0.5
33 2 0.934732 0.247298 0.5
18 1 0.023632 0.297477 0.5
61 4 0.115801 0.274914 0.5
55 3 0.29822 0.265097 0.5
48 3 0.548168 0.299709 0.5
36 2 0.621008 0.287184 0.5
23 2 0.693696 0.272452 0.5
57 3 0.764029 0.284747 0.5
29 2 0.251478 0.330143 0.5
24 2 0.329126 0.336619 0.5
22 2 0.48461 0.331936 0.5
46 3 0.868672 0.366853 0.5
49 3 0.838749 0.319896 0.5
3 1 0.947346 0.349444 0.5
6 1 0.163466 0.39396 0.5
75 4 0.282986 0.38889 0.5
8 1 0.411998 0.331873 0.5
31 2 0.377322 0.409675 0.5
56 3 0.707764 0.39786 0.5
35 2 0.0962865 0.459309 0.5
47 3 0.36043 0.459172 0.5
74 4 0.681649 0.46119 0.5
51 3 0.871178 0.426707 0.5
15 1 0.923066 0.472745 0.5
66 4 0.988604 0.435398 0.5
2 1 0.0281325 0.5033 0.5
71 4 0.165973 0.505751 0.5
12 1 0.558274 0.523237 0.5