ITEM: TIMESTEP
500
ITEM: NUMBER OF ATOMS
60
ITEM: BOX BOUNDS pp pp pp
-4.8136841751207147e+00 4.8136841751207147e+00
-4.8139037089564001e+00 4.8139037089564001e+00
-1.0000000000000001e-01 1.0000000000000001e-01
ITEM: ATOMS id type xs ys zs
28 1 0.090116 0.0412572 0.499356
45 1 0.981998 0.0996602 0.499915
44 1 0.346126 0.126907 0.500431
70 1 0.37574 0.0528251 0.499945
52 1 0.461864 0.0582207 0.500766
15 1 0.595907 0.0688707 0.499277
61 1 0.894402 0.0566743 0.499769
26 1 0.0722854 0.164189 0.499461
21 1 0.242071 0.153424 0.499461
76 1 0.415953 0.117974 0.500853
48 1 0.354778 0.219146 0.501246
14 1 0.478805 0.201978 0.499607
17 1 0.741204 0.119547 0.500367
40 1 0.880791 0.140782 0.500642
11 1 0.244775 0.28952 0.500812
62 1 0.356046 0.290135 0.499785
57 1 0.434144 0.311582 0.500123
30 1 0.550047 0.31388 0.499451
29 1 0.627315 0.207256 0.500434
43 1 0.720216 0.257758 0.49983
55 1 0.80877 0.222251 0.500801
33 1 0.802128 0.33059 0.500385
6 1 0.0991871 0.310799 0.500614
46 1 0.182868 0.402062 0.500298
4 1 0.333238 0.414285 0.499394
8 1 0.478116 0.432911 0.499951
20 1 0.657778 0.396699 0.498384
35 1 0.0848637 0.456096 0.499814
1 1 0.23877 0.520575 0.500748
22 1 0.368231 0.559059 0.500316
10 1 0.597586 0.555828 0.499504
75 1 0.690306 0.491873 0.500627
27 1 0.78139 0.462074 0.500272
53 1 0.888492 0.514483 0.500125
58 1 0.977785 0.54428 0.49946
47 1 0.12481 0.567678 0.500283
34 1 0.267361 0.643968 0.498633
51 1 0.368931 0.67459 0.49869
59 1 0.473006 0.554063 0.499482
50 1 0.816589 0.570487 0.500614
63 1 0.927474 0.606065 0.500888
32 1 0.00338663 0.654849 0.501293
12 1 0.137067 0.69275 0.500392
36 1 0.184181 0.816648 0.497765
31 1 0.30563 0.765401 0.500356
65 1 0.415934 0.737932 0.501099
16 1 0.492456 0.6605 0.49868
7 1 0.858404 0.683052 0.499827
77 1 0.957541 0.743798 0.500479
2 1 0.0408942 0.818944 0.499
37 1 0.158595 0.941056 0.49934
23 1 0.404247 0.837216 0.49883
9 1 0.891536 0.831418 0.501524
66 1 0.0714287 0.939735 0.501145
3 1 0.26035 0.0337239 0.499589
38 1 0.377101 0.958306 0.500579
5 1 0.517969 0.932061 0.500086
60 1 0.695095 0.00731878 0.501173
19 1 0.818913 0.972269 0.500694
13 1 0.970583 0.972864 0.500669
ITEM: TIMESTEP
750
ITEM: NUMBER OF ATOMS
60
ITEM: BOX BOUNDS pp pp pp
-4.8124805927969030e+00 4.8124805927969030e+00
-4.8175039844910579e+00 4.8175039844910579e+00
-1.0000000000000001e-01 1.0000000000000001e-01
ITEM: ATOMS id type xs ys zs
28 1 0.090064 0.0416771 0.500101
45 1 0.982065 0.100646 0.500109
44 1 0.346537 0.127338 0.501295
70 1 0.376359 0.0527827 0.501246
52 1 0.462725 0.0592413 0.500218
15 1 0.595995 0.0689367 0.499109
61 1 0.894749 0.0566282 0.499588
26 1 0.0719521 0.165265 0.500111
21 1 0.24297 0.154539 0.500071
76 1 0.416083 0.118353 0.500284
48 1 0.354767 0.219598 0.501082
14 1 0.478427 0.202507 0.500447
17 1 0.741323 0.119745 0.49852
40 1 0.880722 0.140714 0.501638
11 1 0.24521 0.290292 0.50128
62 1 0.356479 0.290228 0.500481
57 1 0.435191 0.312078 0.498464
30 1 0.550702 0.314296 0.500495
29 1 0.626635 0.206733 0.500554
43 1 0.71999 0.25719 0.500167
55 1 0.808889 0.22305 0.499574
33 1 0.800879 0.331628 0.499973
6 1 0.0988345 0.311395 0.501002
46 1 0.182811 0.401835 0.502038
4 1 0.333361 0.413494 0.500016
8 1 0.478083 0.433115 0.501146
20 1 0.657442 0.397925 0.495699
35 1 0.0848216 0.456369 0.500467
1 1 0.238773 0.520155 0.49861
22 1 0.367599 0.55852 0.501107
10 1 0.597415 0.55562 0.499147
75 1 0.690129 0.492738 0.500584
27 1 0.780737 0.463187 0.50086
53 1 0.888641 0.514357 0.49992
58 1 0.977841 0.545084 0.4994
47 1 0.124797 0.567155 0.500654
34 1 0.267418 0.644354 0.498904
51 1 0.368931 0.674364 0.498224
59 1 0.472758 0.553615 0.49774
50 1 0.818006 0.571057 0.499523
63 1 0.926506 0.605635 0.501091
32 1 0.00267027 0.655153 0.502685
12 1 0.137246 0.692278 0.502017
36 1 0.184278 0.816476 0.49836
31 1 0.305408 0.764885 0.50211
65 1 0.415514 0.737602 0.500769
16 1 0.491913 0.660263 0.500069
7 1 0.858565 0.684141 0.500244
77 1 0.957811 0.744691 0.502164
2 1 0.0415975 0.81939 0.497164
37 1 0.1592 0.941754 0.498973
23 1 0.404891 0.836993 0.499846
9 1 0.891994 0.831597 0.50181
66 1 0.0722499 0.940387 0.502401
3 1 0.261305 0.0341389 0.499786
38 1 0.378118 0.958467 0.501342
5 1 0.519054 0.931556 0.500165
60 1 0.695477 0.00764123 0.500884
19 1 0.819116 0.972636 0.500047
13 1 0.971245 0.973577 0.50034
ITEM: TIMESTEP
1000
ITEM: NUMBER OF ATOMS
60
ITEM: BOX BOUNDS pp pp pp
-4.8112770104730922e+00 4.8112770104730922e+00
-4.8167806235610788e+00 4.8167806235610788e+00
-1.0000000000000001e-01 1.0000000000000001e-01
ITEM: ATOMS id type xs ys zs
28 1 0.0900197 0.0412727 0.501543
45 1 0.982878 0.0990841 0.49971
44 1 0.346372 0.128228 0.500616
70 1 0.376955 0.0542513 0.49973
52 1 0.462895 0.0604089 0.498822
15 1 0.59662 0.0690273 0.499735
61 1 0.895006 0.0560846 0.499969
26 1 0.072153 0.164575 0.501003
21 1 0.242754 0.154202 0.500495
76 1 0.416237 0.118954 0.499911
48 1 0.355493 0.220439 0.501709
14 1 0.479288 0.202899 0.499407
17 1 0.742169 0.119682 0.497928
40 1 0.882344 0.140464 0.501919
11 1 0.245749 0.290185 0.501036
62 1 0.35647 0.290881 0.500542
57 1 0.435073 0.312217 0.498133
30 1 0.551056 0.31459 0.499818
29 1 0.627485 0.206512 0.498474
43 1 0.720683 0.256178 0.500933
55 1 0.809821 0.222941 0.499841
33 1 0.800988 0.331358 0.500812
6 1 0.0996967 0.31035 0.499717
46 1 0.183308 0.401734 0.503676
4 1 0.333802 0.414323 0.50029
8 1 0.478528 0.433145 0.499831
20 1 0.660132 0.397622 0.495041
35 1 0.0863333 0.455723 0.499238
1 1 0.238113 0.520619 0.499304
22 1 0.367885 0.55855 0.499133
10 1 0.597599 0.556127 0.497664
75 1 0.690905 0.49344 0.501265
27 1 0.78228 0.463256 0.501101
53 1 0.888899 0.514538 0.499774
58 1 0.977062 0.544581 0.500458
47 1 0.123783 0.567585 0.501369
34 1 0.2678 0.644465 0.498048
51 1 0.369245 0.674682 0.499345
59 1 0.472442 0.554073 0.497465
50 1 0.817714 0.571135 0.498676
63 1 0.926864 0.606808 0.501879
32 1 0.0034161 0.654846 0.503044
12 1 0.138098 0.693026 0.501259
36 1 0.184303 0.816919 0.499873
31 1 0.305773 0.765451 0.501342
65 1 0.415264 0.738148 0.501437
16 1 0.491925 0.66077 0.5012
7 1 0.857975 0.683768 0.499097
77 1 0.95775 0.743438 0.50306
2 1 0.0413155 0.818452 0.49731
37 1 0.159536 0.94135 0.49826
23 1 0.405148 0.83757 0.50039
9 1 0.892414 0.831384 0.501728
66 1 0.0718965 0.940024 0.504119
3 1 0.261724 0.0340219 0.499477
38 1 0.378533 0.959205 0.502762
5 1 0.51939 0.931384 0.501952
60 1 0.69499 0.00769206 0.499658
19 1 0.818613 0.972572 0.500561
13 1 0.970901 0.972721 0.501289
ITEM: TIMESTEP
1250
ITEM: NUMBER OF ATOMS
60
ITEM: BOX BOUNDS pp pp pp
-4.8100734281492805e+00 4.8100734281492805e+00
-4.8145199562706500e+00 4.8145199562706500e+00
-1.0000000000000001e-01 1.0000000000000001e-01
ITEM: ATOMS id type xs ys zs
28 1 0.0913077 0.0408255 0.501926
45 1 0.982315 0.0994975 0.499184
44 1 0.346617 0.127135 0.500201
70 1 0.376991 0.053176 0.501636
52 1 0.463442 0.0597746 0.497455
15 1 0.59671 0.0698736 0.50041
61 1 0.894508 0.0557478 0.499589
26 1 0.0722528 0.165297 0.5011
21 1 0.243371 0.153206 0.499306
76 1 0.41655 0.118575 0.498923
48 1 0.355238 0.21943 0.501103
14 1 0.479738 0.202117 0.49896
17 1 0.741562 0.120046 0.497617
40 1 0.881768 0.14043 0.503337
11 1 0.245284 0.28967 0.500901
62 1 0.356945 0.290145 0.500732
57 1 0.435598 0.31159 0.49941
30 1 0.550996 0.314236 0.500971
29 1 0.627694 0.207792 0.496695
43 1 0.720938 0.257938 0.500969
55 1 0.80984 0.223519 0.497408
33 1 0.802838 0.331036 0.501012
6 1 0.098872 0.311664 0.500644
46 1 0.18333 0.402126 0.502855
4 1 0.332881 0.413774 0.502406
8 1 0.477702 0.433134 0.498858
20 1 0.658517 0.397933 0.494716
35 1 0.0855239 0.456404 0.499033
1 1 0.23837 0.521006 0.50018
22 1 0.368245 0.558726 0.500394
10 1 0.597804 0.556312 0.498403
75 1 0.690936 0.493037 0.49949
27 1 0.782191 0.461913 0.50245
53 1 0.88906 0.514425 0.499568
58 1 0.977962 0.544459 0.498706
47 1 0.124558 0.567716 0.501702
34 1 0.267641 0.645116 0.498661
51 1 0.369269 0.67434 0.499078
59 1 0.472967 0.554213 0.49647
50 1 0.817365 0.570921 0.499861
63 1 0.927049 0.60585 0.502282
32 1 0.00281543 0.654902 0.502621
12 1 0.137543 0.692505 0.501658
36 1 0.184545 0.815729 0.49959
31 1 0.306525 0.765915 0.504141
65 1 0.415576 0.738477 0.499931
16 1 0.492329 0.660733 0.502503
7 1 0.858215 0.68326 0.501129
77 1 0.958284 0.743997 0.501701
2 1 0.0417237 0.819241 0.496279
37 1 0.160135 0.940679 0.497403
23 1 0.405873 0.83757 0.50172
9 1 0.892143 0.830577 0.502238
66 1 0.0726184 0.939458 0.504167
3 1 0.262364 0.0329594 0.499945
38 1 0.379168 0.95835 0.5021
5 1 0.52054 0.931876 0.500547
60 1 0.695248 0.00789666 0.500803
19 1 0.818317 0.971203 0.500601
13 1 0.971605 0.972659 0.499091
ITEM: TIMESTEP
1500
ITEM: NUMBER OF ATOMS
60
ITEM: BOX BOUNDS pp pp pp
-4.8088698458254688e+00 4.8088698458254688e+00
-4.8169671360554291e+00 4.8169671360554291e+00
-1.0000000000000001e-01 1.0000000000000001e-01
ITEM: ATOMS id type xs ys zs
28 1 0.0899287 0.041191 0.5026
45 1 0.982588 0.0988923 0.499155
44 1 0.346311 0.127155 0.498818
70 1 0.376737 0.0534269 0.501688
52 1 0.463279 0.0597767 0.497615
15 1 0.596961 0.0701604 0.499675
61 1 0.894771 0.0556537 0.4995
26 1 0.0726911 0.164785 0.502053
21 1 0.242191 0.153025 0.499326
76 1 0.415993 0.118435 0.498812
48 1 0.355651 0.219443 0.500434
14 1 0.48005 0.20217 0.49936
17 1 0.741929 0.119399 0.498951
40 1 0.881819 0.140246 0.503147
11 1 0.245232 0.28933 0.500459
62 1 0.35696 0.289903 0.501135
57 1 0.435435 0.311439 0.500322
30 1 0.550657 0.31572 0.499488
29 1 0.628013 0.20824 0.497206
43 1 0.720913 0.258994 0.500324
55 1 0.809412 0.222318 0.495877
33 1 0.803306 0.330959 0.501307
6 1 0.0988371 0.310682 0.50181
46 1 0.182583 0.401643 0.504033
4 1 0.332466 0.41304 0.501536
8 1 0.477094 0.433126 0.497994
20 1 0.658572 0.399101 0.495049
35 1 0.0850809 0.456076 0.498918
1 1 0.237236 0.520619 0.500044
22 1 0.367611 0.557729 0.501416
10 1 0.597441 0.553443 0.498675
75 1 0.69193 0.493568 0.500578
27 1 0.782341 0.462433 0.503091
53 1 0.889311 0.514369 0.500957
58 1 0.977749 0.544919 0.497631
47 1 0.122934 0.56745 0.501474
34 1 0.267516 0.644749 0.498151
51 1 0.370195 0.673879 0.49928
59 1 0.472354 0.554279 0.49529
50 1 0.817874 0.570439 0.498988
63 1 0.926356 0.60549 0.502589
32 1 0.00228021 0.654745 0.502381
12 1 0.136561 0.692527 0.50336
36 1 0.184807 0.816201 0.499913
31 1 0.307056 0.7651 0.504736
65 1 0.415554 0.737947 0.499084
16 1 0.493261 0.660886 0.50321
7 1 0.858386 0.683639 0.499571
77 1 0.958238 0.744084 0.500543
2 1 0.0417581 0.819583 0.494895
37 1 0.158636 0.940696 0.497609
23 1 0.405809 0.837661 0.502553
9 1 0.892549 0.830984 0.502346
66 1 0.071335 0.939889 0.50542
3 1 0.261217 0.032954 0.499032
38 1 0.378896 0.958852 0.503352
5 1 0.520315 0.932618 0.501569
60 1 0.69495 0.00765787 0.502041
19 1 0.818442 0.972171 0.50263
13 1 0.970637 0.972432 0.497667
ITEM: TIMESTEP
1750
ITEM: NUMBER OF ATOMS
60
ITEM: BOX BOUNDS pp pp pp
-4.8076662635016572e+00 4.8076662635016572e+00
-4.8174591490638274e+00 4.8174591490638274e+00
-1.0000000000000001e-01 1.0000000000000001e-01
ITEM: ATOMS id type xs ys zs
28 1 0.0900535 0.0406416 0.502989
45 1 0.982977 0.0998375 0.499866
44 1 0.346741 0.126735 0.498839
70 1 0.37645 0.0526351 0.502246
52 1 0.462642 0.0592699 0.498447
15 1 0.595868 0.0699646 0.500552
61 1 0.893569 0.055572 0.499972
26 1 0.0732634 0.163912 0.501492
21 1 0.243235 0.153274 0.500569
76 1 0.416454 0.118434 0.498173
48 1 0.355257 0.219309 0.501398
14 1 0.47989 0.201777 0.499922
17 1 0.741958 0.119009 0.498516
40 1 0.882255 0.140843 0.502764
11 1 0.244817 0.289349 0.501016
62 1 0.356134 0.289882 0.497218
57 1 0.434541 0.311207 0.49865
30 1 0.550687 0.314891 0.500137
29 1 0.628446 0.20743 0.49757
43 1 0.721048 0.258035 0.50036
55 1 0.809465 0.222508 0.496694
33 1 0.803632 0.331107 0.501375
6 1 0.0983294 0.311107 0.501525
46 1 0.18274 0.401444 0.504495
4 1 0.331916 0.414061 0.501505
8 1 0.477237 0.432914 0.498894
20 1 0.657552 0.399286 0.495913
35 1 0.0850501 0.455734 0.501365
1 1 0.236813 0.520797 0.50082
22 1 0.366967 0.558431 0.502032
10 1 0.597243 0.553836 0.499949
75 1 0.692362 0.49365 0.500417
27 1 0.78262 0.461358 0.503643
53 1 0.88909 0.514216 0.500114
58 1 0.977485 0.545329 0.498446
47 1 0.123013 0.567057 0.502477
34 1 0.267061 0.645132 0.497657
51 1 0.3694 0.674341 0.50075
59 1 0.472221 0.554097 0.493517
50 1 0.818002 0.570546 0.500035
63 1 0.926546 0.606588 0.502785
32 1 0.00289576 0.655595 0.503507
12 1 0.13686 0.692608 0.502825
36 1 0.184724 0.816349 0.499733
31 1 0.306149 0.76488 0.5035
65 1 0.415826 0.737709 0.500603
16 1 0.493096 0.660524 0.505852
7 1 0.857298 0.684128 0.500116
77 1 0.957283 0.744713 0.500254
2 1 0.0414992 0.819072 0.494778
37 1 0.159062 0.940945 0.497874
23 1 0.404701 0.836983 0.501578
9 1 0.891081 0.831799 0.502356
66 1 0.0713831 0.939478 0.506194
3 1 0.261184 0.0332809 0.4979
38 1 0.378288 0.958339 0.503526
5 1 0.519582 0.93248 0.502148
60 1 0.69379 0.00788941 0.503818
19 1 0.817234 0.971954 0.503781
13 1 0.970665 0.972895 0.498855
ITEM: TIMESTEP
2000
ITEM: NUMBER OF ATOMS
60
ITEM: BOX BOUNDS pp pp pp
-4.8064626811778455e+00 4.8064626811778455e+00
-4.8210270737583816e+00 4.8210270737583816e+00
-1.0000000000000001e-01 1.0000000000000001e-01
ITEM: ATOMS id type xs ys zs
28 1 0.090223 0.0410902 0.501941
45 1 0.98351 0.09929 0.501481
44 1 0.346467 0.126593 0.499259
70 1 0.376944 0.0522694 0.502308
52 1 0.463304 0.0594002 0.497382
15 1 0.596458 0.0700351 0.499855
61 1 0.894203 0.0561261 0.501058
26 1 0.0728646 0.164552 0.501433
21 1 0.242489 0.153862 0.502017
76 1 0.416401 0.118364 0.499477
48 1 0.354589 0.218943 0.501726
14 1 0.479533 0.201995 0.501148
17 1 0.742399 0.119473 0.496699
40 1 0.8828 0.140599 0.501826
11 1 0.244648 0.289956 0.503589
62 1 0.35642 0.289394 0.497321
57 1 0.434689 0.311363 0.497295
30 1 0.550293 0.314433 0.498611
29 1 0.62817 0.20758 0.497456
43 1 0.721745 0.257811 0.499091
55 1 0.810534 0.222338 0.496693
33 1 0.803507 0.330782 0.501147
6 1 0.0992905 0.310655 0.500184
46 1 0.183268 0.402623 0.504738
4 1 0.332227 0.413625 0.500999
8 1 0.47724 0.43323 0.498946
20 1 0.655936 0.401112 0.496183
35 1 0.0846314 0.455151 0.499567
1 1 0.23851 0.520924 0.502121
22 1 0.368159 0.558764 0.502755
10 1 0.598139 0.554948 0.498862
75 1 0.692412 0.494588 0.500355
27 1 0.782281 0.461886 0.505301
53 1 0.889517 0.513146 0.500183
58 1 0.977591 0.545768 0.498499
47 1 0.124091 0.566526 0.500776
34 1 0.26732 0.644706 0.496095
51 1 0.37024 0.674277 0.500797
59 1 0.47289 0.554444 0.492738
50 1 0.817953 0.570022 0.501049
63 1 0.926363 0.606372 0.504083
32 1 0.00206225 0.655991 0.502615
12 1 0.136961 0.692411 0.501894
36 1 0.18515 0.816188 0.499513
31 1 0.306856 0.764584 0.503811
65 1 0.416699 0.737585 0.499632
16 1 0.493394 0.66044 0.505146
7 1 0.857426 0.683834 0.501924
77 1 0.957092 0.74505 0.501407
2 1 0.0416782 0.819426 0.49499
37 1 0.159335 0.941105 0.495746
23 1 0.405901 0.836815 0.501385
9 1 0.89124 0.831759 0.500486
66 1 0.0715679 0.940047 0.505324
3 1 0.260681 0.0337921 0.498214
38 1 0.37596 0.957522 0.501568
5 1 0.517973 0.933544 0.502256
60 1 0.694415 0.0086991 0.503487
19 1 0.81783 0.972275 0.504806
13 1 0.97036 0.972766 0.49979
ITEM: TIMESTEP
2250
ITEM: NUMBER OF ATOMS
60
ITEM: BOX BOUNDS pp pp pp
-4.8052590988540338e+00 4.8052590988540338e+00
-4.8169125803632742e+00 4.8169125803632742e+00
-1.0000000000000001e-01 1.0000000000000001e-01
ITEM: ATOMS id type xs ys zs
28 1 0.0898445 0.0410355 0.502211
45 1 0.983888 0.0988477 0.499962
44 1 0.346741 0.126516 0.499631
70 1 0.376063 0.0518834 0.503997
52 1 0.462372 0.0586924 0.496068
15 1 0.596276 0.0704937 0.499694
61 1 0.894633 0.0561622 0.499661
26 1 0.0736697 0.164737 0.502216
21 1 0.242584 0.153516 0.501226
76 1 0.416761 0.118493 0.497312
48 1 0.354603 0.219015 0.50188
14 1 0.479307 0.202553 0.498615
17 1 0.742241 0.120022 0.496791
40 1 0.882599 0.14106 0.502119
11 1 0.245181 0.289965 0.503829
62 1 0.35597 0.289966 0.497558
57 1 0.43468 0.312021 0.499084
30 1 0.550604 0.314824 0.500322
29 1 0.627868 0.208018 0.49721
43 1 0.721396 0.258167 0.499729
55 1 0.810597 0.222888 0.497094
33 1 0.802988 0.331047 0.502254
6 1 0.0980176 0.311286 0.499077
46 1 0.182594 0.402103 0.503603
4 1 0.332097 0.413542 0.499468
8 1 0.476793 0.433761 0.498911
20 1 0.655183 0.401129 0.495742
35 1 0.0843401 0.456014 0.49996
1 1 0.237799 0.521167 0.502599
22 1 0.36762 0.558096 0.503031
10 1 0.597856 0.556831 0.497742
75 1 0.690972 0.494715 0.500307
27 1 0.781252 0.462067 0.507239
53 1 0.88892 0.512368 0.499404
58 1 0.977362 0.545146 0.498895
47 1 0.123428 0.567126 0.500598
34 1 0.267715 0.64471 0.496799
51 1 0.370192 0.674041 0.499453
59 1 0.472791 0.554972 0.495158
50 1 0.818378 0.570191 0.500289
63 1 0.926149 0.606082 0.502368
32 1 0.00201314 0.655828 0.502422
12 1 0.137215 0.692548 0.500798
36 1 0.184771 0.816051 0.497759
31 1 0.306884 0.765215 0.503191
65 1 0.416435 0.737409 0.498332
16 1 0.49397 0.661197 0.502985
7 1 0.858398 0.683347 0.503042
77 1 0.956808 0.745089 0.500672
2 1 0.0412475 0.819947 0.495135
37 1 0.1591 0.940791 0.495156
23 1 0.406424 0.83668 0.49951
9 1 0.889579 0.831518 0.499501
66 1 0.0716073 0.939507 0.506038
3 1 0.260281 0.0339516 0.501217
38 1 0.376286 0.957118 0.503275
5 1 0.517711 0.934405 0.502983
60 1 0.694555 0.00786669 0.502164
19 1 0.818002 0.972827 0.503748
13 1 0.970163 0.971921 0.498258
ITEM: TIMESTEP
2500
ITEM: NUMBER OF ATOMS
60
ITEM: BOX BOUNDS pp pp pp
-4.8040555165302221e+00 4.8040555165302221e+00
-4.8219460633189417e+00 4.8219460633189417e+00
-1.0000000000000001e-01 1.0000000000000001e-01
ITEM: ATOMS id type xs ys zs
28 1 0.090163 0.0402821 0.500284
45 1 0.983126 0.0991337 0.499559
44 1 0.346358 0.126366 0.499735
70 1 0.375735 0.0514855 0.504019
52 1 0.461973 0.0581586 0.496966
15 1 0.595283 0.0707005 0.500103
61 1 0.893883 0.0562667 0.498071
26 1 0.0734141 0.164011 0.503837
21 1 0.243089 0.154562 0.500333
76 1 0.415973 0.117517 0.497001
48 1 0.354398 0.219046 0.50241
14 1 0.478581 0.201811 0.499136
17 1 0.741401 0.120214 0.497243
40 1 0.88209 0.140646 0.501708
11 1 0.244806 0.290767 0.502811
62 1 0.356059 0.28962 0.49933
57 1 0.434382 0.311881 0.496619
30 1 0.550149 0.314904 0.501675
29 1 0.627225 0.207798 0.49844
43 1 0.721518 0.258008 0.499686
55 1 0.810143 0.222526 0.495687
33 1 0.803433 0.331037 0.501432
6 1 0.0981405 0.310649 0.499093
46 1 0.182189 0.402392 0.503415
4 1 0.33281 0.413827 0.501112
8 1 0.477241 0.433328 0.499237
20 1 0.65599 0.401048 0.494671
35 1 0.0840422 0.455807 0.501816
1 1 0.238258 0.520404 0.500546
22 1 0.368588 0.558067 0.503982
10 1 0.598655 0.556671 0.498027
75 1 0.692272 0.494336 0.500019
27 1 0.782119 0.461468 0.507256
53 1 0.890304 0.511833 0.499777
58 1 0.978123 0.545229 0.497968
47 1 0.123781 0.566516 0.500033
34 1 0.267392 0.643925 0.497292
51 1 0.369403 0.673575 0.499949
59 1 0.47363 0.554694 0.493848
50 1 0.819765 0.569156 0.502315
63 1 0.926603 0.606027 0.502051
32 1 0.00213511 0.655472 0.503448
12 1 0.137325 0.691459 0.499789
36 1 0.184494 0.814694 0.499539
31 1 0.306396 0.764167 0.502378
65 1 0.415552 0.73758 0.500549
16 1 0.49285 0.660733 0.504383
7 1 0.857475 0.683109 0.501896
77 1 0.95676 0.744179 0.500713
2 1 0.0413005 0.818567 0.495038
37 1 0.159621 0.940127 0.492533
23 1 0.406142 0.836428 0.499939
9 1 0.890814 0.831437 0.500719
66 1 0.0712328 0.939173 0.506559
3 1 0.260054 0.0338834 0.499013
38 1 0.376053 0.956907 0.505137
5 1 0.517523 0.934445 0.504159
60 1 0.693827 0.00862503 0.50267
19 1 0.817677 0.972343 0.503344
13 1 0.970321 0.972841 0.497996
ITEM: TIMESTEP
2750
ITEM: NUMBER OF ATOMS
60
ITEM: BOX BOUNDS pp pp pp
-4.8028519342064104e+00 4.8028519342064104e+00
-4.8210086867711146e+00 4.8210086867711146e+00
-1.0000000000000001e-01 1.0000000000000001e-01
ITEM: ATOMS id type xs ys zs
28 1 0.0896951 0.0402417 0.50281
45 1 0.982999 0.0990051 0.500137
44 1 0.347091 0.126453 0.500071
70 1 0.376072 0.0517971 0.502719
52 1 0.46221 0.057062 0.496829
15 1 0.595354 0.0700657 0.499576
61 1 0.89316 0.056304 0.497438
26 1 0.0729394 0.16394 0.502457
21 1 0.243488 0.154202 0.4995
76 1 0.416893 0.117089 0.497357
48 1 0.354744 0.219152 0.502832
14 1 0.479142 0.202288 0.498263
17 1 0.741458 0.119873 0.498512
40 1 0.88182 0.140921 0.501375
11 1 0.245428 0.290295 0.503815
62 1 0.356292 0.289724 0.498421
57 1 0.434741 0.311414 0.494954
30 1 0.5511 0.314776 0.499156
29 1 0.627867 0.207231 0.498245
43 1 0.719952 0.258383 0.498259
55 1 0.809013 0.223253 0.497166
33 1 0.802142 0.331322 0.500932
6 1 0.0991375 0.309679 0.498552
46 1 0.182529 0.401641 0.504086
4 1 0.33358 0.412964 0.501732
8 1 0.47763 0.432961 0.499395
20 1 0.655941 0.40106 0.494108
35 1 0.0846844 0.4551 0.501216
1 1 0.238255 0.519357 0.501856
22 1 0.368111 0.558031 0.502877
10 1 0.598417 0.557312 0.498414
75 1 0.691783 0.494402 0.500969
27 1 0.782143 0.461618 0.505588
53 1 0.889491 0.51352 0.497885
58 1 0.97799 0.545189 0.49869
47 1 0.124189 0.566121 0.500073
34 1 0.267084 0.643154 0.498166
51 1 0.369158 0.673551 0.498535
59 1 0.47373 0.554447 0.495373
50 1 0.818246 0.569751 0.502455
63 1 0.926175 0.606168 0.50297
32 1 0.00203618 0.655297 0.504075
12 1 0.137283 0.691534 0.499692
36 1 0.18382 0.815585 0.502044
31 1 0.30501 0.764192 0.503498
65 1 0.41488 0.737512 0.501287
16 1 0.493183 0.661262 0.504487
7 1 0.856567 0.683385 0.505531
77 1 0.956172 0.744053 0.499093
2 1 0.0407708 0.818346 0.494453
37 1 0.159154 0.940648 0.491911
23 1 0.403851 0.83677 0.500604
9 1 0.890064 0.831235 0.501059
66 1 0.0710222 0.939149 0.506214
3 1 0.260437 0.0339095 0.499695
38 1 0.375309 0.957247 0.503575
5 1 0.516279 0.934128 0.504294
60 1 0.693594 0.00826445 0.5037
19 1 0.817321 0.97223 0.503951
13 1 0.969391 0.972776 0.49752
ITEM: TIMESTEP
3000
ITEM: NUMBER OF ATOMS
60
ITEM: BOX BOUNDS pp pp pp
-4.8016483518825996e+00 4.8016483518825996e+00
-4.8216165312963000e+00 4.8216165312963000e+00
-1.0000000000000001e-01 1.0000000000000001e-01
ITEM: ATOMS id type xs ys zs
28 1 0.0894758 0.0397751 0.503454
45 1 0.982199 0.0987329 0.498935
44 1 0.346756 0.12641 0.500259
70 1 0.375072 0.0514165 0.504464
52 1 0.461233 0.0577833 0.497066
15 1 0.595136 0.0693406 0.498153
61 1 0.894099 0.0562576 0.497342
26 1 0.0729129 0.163023 0.50131
21 1 0.243788 0.153963 0.500463
76 1 0.416434 0.117472 0.496979
48 1 0.35436 0.218857 0.500668
14 1 0.478413 0.20262 0.498447
17 1 0.741563 0.118989 0.496897
40 1 0.881752 0.140474 0.502806
11 1 0.244986 0.290176 0.504735
62 1 0.356402 0.289722 0.498407
57 1 0.434699 0.312192 0.494841
30 1 0.550872 0.313928 0.497627
29 1 0.627622 0.206481 0.496312
43 1 0.720997 0.257598 0.498267
55 1 0.809395 0.222337 0.495858
33 1 0.802833 0.330935 0.503367
6 1 0.097976 0.309614 0.500564
46 1 0.18152 0.401523 0.505337
4 1 0.333505 0.414029 0.503207
8 1 0.478548 0.433194 0.499182
20 1 0.655479 0.401885 0.49433
35 1 0.0832042 0.454495 0.501154
1 1 0.237905 0.520025 0.501316
22 1 0.367549 0.558702 0.502984
10 1 0.59818 0.556302 0.495281
75 1 0.692073 0.495328 0.500756
27 1 0.782076 0.461524 0.507264
53 1 0.88873 0.514568 0.499427
58 1 0.977718 0.545495 0.496466
47 1 0.122691 0.565365 0.499931
34 1 0.26657 0.644344 0.49742
51 1 0.368383 0.673786 0.497251
59 1 0.472359 0.553806 0.495676
50 1 0.816797 0.569845 0.503106
63 1 0.92538 0.605588 0.505742
32 1 0.000945315 0.655793 0.503701
12 1 0.13626 0.691009 0.50077
36 1 0.1832 0.814836 0.502989
31 1 0.30511 0.764986 0.502674
65 1 0.414142 0.737323 0.500288
16 1 0.491845 0.660515 0.504166
7 1 0.85625 0.683161 0.505441
77 1 0.955271 0.744628 0.499666
2 1 0.0411258 0.817153 0.491986
37 1 0.159098 0.94015 0.491076
23 1 0.404651 0.83659 0.498257
9 1 0.889216 0.831346 0.501271
66 1 0.0709814 0.93902 0.50448
3 1 0.259302 0.0339802 0.498978
38 1 0.374738 0.956527 0.504136
5 1 0.516162 0.933646 0.502548
60 1 0.69359 0.00756044 0.502729
19 1 0.817726 0.972761 0.504492
13 1 0.969708 0.971978 0.497705
ITEM: TIMESTEP
3250
ITEM: NUMBER OF ATOMS
60
ITEM: BOX BOUNDS pp pp pp
-4.8004447695587880e+00 4.8004447695587880e+00
-4.8223542991693673e+00 4.8223542991693673e+00
-1.0000000000000001e-01 1.0000000000000001e-01
ITEM: ATOMS id type xs ys zs
28 1 0.0904884 0.0395735 0.50384
45 1 0.982018 0.0992219 0.499923
44 1 0.345636 0.126268 0.499533
70 1 0.374967 0.0517012 0.504678
52 1 0.461107 0.0592291 0.497679
15 1 0.595025 0.0693171 0.497672
61 1 0.894056 0.0560967 0.499757
26 1 0.073124 0.163292 0.500779
21 1 0.242695 0.155263 0.499715
76 1 0.415688 0.119394 0.49584
48 1 0.353579 0.218414 0.499756
14 1 0.478382 0.203259 0.498106
17 1 0.740717 0.119218 0.497477
40 1 0.880876 0.140503 0.503469
11 1 0.245358 0.290945 0.505908
62 1 0.356854 0.289073 0.498849
57 1 0.434879 0.312689 0.495145
30 1 0.550502 0.31497 0.498419
29 1 0.626732 0.207363 0.495339
43 1 0.719921 0.257782 0.498937
55 1 0.808848 0.222312 0.495783
33 1 0.801712 0.330792 0.503556
6 1 0.0982733 0.309733 0.500742
46 1 0.181326 0.402087 0.507705
4 1 0.333009 0.414247 0.500664
8 1 0.477811 0.433599 0.499062
20 1 0.655321 0.401875 0.49395
35 1 0.0823157 0.454476 0.500765
1 1 0.237305 0.520225 0.499989
22 1 0.367622 0.558719 0.504451
10 1 0.596951 0.55664 0.494421
75 1 0.691564 0.495537 0.500316
27 1 0.781465 0.461921 0.507708
53 1 0.887955 0.513981 0.500701
58 1 0.976251 0.545509 0.497153
47 1 0.122801 0.565676 0.500449
34 1 0.266648 0.644528 0.500061
51 1 0.36784 0.674493 0.498204
59 1 0.472219 0.553646 0.495048
50 1 0.81699 0.570278 0.503714
63 1 0.924418 0.606167 0.506088
32 1 -2.58364e-06 0.655849 0.503501
12 1 0.135563 0.69064 0.500809
36 1 0.182763 0.814502 0.503634
31 1 0.305093 0.765367 0.502821
65 1 0.414421 0.737598 0.499293
16 1 0.490872 0.660368 0.504527
7 1 0.855922 0.684062 0.504652
77 1 0.955302 0.744887 0.499663
2 1 0.0401507 0.818816 0.49193
37 1 0.159454 0.939434 0.489312
23 1 0.404625 0.836977 0.497383
9 1 0.890015 0.831946 0.500613
66 1 0.0714356 0.938936 0.505928
3 1 0.258931 0.0342419 0.499587
38 1 0.375275 0.957314 0.505344
5 1 0.517529 0.932644 0.504717
60 1 0.693457 0.00759631 0.500943
19 1 0.817495 0.972854 0.506915
13 1 0.970469 0.972527 0.4976
ITEM: TIMESTEP
3500
ITEM: NUMBER OF ATOMS
60
ITEM: BOX BOUNDS pp pp pp
-4.7992411872349763e+00 4.7992411872349763e+00
-4.8190293030441014e+00 4.8190293030441014e+00
-1.0000000000000001e-01 1.0000000000000001e-01
ITEM: ATOMS id type xs ys zs
28 1 0.0907207 0.0396826 0.503907
45 1 0.983099 0.0989407 0.501029
44 1 0.345684 0.126271 0.498484
70 1 0.375025 0.0514561 0.504481
52 1 0.461223 0.0590715 0.496918
15 1 0.595069 0.0697789 0.495615
61 1 0.894605 0.0555737 0.500491
26 1 0.0735361 0.163534 0.501729
21 1 0.242057 0.154414 0.496754
76 1 0.415796 0.118682 0.49577
48 1 0.353376 0.218554 0.499751
14 1 0.478146 0.202737 0.496642
17 1 0.741612 0.119125 0.499229
40 1 0.881788 0.139742 0.504021
11 1 0.244234 0.290554 0.50709
62 1 0.355528 0.28954 0.499213
57 1 0.434127 0.312397 0.496256
30 1 0.550221 0.315125 0.497989
29 1 0.626723 0.206876 0.494816
43 1 0.720533 0.256431 0.497522
55 1 0.809515 0.221283 0.496956
33 1 0.801488 0.329341 0.502742
6 1 0.0982607 0.310493 0.501124
46 1 0.181246 0.402302 0.506406
4 1 0.332257 0.414093 0.501384
8 1 0.477282 0.433284 0.499468
20 1 0.655436 0.401322 0.494421
35 1 0.0825298 0.45492 0.50071
1 1 0.237323 0.519996 0.499523
22 1 0.367619 0.558255 0.502755
10 1 0.597979 0.55647 0.497116
75 1 0.691906 0.494429 0.501302
27 1 0.78167 0.460835 0.50627
53 1 0.887677 0.514972 0.500834
58 1 0.976389 0.545082 0.494187
47 1 0.122738 0.566034 0.499963
34 1 0.266708 0.643913 0.500015
51 1 0.368483 0.673894 0.497227
59 1 0.472432 0.553915 0.493288
50 1 0.815682 0.570083 0.501049
63 1 0.925866 0.60653 0.507215
32 1 0.00178294 0.655664 0.50374
12 1 0.136303 0.691288 0.503854
36 1 0.183087 0.814696 0.50419
31 1 0.304988 0.76479 0.504346
65 1 0.415226 0.737527 0.500421
16 1 0.491679 0.659789 0.503204
7 1 0.856284 0.683359 0.503691
77 1 0.956232 0.744417 0.499571
2 1 0.0405028 0.819053 0.492691
37 1 0.15907 0.939351 0.489256
23 1 0.404627 0.836953 0.497573
9 1 0.890211 0.831481 0.501296
66 1 0.0714789 0.938718 0.505429
3 1 0.259056 0.0338712 0.497902
38 1 0.375178 0.956844 0.50505
5 1 0.516862 0.932547 0.504687
60 1 0.693758 0.00765511 0.500829
19 1 0.817327 0.972376 0.506345
13 1 0.97064 0.972198 0.497758
ITEM: TIMESTEP
3750
ITEM: NUMBER OF ATOMS
60
ITEM: BOX BOUNDS pp pp pp
-4.7980376049111646e+00 4.7980376049111646e+00
-4.8168096426310463e+00 4.8168096426310463e+00
-1.0000000000000001e-01 1.0000000000000001e-01
ITEM: ATOMS id type xs ys zs
28 1 0.0903044 0.0400851 0.504047
45 1 0.983273 0.0985936 0.499127
44 1 0.345646 0.12622 0.499603
70 1 0.37533 0.0515993 0.505765
52 1 0.461618 0.0589439 0.495728
15 1 0.595408 0.0698329 0.496401
61 1 0.894352 0.0568296 0.502192
26 1 0.0737458 0.163699 0.499786
21 1 0.241788 0.154671 0.495989
76 1 0.415492 0.11789 0.494848
48 1 0.353057 0.218882 0.499391
14 1 0.477831 0.202687 0.497787
17 1 0.741534 0.118346 0.499505
40 1 0.882377 0.140951 0.504094
11 1 0.243716 0.290232 0.507975
62 1 0.355423 0.289497 0.500695
57 1 0.433528 0.311971 0.496746
30 1 0.549953 0.314979 0.5008
29 1 0.626593 0.207015 0.494446
43 1 0.719905 0.25708 0.497753
55 1 0.809405 0.222287 0.497092
33 1 0.803129 0.330066 0.505998
6 1 0.0968882 0.310463 0.50043
46 1 0.180989 0.401596 0.507378
4 1 0.332284 0.413454 0.503336
8 1 0.47672 0.433412 0.499241
20 1 0.654464 0.402577 0.493488
35 1 0.0833709 0.455897 0.500717
1 1 0.237406 0.519446 0.499336
22 1 0.367634 0.556855 0.501411
10 1 0.598391 0.556093 0.498892
75 1 0.692835 0.495391 0.502171
27 1 0.782543 0.460902 0.504746
53 1 0.888133 0.515254 0.500827
58 1 0.977588 0.543908 0.493984
47 1 0.123423 0.566727 0.502934
34 1 0.26693 0.643137 0.500395
51 1 0.368849 0.672808 0.49712
59 1 0.473113 0.554205 0.493144
50 1 0.815395 0.570035 0.501058
63 1 0.92571 0.60489 0.506097
32 1 0.00139487 0.654427 0.503938
12 1 0.136005 0.692167 0.503381
36 1 0.184044 0.815435 0.504194
31 1 0.305665 0.764235 0.504483
65 1 0.413932 0.737275 0.498838
16 1 0.49225 0.660711 0.502806
7 1 0.857372 0.683204 0.502648
77 1 0.95638 0.743598 0.499181
2 1 0.0401055 0.819457 0.491795
37 1 0.158742 0.939813 0.489298
23 1 0.404642 0.83654 0.497997
9 1 0.890049 0.830862 0.502528
66 1 0.0710559 0.939265 0.505551
3 1 0.259125 0.0342257 0.498318
38 1 0.374613 0.957158 0.505401
5 1 0.515822 0.933133 0.502141
60 1 0.694017 0.00761636 0.499757