LAMMPS (23 Jun 2022 - Update 4)
  using 1 OpenMP thread(s) per MPI task
# Compute elastic constant tensor for a crystal
#
# Written by Aidan Thompson (Sandia, athomps@sandia.gov)
#
#  This script uses the following three include files.
#
#   init.mod      (must be modified for different crystal structures)
# 	       	  Define units, deformation parameters and initial
#		  configuration of the atoms and simulation cell.
#
#
#   potential.mod    (must be modified for different pair styles)
# 		     Define pair style and other attributes
#		     not stored in restart file
#
#
#   displace.mod    (displace.mod should not need to be modified)
# 		    Perform positive and negative box displacements
# 		    in direction ${dir} and size ${up}.
# 		    It uses the resultant changes
#		    in stress to compute one
# 		    row of the elastic stiffness tensor
#
#		    Inputs variables:
#		    	   dir = the Voigt deformation component
#		    		    (1,2,3,4,5,6)
#		    Global constants:
#       	    	   up = the deformation magnitude (strain units)
#       		   cfac = conversion from LAMMPS pressure units to
#               	   output units for elastic constants
#
#
#  To run this on a different system, it should only be necessary to
#  modify the files init.mod and potential.mod. In order to calculate
#  the elastic constants correctly, care must be taken to specify
#  the correct units in init.mod (units, cfac and cunits). It is also
#  important to verify that the minimization of energy w.r.t atom
#  positions in the deformed cell is fully converged.
#  One indication of this is that the elastic constants are insensitive
#  to the choice of the variable ${up} in init.mod. Another is to check
#  the final max and two-norm forces reported in the log file. If you know
#  that minimization is not required, you can set maxiter = 0.0 in
#  init.mod.
#



variable dt equal 0.01
variable strain equal 0.05
variable srate equal 1e-4
variable M equal 1000 # averaging time for properties
variable strainsteps equal ${strain}/${dt}/${srate}
variable strainsteps equal 0.05/${dt}/${srate}
variable strainsteps equal 0.05/0.01/${srate}
variable strainsteps equal 0.05/0.01/0.0001


dimension 2
include init.mod
# NOTE: This script can be modified for different atomic structures,
# units, etc. See in.elastic for more info.
#

# Define the finite deformation size. Try several values of this
# variable to verify that results do not depend on it.
variable up equal 1.0e-1

# Define the amount of random jiggle for atoms
# This prevents atoms from staying on saddle points
variable atomjiggle equal 1.0e-6

# Uncomment one of these blocks, depending on what units
# you are using in LAMMPS and for output

# metal units, elastic constants in eV/A^3
#units		metal
#variable cfac equal 6.2414e-7
#variable cunits string eV/A^3

# Choose potential
# metal units, elastic constants in GPa
units		metal
atom_style	full
#pair_style      lj/cut 1.0
#pair_style      yukawa 1.0 2.0
#pair_modify     mix arithmetic
bond_style      harmonic
angle_style     harmonic
dihedral_style  zero
special_bonds   amber
variable cfac equal 1.0e-4
variable cunits string GPa
boundary	p p p

# Need to set mass to something, just to satisfy LAMMPS
#mass 1 1.0e-20
read_data network.lmp
Reading data file ...
  orthogonal box = (-4.81433 -4.81433 -0.1) to (4.81433 4.81433 0.1)
  1 by 1 by 1 MPI processor grid
WARNING: Atom style in data file differs from currently defined atom style (src/read_data.cpp:538)
  reading atoms ...
  60 atoms
WARNING: Bond style in data file differs from currently defined bond style (src/read_data.cpp:630)
  scanning bonds ...
  5 = max bonds/atom
  reading bonds ...
  134 bonds
Finding 1-2 1-3 1-4 neighbors ...
  special bond factors lj:    0        0        0.5     
  special bond factors coul:  0        0        0.8333333333333334
    10 = max # of 1-2 neighbors
    44 = max # of 1-3 neighbors
   266 = max # of 1-4 neighbors
    29 = max # of special neighbors
  special bonds CPU = 0.000 seconds
  read_data CPU = 0.003 seconds

# real units, elastic constants in GPa
#units		real
#variable cfac equal 1.01325e-4
#variable cunits string GPa

# Define minimization parameters
variable etol equal 0.0
variable ftol equal 5.0e-10
variable maxiter equal 100000
variable maxeval equal 20000
variable dmax equal 1.0e-2


include potential.mod
# NOTE: This script can be modified for different pair styles
# See in.elastic for more info.

# Setup neighbor style
neighbor 3.0 nsq
neigh_modify once no every 1 delay 0 check yes
comm_modify cutoff 2.0

# Setup minimization style
min_style	     cg
min_modify	     dmax ${dmax} line quadratic
min_modify	     dmax 0.01 line quadratic

timestep	0.001


# Setup output
thermo		500
thermo_style custom step temp pe ebond eangle edihed press pxx pyy pzz pxy pxz pyz lx ly lz vol
thermo_modify norm no


#change_box all triclinic
comm_modify mode single cutoff 10.0 vel yes
atom_modify sort 0 0



# Compute initial state

#dump rela all atom 1 traj_relax.lmpstrj
fix 3 all box/relax x 0 y 0 # xy 0  #MS comment: relax if the network is periodic
minimize ${etol} ${ftol} ${maxiter} ${maxeval}
minimize 0 ${ftol} ${maxiter} ${maxeval}
minimize 0 5e-10 ${maxiter} ${maxeval}
minimize 0 5e-10 100000 ${maxeval}
minimize 0 5e-10 100000 20000
Neighbor list info ...
  update every 1 steps, delay 0 steps, check yes
  max neighbors/atom: 2000, page size: 100000
  master list distance cutoff = 0
  ghost atom cutoff = 10
  0 neighbor lists, perpetual/occasional/extra = 0 0 0
WARNING: Inconsistent image flags (src/domain.cpp:819)
Per MPI rank memory allocation (min/avg/max) = 8.779 | 8.779 | 8.779 Mbytes
   Step          Temp          PotEng         E_bond        E_angle        E_dihed         Press           Pxx            Pyy            Pzz            Pxy            Pxz            Pyz             Lx             Ly             Lz           Volume    
         0   0              2.7066633e-11  2.7066633e-11  0              0             -0.11859693    -0.15476562    -0.082428246    0             -0.064152805    0              0              9.62866        9.62866        0.2            92.711093    
       366   0              3.0746623e-19  3.0746623e-19  0              0             -1.077258e-06  -8.1992351e-07 -1.3345924e-06  0              2.2501856e-05  0              0              9.6286586      9.6286605      0.2            92.711085    
Loop time of 0.0186703 on 1 procs for 366 steps with 60 atoms

100.0% CPU use with 1 MPI tasks x 1 OpenMP threads

Minimization stats:
  Stopping criterion = force tolerance
  Energy initial, next-to-last, final = 
    2.70666334868414e-11 3.28441146951958e-19 3.07466230205847e-19
  Force two-norm initial, final = 2.1223411e-05 4.5599403e-10
  Force max component initial, final = 8.9556237e-06 1.1785885e-10
  Final line search alpha, max atom move = 1 1.1785885e-10
  Iterations, force evaluations = 366 732

MPI task timing breakdown:
Section |  min time  |  avg time  |  max time  |%varavg| %total
---------------------------------------------------------------
Pair    | 0          | 0          | 0          |   0.0 |  0.00
Bond    | 0.002691   | 0.002691   | 0.002691   |   0.0 | 14.41
Neigh   | 0          | 0          | 0          |   0.0 |  0.00
Comm    | 0.0056674  | 0.0056674  | 0.0056674  |   0.0 | 30.36
Output  | 0          | 0          | 0          |   0.0 |  0.00
Modify  | 0          | 0          | 0          |   0.0 |  0.00
Other   |            | 0.01031    |            |       | 55.23

Nlocal:             60 ave          60 max          60 min
Histogram: 1 0 0 0 0 0 0 0 0 0
Nghost:            505 ave         505 max         505 min
Histogram: 1 0 0 0 0 0 0 0 0 0
Neighs:              0 ave           0 max           0 min
Histogram: 1 0 0 0 0 0 0 0 0 0

Total # of neighbors = 0
Ave neighs/atom = 0
Ave special neighs/atom = 23.033333
Neighbor list builds = 0
Dangerous builds = 0
#dump rela all atom 1 traj_relax.lmpstrj
thermo 100
unfix 3

fix 2d all enforce2d



#dump dump0 all xyz 1000000 cfg0.xyz
#dump_modify dump0 format line "%d %20.10g %20.10g %20.10g"
#minimize ${etol} ${ftol} ${maxiter} ${maxeval}

#undump rela

#write_restart restart.equil

# These formulas define the derivatives w.r.t. strain components
# Constants uses $, variables use v_


timestep        ${dt}
timestep        0.01
variable nsteps equal round(${strainsteps})
variable nsteps equal round(50000)

fix             4 all nve
fix             5 all langevin 0.1 0.1 1 904297
#fix		6 all press/berendsen y  0.0 0.0 1 x 0.0 0.0 10
fix             6 all nph y 0.0 0.0 10 ptemp 0.1 # x 0.0 0.0 10

# For PLUMED2
# fix 22 all plumed plumedfile plumed.dat outfile plumed.out

#fix             6 all nph x 0.0 0.0 10
fix     	9 all deform 1 x erate -${srate} units box remap x
fix     	9 all deform 1 x erate -0.0001 units box remap x

#fix     8 all deform 1 xy erate ${srate} units box remap x



#fix    10 all ave/time

dump 1 all atom 250 deform_dump.lammpstrj


#To avoid flying ice cube phenomenon:
#fix 21 all momentum 100 linear 1 1 1 angular


run  ${nsteps}
run  50000
WARNING: One or more atoms are time integrated more than once (src/modify.cpp:292)
WARNING: Inconsistent image flags (src/domain.cpp:819)
Per MPI rank memory allocation (min/avg/max) = 7.654 | 7.654 | 7.654 Mbytes
   Step          Temp          PotEng         E_bond        E_angle        E_dihed         Press           Pxx            Pyy            Pzz            Pxy            Pxz            Pyz             Lx             Ly             Lz           Volume    
       366   0              3.0746623e-19  3.0746623e-19  0              0             -1.077258e-06  -8.1992351e-07 -1.3345924e-06  0              2.2501856e-05  0              0              9.6286586      9.6286605      0.2            92.711085    
       400   0.1060211      0.00026752527  0.00026752527  0              0              44.01602       101.7694      -13.89077       0             -104.82947      0              0              9.6283312      9.6316892      0.2            92.737093    
       500   0.14897148     0.00089519682  0.00089519682  0              0             -103.32869     -211.57845      4.7386478      0              58.657882      0              0              9.6273684      9.6278074      0.2            92.690448    
       600   0.1831589      0.00094242104  0.00094242104  0              0              193.49033      355.79843      30.972274      0              58.421263      0              0              9.6264055      9.6232214      0.2            92.637031    
       700   0.152795       0.00082527228  0.00082527228  0              0              335.5021       794.25271     -123.41644      0             -212.59828      0              0              9.6254426      9.6323448      0.2            92.715583    
       800   0.14825457     0.00094367631  0.00094367631  0              0              238.05942      514.11173     -38.16856       0             -230.62302      0              0              9.6244798      9.6356778      0.2            92.738386    
       900   0.21552565     0.00096400536  0.00096400536  0              0              361.58049      639.8837       83.12429       0             -529.44188      0              0              9.6235169      9.6353446      0.2            92.725901    
      1000   0.2000453      0.0010419432   0.0010419432   0              0              787.41484      1496.3027      78.350998      0              48.565598      0              0              9.622554       9.6335612      0.2            92.699464    
      1100   0.17681753     0.0010850374   0.0010850374   0              0              645.27869      1398.7287     -108.31914      0             -283.39042      0              0              9.6215912      9.6276736      0.2            92.633539    
      1200   0.15477627     0.0011536046   0.0011536046   0              0              7.4341996      101.15699     -86.492488      0              349.87705      0              0              9.6206283      9.629096       0.2            92.637953    
      1300   0.18887153     0.0011623731   0.0011623731   0              0              160.97051      78.084486      243.69197      0              339.46981      0              0              9.6196654      9.628527       0.2            92.623209    
      1400   0.27410562     0.00078552483  0.00078552483  0              0              27.147315     -136.06711      190.16698      0              233.04147      0              0              9.6187026      9.6293423      0.2            92.621779    
      1500   0.16993779     0.0011828424   0.0011828424   0              0             -367.53347     -269.63856     -465.61002      0              171.60505      0              0              9.6177397      9.6339343      0.2            92.656672    
      1600   0.23676799     0.0012672735   0.0012672735   0              0             -179.82063     -54.393383     -305.39958      0              584.59043      0              0              9.6167768      9.6265904      0.2            92.576772    
      1700   0.1916037      0.001023068    0.001023068    0              0              96.085379     -130.77496      322.79116      0             -248.972        0              0              9.615814       9.6297548      0.2            92.597931    
      1800   0.17941621     0.0010002649   0.0010002649   0              0             -303.35864     -1184.0365      577.13282      0             -243.02057      0              0              9.6148511      9.6305499      0.2            92.596303    
      1900   0.19670796     0.00091855511  0.00091855511  0              0              221.0807       644.58646     -202.62266      0             -93.5108        0              0              9.6138882      9.6322547      0.2            92.60342     
      2000   0.17946287     0.00088480119  0.00088480119  0              0             -678.42472     -573.8928      -783.10929      0             -425.73139      0              0              9.6129254      9.6420541      0.2            92.688347    
      2100   0.18583379     0.0010502312   0.0010502312   0              0              418.82623      877.26736     -39.790852      0              115.068        0              0              9.6119625      9.6320095      0.2            92.582514    
      2200   0.22139251     0.0010966231   0.0010966231   0              0              303.89945     -355.04016      962.66829      0              28.176699      0              0              9.6109996      9.6285264      0.2            92.539764    
      2300   0.19998026     0.0014850815   0.0014850815   0              0              418.3784       409.75453      426.81695      0             -260.9365       0              0              9.6100368      9.6329305      0.2            92.572816    
      2400   0.25247971     0.00098084142  0.00098084142  0              0             -421.61705      71.189395     -914.63606      0              155.03972      0              0              9.6090739      9.6379547      0.2            92.611819    
      2500   0.21638283     0.00077533785  0.00077533785  0              0             -630.85231     -499.36126     -762.54879      0              50.02403       0              0              9.608111       9.6438921      0.2            92.659586    
      2600   0.22095716     0.0010148739   0.0010148739   0              0              548.36227      406.11377      690.43693      0             -562.36782      0              0              9.6071482      9.634102       0.2            92.556245    
      2700   0.22466099     0.0009403065   0.0009403065   0              0              515.6481       186.77681      844.3579       0             -695.29292      0              0              9.6061853      9.6322219      0.2            92.528908    
      2800   0.22475779     0.00087665876  0.00087665876  0              0              169.57377      803.8226      -464.83995      0             -312.62038      0              0              9.6052224      9.6435175      0.2            92.628131    
      2900   0.22789523     0.0011330124   0.0011330124   0              0              94.775753      1205.8268     -1016.4378      0             -101.38754      0              0              9.6042596      9.6463567      0.2            92.646114    
      3000   0.22279397     0.00097468307  0.00097468307  0              0              436.89533      905.11285     -31.490535      0             -525.83872      0              0              9.6032967      9.6432331      0.2            92.606828    
      3100   0.17634354     0.0011251025   0.0011251025   0              0              1011.5508      992.55991      1030.3594      0              52.080715      0              0              9.6023338      9.6303055      0.2            92.473408    
      3200   0.212709       0.0010535963   0.0010535963   0              0              564.66315      670.27145      458.88139      0              550.25965      0              0              9.601371       9.6423578      0.2            92.579854    
      3300   0.21292432     0.00093760135  0.00093760135  0              0              82.35658       884.74101     -720.19032      0             -372.45202      0              0              9.6004081      9.6482395      0.2            92.627036    
      3400   0.21911552     0.001082019    0.001082019    0              0              263.89277      1240.9767     -713.36786      0              121.6352       0              0              9.5994452      9.6461121      0.2            92.597325    
      3500   0.20373198     0.00095236239  0.00095236239  0              0              1196.7329      1766.8293      626.4597       0             -87.698192      0              0              9.5984824      9.6380586      0.2            92.510736    
      3600   0.20750434     0.0010624912   0.0010624912   0              0              913.06628      930.35967      895.57139      0              517.6845       0              0              9.5975195      9.6348202      0.2            92.470375    
      3700   0.23053833     0.00091896605  0.00091896605  0              0             -526.77356     -602.05559     -451.65681      0              501.70144      0              0              9.5965566      9.6411579      0.2            92.521918    
      3800   0.18962566     0.00093628948  0.00093628948  0              0             -294.61805      191.6279      -781.033        0              70.871658      0              0              9.5955938      9.6487758      0.2            92.585733    
      3900   0.23844936     0.0010272394   0.0010272394   0              0              468.29192      612.58474      323.79317      0              504.1964       0              0              9.5946309      9.6402894      0.2            92.495019    
      4000   0.20658433     0.0010856087   0.0010856087   0              0              622.60711      513.58546      731.41027      0              111.94462      0              0              9.593668       9.6346175      0.2            92.431322    
      4100   0.16301022     0.0011433619   0.0011433619   0              0             -166.40875     -104.18141     -228.78667      0              457.50999      0              0              9.5927052      9.6461282      0.2            92.532464    
      4200   0.19214939     0.0012060475   0.0012060475   0              0             -27.295185      684.36115     -739.11303      0             -1095.9176      0              0              9.5917423      9.64639        0.2            92.525687    
      4300   0.22665555     0.0009125201   0.0009125201   0              0              922.02959      1745.1138      98.768572      0              38.772727      0              0              9.5907794      9.6363484      0.2            92.420093    
      4400   0.23254314     0.0010486613   0.0010486613   0              0              1089.7311      1521.9342      657.32839      0              235.38222      0              0              9.5898166      9.6329941      0.2            92.378647    
      4500   0.1772093      0.0010941395   0.0010941395   0              0              320.44581      612.88835      27.818563      0             -272.49321      0              0              9.5888537      9.634952       0.2            92.388146    
      4600   0.20974694     0.00092711758  0.00092711758  0              0              333.24954      1268.9311     -602.62792      0             -20.390737      0              0              9.5878909      9.6436912      0.2            92.462659    
      4700   0.19082805     0.001099952    0.001099952    0              0              55.153927      283.28131     -173.16187      0             -37.85068       0              0              9.586928       9.6358099      0.2            92.377816    
      4800   0.23739726     0.0012974442   0.0012974442   0              0              961.05807      1463.9919      457.96415      0             -241.41939      0              0              9.5859651      9.6306708      0.2            92.319275    
      4900   0.22968006     0.0011783829   0.0011783829   0              0              252.86756      222.82584      282.74265      0             -145.64941      0              0              9.5850023      9.637087       0.2            92.3715      
      5000   0.22831668     0.0011872034   0.0011872034   0              0             -104.42566      195.97853     -404.99445      0              223.18251      0              0              9.5840394      9.6411253      0.2            92.400924    
      5100   0.20683852     0.0010205399   0.0010205399   0              0              516.66108      1271.217      -238.06049      0             -121.77628      0              0              9.5830765      9.6326435      0.2            92.310359    
      5200   0.20701287     0.00088396484  0.00088396484  0              0              64.04313      -401.55614      529.45151      0              323.63016      0              0              9.5821137      9.6370364      0.2            92.343178    
      5300   0.19502354     0.0010904363   0.0010904363   0              0              878.12304      1293.9726      462.12477      0              573.82962      0              0              9.5811508      9.6324998      0.2            92.290433    
      5400   0.18073117     0.00099546474  0.00099546474  0              0              314.44039      1241.8591     -613.17662      0             -109.08844      0              0              9.5801879      9.6374285      0.2            92.328376    
      5500   0.23774899     0.00094248397  0.00094248397  0              0             -389.7264      -153.41672     -626.17813      0             -233.83406      0              0              9.5792251      9.6424926      0.2            92.367606    
      5600   0.17793949     0.0010622233   0.0010622233   0              0              1049.845       1569.9712      529.54075      0             -81.163271      0              0              9.5782622      9.6351321      0.2            92.287821    
      5700   0.21792953     0.00096496632  0.00096496632  0              0              753.49928      706.62268      800.22185      0              480.95199      0              0              9.5772993      9.6299052      0.2            92.228485    
      5800   0.20986838     0.0012342383   0.0012342383   0              0             -133.95294      72.435912     -340.49784      0              284.36356      0              0              9.5763365      9.6334054      0.2            92.252732    
      5900   0.20114924     0.0011586018   0.0011586018   0              0             -437.98217     -54.986362     -821.17417      0              650.61418      0              0              9.5753736      9.6367984      0.2            92.275945    
      6000   0.16042705     0.0010929056   0.0010929056   0              0              441.80907      715.45864      167.96429      0              430.67704      0              0              9.5744107      9.6322279      0.2            92.222906    
      6100   0.2438194      0.00086297329  0.00086297329  0              0              865.8097       830.67315      900.78376      0             -82.069625      0              0              9.5734479      9.6290648      0.2            92.18335     
      6200   0.20742565     0.0010984779   0.0010984779   0              0              391.61207      844.78265     -61.76729       0             -28.675178      0              0              9.572485       9.6363661      0.2            92.24397     
      6300   0.19068877     0.00096025884  0.00096025884  0              0              45.889546      1029.9361     -938.28478      0             -154.37226      0              0              9.5715221      9.6316079      0.2            92.189148    
      6400   0.2115268      0.0010381194   0.0010381194   0              0              688.77919      1355.9944      21.352156      0              4.2740154      0              0              9.5705593      9.6309073      0.2            92.173169    
      6500   0.18602444     0.0011174097   0.0011174097   0              0              1612.6949      2172.5627      1052.637       0              565.85481      0              0              9.5695964      9.62675        0.2            92.124112    
      6600   0.21560597     0.0010252152   0.0010252152   0              0              932.90681      1790.5459      75.100338      0             -254.76332      0              0              9.5686335      9.6332523      0.2            92.177061    
      6700   0.27957394     0.0011508681   0.0011508681   0              0             -314.54383      429.4672      -1058.7331      0              190.72149      0              0              9.5676707      9.6466604      0.2            92.29607     
      6800   0.24016811     0.0010857194   0.0010857194   0              0              392.03102      1005.3044     -221.41873      0             -79.646765      0              0              9.5667078      9.6414949      0.2            92.237364    
      6900   0.21058631     0.0013678134   0.0013678134   0              0              1159.0093      1356.8125      961.02383      0              534.02358      0              0              9.5657449      9.6311438      0.2            92.129065    
      7000   0.19386998     0.0011055389   0.0011055389   0              0              666.16905      1003.558       328.57003      0             -189.68657      0              0              9.5647821      9.6318158      0.2            92.126219    
      7100   0.1946527      0.0010590753   0.0010590753   0              0              264.88807      1320.4652     -790.89813      0             -14.873644      0              0              9.5638192      9.6410784      0.2            92.205531    
      7200   0.20685213     0.0010649406   0.0010649406   0              0              78.93193       637.68842     -479.98108      0              369.00443      0              0              9.5628563      9.6377238      0.2            92.164168    
      7300   0.20684087     0.001028474    0.001028474    0              0              1007.4919      1427.3792      587.42299      0              174.96636      0              0              9.5618935      9.6278059      0.2            92.060054    
      7400   0.20987062     0.0013518752   0.0013518752   0              0              1421.4468      2254.0057      588.73284      0              167.01411      0              0              9.5609306      9.6265825      0.2            92.039087    
      7500   0.21256416     0.0012560745   0.0012560745   0              0             -179.19862      95.991459     -454.56238      0              90.364361      0              0              9.5599677      9.6385848      0.2            92.14456     
      7600   0.23876286     0.0011320264   0.0011320264   0              0              148.46887      846.74636     -550.02476      0             -217.15703      0              0              9.5590049      9.6374159      0.2            92.124105    
      7700   0.17801455     0.0011289247   0.0011289247   0              0              534.81532      856.26452      213.21357      0             -358.66238      0              0              9.558042       9.6337293      0.2            92.07959     
      7800   0.18212461     0.0010830933   0.0010830933   0              0              1534.8587      2466.507       603.04399      0              538.09575      0              0              9.5570791      9.6310601      0.2            92.044803    
      7900   0.22188187     0.001228961    0.001228961    0              0              394.90061      1093.8229     -304.18597      0             -29.071537      0              0              9.5561163      9.6352261      0.2            92.075341    
      8000   0.19114298     0.0012694278   0.0012694278   0              0              512.73625      1484.9614     -459.70148      0              98.679627      0              0              9.5551534      9.6334229      0.2            92.048834    
      8100   0.22058899     0.001327554    0.001327554    0              0              238.95262      265.11233      212.59318      0             -78.377261      0              0              9.5541905      9.641106       0.2            92.112964    
      8200   0.16331941     0.0011365479   0.0011365479   0              0              673.4148       944.3965       402.23343      0              63.194388      0              0              9.5532277      9.6326483      0.2            92.022882    
      8300   0.19949338     0.0010686067   0.0010686067   0              0              682.88617      1482.793      -117.25318      0              627.74811      0              0              9.5522648      9.6430294      0.2            92.112771    
      8400   0.18866149     0.00095732856  0.00095732856  0              0              798.11733      1951.8762     -355.81102      0             -232.68389      0              0              9.5513019      9.6415079      0.2            92.088953    
      8500   0.202955       0.0012973818   0.0012973818   0              0              719.53374      1464.6835     -25.793592      0             -910.2159       0              0              9.5503391      9.6420665      0.2            92.085004    
      8600   0.24918764     0.0012037706   0.0012037706   0              0              1026.5935      1689.2916      363.7221       0              98.829644      0              0              9.5493762      9.6347064      0.2            92.005436    
      8700   0.21032197     0.0010841239   0.0010841239   0              0              409.55114      828.12187     -9.1818371      0             -378.12567      0              0              9.5484133      9.6386993      0.2            92.034285    
      8800   0.19462694     0.001101053    0.001101053    0              0             -88.855835      318.29186     -496.15801      0             -311.50829      0              0              9.5474505      9.6391036      0.2            92.028865    
      8900   0.20257363     0.0010776759   0.0010776759   0              0              567.34228      1241.2787     -106.78748      0              45.87083       0              0              9.5464876      9.6348298      0.2            91.978783    
      9000   0.22180933     0.001352748    0.001352748    0              0              746.99312      1116.5102      377.28504      0             -403.07506      0              0              9.5455248      9.6314037      0.2            91.936802    
      9100   0.22346715     0.0011704786   0.0011704786   0              0              572.99052      1096.9607      48.837906      0             -712.37748      0              0              9.5445619      9.6371923      0.2            91.982778    
      9200   0.22272704     0.00097085078  0.00097085078  0              0              401.37942      1249.5618     -446.98287      0             -616.36669      0              0              9.543599       9.6393548      0.2            91.994137    
      9300   0.18022529     0.0010658396   0.0010658396   0              0              423.49733      1042.7513     -195.96527      0              670.88512      0              0              9.5426362      9.6411158      0.2            92.001661    
      9400   0.20405948     0.0010034659   0.0010034659   0              0              735.58532      1046.5669      424.44862      0             -65.527762      0              0              9.5416733      9.6346713      0.2            91.930886    
      9500   0.18638089     0.0011106914   0.0011106914   0              0              655.99411      1057.803       254.02718      0             -301.28865      0              0              9.5407104      9.6316035      0.2            91.89234     
      9600   0.22448677     0.0013620309   0.0013620309   0              0             -417.60698     -304.50988     -530.90162      0             -46.335526      0              0              9.5397476      9.6407057      0.2            91.969898    
      9700   0.18320715     0.0012059097   0.0012059097   0              0              209.97332      718.67867     -298.88399      0             -331.03827      0              0              9.5387847      9.640281       0.2            91.956565    
      9800   0.17435416     0.0012064313   0.0012064313   0              0              720.24191      837.05554      603.23601      0              139.36809      0              0              9.5378218      9.6313197      0.2            91.861812    
      9900   0.2557914      0.0010890869   0.0010890869   0              0              618.70895      959.88539      277.32376      0              255.23984      0              0              9.536859       9.6412557      0.2            91.947296    
     10000   0.19642744     0.0011311153   0.0011311153   0              0              126.50872      878.24147     -625.38736      0             -368.5249       0              0              9.5358961      9.6441366      0.2            91.965485    
     10100   0.17206773     0.0011823598   0.0011823598   0              0             -191.62563     -53.342174     -330.10237      0             -353.4995       0              0              9.5349332      9.6414481      0.2            91.930564    
     10200   0.21266019     0.0010246363   0.0010246363   0              0              394.45428      194.4597       594.3044       0             -112.58595      0              0              9.5339704      9.6335383      0.2            91.845869    
     10300   0.2250035      0.001109282    0.001109282    0              0              102.41503     -86.735874      291.37078      0             -374.59805      0              0              9.5330075      9.6325424      0.2            91.827099    
     10400   0.2248185      0.0012841036   0.0012841036   0              0             -106.18472      428.21745     -640.77266      0             -481.47626      0              0              9.5320446      9.6384771      0.2            91.874394    
     10500   0.15823547     0.0012229438   0.0012229438   0              0              311.49452      1032.6964     -409.88021      0              85.920724      0              0              9.5310818      9.6395069      0.2            91.874928    
     10600   0.18865938     0.001115629    0.001115629    0              0              1067.6321      1504.1978      630.87819      0             -803.19758      0              0              9.5301189      9.6302798      0.2            91.777712    
     10700   0.19417006     0.001120618    0.001120618    0              0              1009.4051      1426.3781      592.26048      0             -315.60122      0              0              9.529156       9.6355427      0.2            91.818589    
     10800   0.21416974     0.0012699325   0.0012699325   0              0             -233.71117      65.341015     -532.95425      0              331.28056      0              0              9.5281932      9.6495163      0.2            91.942455    
     10900   0.22456259     0.0010937368   0.0010937368   0              0             -528.67359     -322.56532     -734.95168      0             -54.350911      0              0              9.5272303      9.6466994      0.2            91.906327    
     11000   0.22562422     0.0010749356   0.0010749356   0              0              910.0191       1455.3266      364.4802       0             -578.54294      0              0              9.5262674      9.6429316      0.2            91.861146    
     11100   0.18215148     0.0011362944   0.0011362944   0              0              1195.4924      1383.9358      1006.8456      0              119.13725      0              0              9.5253046      9.6415174      0.2            91.83839     
     11200   0.24694519     0.00092382512  0.00092382512  0              0              372.92464      1099.8705     -354.21294      0             -269.75313      0              0              9.5243417      9.650962       0.2            91.919059    
     11300   0.20496163     0.001056329    0.001056329    0              0             -221.40318      690.60256     -1133.6019      0             -508.7541       0              0              9.5233788      9.6492567      0.2            91.893527    
     11400   0.18676954     0.0010647124   0.0010647124   0              0              663.13217      1130.4021      195.694        0             -648.49866      0              0              9.522416       9.6461414      0.2            91.854571    
     11500   0.20593069     0.0010935667   0.0010935667   0              0              1112.7159      1153.3229      1071.926       0             -452.58208      0              0              9.5214531      9.6405864      0.2            91.792392    
     11600   0.19889289     0.00089164432  0.00089164432  0              0              92.608021      317.90264     -132.85549      0             -332.81148      0              0              9.5204902      9.6490021      0.2            91.863231    
     11700   0.20891154     0.0010814853   0.0010814853   0              0             -510.64488     -43.289387     -978.19083      0             -322.12616      0              0              9.5195274      9.6424909      0.2            91.791956    
     11800   0.17654315     0.0010312043   0.0010312043   0              0             -411.00383     -750.01821     -72.143933      0             -617.61643      0              0              9.5185645      9.6401701      0.2            91.760581    
     11900   0.28050271     0.0011425649   0.0011425649   0              0              1207.8383      1503.9547      911.5275       0             -109.00397      0              0              9.5176016      9.6322139      0.2            91.675575    
     12000   0.24740482     0.0014488582   0.0014488582   0              0              654.47689      1330.3503     -21.555252      0             -8.879021       0              0              9.5166388      9.6473066      0.2            91.809932    
     12100   0.21514746     0.0010786777   0.0010786777   0              0             -162.54114      578.73343     -903.97463      0             -35.790575      0              0              9.5156759      9.6449379      0.2            91.778103    
     12200   0.22760417     0.0011821968   0.0011821968   0              0              271.49351      731.39615     -188.59781      0              511.15059      0              0              9.514713       9.6407811      0.2            91.729266    
     12300   0.18561653     0.0011690904   0.0011690904   0              0              1044.9031      1119.7664      969.84516      0              872.60184      0              0              9.5137502      9.6343393      0.2            91.658698    
     12400   0.24008181     0.0011395746   0.0011395746   0              0              543.76097      749.09152      338.26669      0              277.55501      0              0              9.5127873      9.6396667      0.2            91.7001      
     12500   0.22450353     0.0012585321   0.0012585321   0              0             -299.73335      367.3702      -967.01806      0              382.75441      0              0              9.5118244      9.6493807      0.2            91.783215    
     12600   0.23679875     0.00093510117  0.00093510117  0              0             -13.046054      257.93046     -284.17775      0              655.4502       0              0              9.5108616      9.6517793      0.2            91.796737    
     12700   0.16998727     0.00099565689  0.00099565689  0              0              1048.5778      1160.9492      935.9841       0              210.17598      0              0              9.5098987      9.6448717      0.2            91.721753    
     12800   0.17383471     0.0010956784   0.0010956784   0              0              1003.8069      1744.083       263.36668      0             -219.0826       0              0              9.5089358      9.6510741      0.2            91.771445    
     12900   0.21614517     0.001153335    0.001153335    0              0              59.370248      1112.9631     -994.43333      0             -162.93457      0              0              9.507973       9.6642496      0.2            91.887425    
     13000   0.1967768      0.0011828742   0.0011828742   0              0              778.96672      1532.4747      25.266727      0             -430.72295      0              0              9.5070101      9.6519191      0.2            91.760893    
     13100   0.17619453     0.0011754      0.0011754      0              0              1393.0118      1934.1318      851.74187      0             -395.43239      0              0              9.5060473      9.6464199      0.2            91.699324    
     13200   0.18681958     0.0012962477   0.0012962477   0              0              696.03291      1422.3129     -30.420514      0             -404.68871      0              0              9.5050844      9.6492457      0.2            91.716894    
     13300   0.17555458     0.001394842    0.001394842    0              0              273.835        1322.285      -774.80896      0             -624.98178      0              0              9.5041215      9.6525791      0.2            91.739285    
     13400   0.23043687     0.0013536518   0.0013536518   0              0              715.83812      1460.183      -28.667039      0             -1137.7652      0              0              9.5031587      9.6461829      0.2            91.669206    
     13500   0.21083963     0.001134956    0.001134956    0              0              1049.4644      1419.9802      678.80912      0             -891.58335      0              0              9.5021958      9.646307       0.2            91.661098    
     13600   0.1672259      0.0012578946   0.0012578946   0              0              838.8504       1549.7007      127.84303      0             -74.86024       0              0              9.5012329      9.6510707      0.2            91.697071    
     13700   0.20386176     0.0013553325   0.0013553325   0              0              706.36099      2059.0066     -646.46326      0             -702.67546      0              0              9.5002701      9.6580943      0.2            91.754504    
     13800   0.1987801      0.0014653278   0.0014653278   0              0              1027.445       2160.9036     -106.15656      0             -334.73994      0              0              9.4993072      9.6539946      0.2            91.706261    
     13900   0.24596804     0.0011377435   0.0011377435   0              0              898.73155      1416.6545      380.63418      0             -314.08063      0              0              9.4983443      9.6501189      0.2            91.660152    
     14000   0.23176515     0.001372036    0.001372036    0              0              1268.7134      2230.2297      307.01205      0             -464.47517      0              0              9.4973815      9.6517196      0.2            91.666063    
     14100   0.20255981     0.0013713486   0.0013713486   0              0              748.59267      1854.8567     -357.86009      0             -849.49014      0              0              9.4964186      9.6545948      0.2            91.684073    
     14200   0.25485132     0.0012388828   0.0012388828   0              0              800.45109      1908.7413     -308.04312      0              340.02304      0              0              9.4954557      9.6559887      0.2            91.688013    
     14300   0.20892132     0.0010855037   0.0010855037   0              0              1413.7102      2513.0459      314.2243       0             -80.681957      0              0              9.4944929      9.6499043      0.2            91.620948    
     14400   0.20763208     0.0011929974   0.0011929974   0              0              764.59888      1205.716       323.28219      0             -42.691927      0              0              9.49353        9.6553805      0.2            91.663645    
     14500   0.21631567     0.0013575874   0.0013575874   0              0              102.6817       517.18782     -311.99364      0             -390.08137      0              0              9.4925671      9.6501403      0.2            91.604605    
     14600   0.15806833     0.0010064063   0.0010064063   0              0              236.43586      871.24728     -398.5832       0             -86.420896      0              0              9.4916043      9.6530876      0.2            91.623288    
     14700   0.16913603     0.00089978806  0.00089978806  0              0              353.29425      465.84423      240.60376      0              44.387506      0              0              9.4906414      9.6464933      0.2            91.551409    
     14800   0.22276668     0.0010761152   0.0010761152   0              0              719.77564      940.82421      498.53478      0              52.150509      0              0              9.4896785      9.6484532      0.2            91.560719    
     14900   0.18428368     0.0011958977   0.0011958977   0              0              402.15086      963.61083     -159.51797      0              26.884582      0              0              9.4887157      9.6521966      0.2            91.586949    
     15000   0.18607813     0.0011169713   0.0011169713   0              0              142.92152      878.76408     -593.1395       0             -932.89377      0              0              9.4877528      9.6558497      0.2            91.612315    
     15100   0.14569614     0.0012418557   0.0012418557   0              0              1035.0733      1945.6722      124.24614      0              12.754006      0              0              9.4867899      9.6483205      0.2            91.53159     
     15200   0.22464501     0.0012865076   0.0012865076   0              0              1217.356       2042.5189      392.0457       0              91.857048      0              0              9.4858271      9.6450926      0.2            91.49168     
     15300   0.16752685     0.0012728249   0.0012728249   0              0              613.6959       1343.9799     -116.7496       0              80.694214      0              0              9.4848642      9.6519806      0.2            91.547726    
     15400   0.1903392      0.0012409605   0.0012409605   0              0              795.94307      2011.0896     -419.39066      0              403.85393      0              0              9.4839013      9.6489055      0.2            91.509268    
     15500   0.17568055     0.0012839808   0.0012839808   0              0              674.64233      1400.2065     -51.071031      0              421.1869       0              0              9.4829385      9.6531164      0.2            91.539909    
     15600   0.23284113     0.0010976794   0.0010976794   0              0              850.87515      1266.5493      435.05037      0             -88.276342      0              0              9.4819756      9.6459253      0.2            91.462428    
     15700   0.2040365      0.0012601497   0.0012601497   0              0              990.51832      1905.7212      75.153323      0             -41.558601      0              0              9.4810127      9.6501429      0.2            91.493128    
     15800   0.21712547     0.0010400733   0.0010400733   0              0              706.90176      1802.2711     -388.69371      0             -275.15386      0              0              9.4800499      9.6524524      0.2            91.50573     
     15900   0.15942144     0.0012217132   0.0012217132   0              0              427.76166      1140.4488     -285.12115      0              574.96575      0              0              9.479087       9.6488223      0.2            91.462026    
     16000   0.21889463     0.001144966    0.001144966    0              0              1368.1399      2410.1051      325.97276      0              717.2056       0              0              9.4781241      9.6462059      0.2            91.427937    
     16100   0.22188026     0.0010992277   0.0010992277   0              0              826.18643      1322.9912      329.17451      0             -393.96518      0              0              9.4771613      9.6553617      0.2            91.50542     
     16200   0.22317022     0.0010312703   0.0010312703   0              0              878.06313      2115.0017     -359.07368      0             -164.40367      0              0              9.4761984      9.6578799      0.2            91.519986    
     16300   0.15806688     0.0011287034   0.0011287034   0              0              259.69543      881.35963     -362.17493      0             -104.21976      0              0              9.4752355      9.651399       0.2            91.449278    
     16400   0.1844248      0.0013794568   0.0013794568   0              0              927.49824      1542.9914      311.7948       0              192.92316      0              0              9.4742727      9.6433277      0.2            91.363517    
     16500   0.20925759     0.0012155441   0.0012155441   0              0              1015.4085      1525.1777      505.47515      0             -226.11626      0              0              9.4733098      9.6488271      0.2            91.406328    
     16600   0.16871083     0.0012428914   0.0012428914   0              0              259.91753      789.77399     -270.15036      0             -541.72843      0              0              9.4723469      9.6492032      0.2            91.4006      
     16700   0.21494726     0.0012620472   0.0012620472   0              0              487.28992      1682.6479     -708.28607      0             -99.895194      0              0              9.4713841      9.660727       0.2            91.500456    
     16800   0.18472885     0.0011986337   0.0011986337   0              0              882.71566      1479.6534      285.58901      0             -981.52096      0              0              9.4704212      9.6479753      0.2            91.37039     
     16900   0.20262922     0.0012064203   0.0012064203   0              0              917.85352      1023.9469      811.57297      0             -306.56007      0              0              9.4694583      9.6487396      0.2            91.368338    
     17000   0.22219349     0.0012749803   0.0012749803   0              0              461.2202       1053.2338     -130.94871      0             -797.63703      0              0              9.4684955      9.6576428      0.2            91.443348    
     17100   0.20173284     0.0012992704   0.0012992704   0              0             -423.11604      153.57494     -999.99019      0             -574.6124       0              0              9.4675326      9.6576404      0.2            91.434026    
     17200   0.15869836     0.0011297172   0.0011297172   0              0             -253.19325     -529.60604      23.061008      0             -603.5093       0              0              9.4665698      9.6519777      0.2            91.371121    
     17300   0.22174056     0.0010218635   0.0010218635   0              0              1533.0229      1809.1998      1256.6484      0             -432.48496      0              0              9.4656069      9.6399287      0.2            91.247776    
     17400   0.23827025     0.0011497756   0.0011497756   0              0              983.31935      1675.8446      290.61046      0              1.3938671      0              0              9.464644       9.6551644      0.2            91.382694    
     17500   0.19993254     0.0011600051   0.0011600051   0              0             -135.14296      1032.6139     -1303.1059      0             -1222.8371      0              0              9.4636812      9.658784       0.2            91.407653    
     17600   0.18041877     0.0010680789   0.0010680789   0              0             -190.52067      235.34785     -616.60366      0             -40.940262      0              0              9.4627183      9.6575977      0.2            91.387126    
     17700   0.20788332     0.0010632022   0.0010632022   0              0              1087.9951      948.98699      1226.8528      0              130.95105      0              0              9.4617554      9.6415511      0.2            91.225999    
     17800   0.22956385     0.0012029389   0.0012029389   0              0              929.56941      1019.5753      839.38866      0              283.09252      0              0              9.4607926      9.6494914      0.2            91.291837    
     17900   0.20201444     0.00088076183  0.00088076183  0              0             -262.69206      493.89222     -1019.4419      0             -563.45657      0              0              9.4598297      9.6565833      0.2            91.349633    
     18000   0.19820967     0.0011616639   0.0011616639   0              0              42.036241      1174.7584     -1090.8571      0              145.98927      0              0              9.4588668      9.6596381      0.2            91.36923     
     18100   0.206044       0.0011450053   0.0011450053   0              0              571.51683      410.97775      731.89237      0              409.44857      0              0              9.457904       9.6496365      0.2            91.265335    
     18200   0.17122696     0.0012192554   0.0012192554   0              0              1241.0261      1275.3131      1206.5505      0              97.973917      0              0              9.4569411      9.6416119      0.2            91.180156    
     18300   0.1702692      0.001115841    0.001115841    0              0             -144.10983      61.747267     -350.15686      0              425.2858       0              0              9.4559782      9.6505522      0.2            91.255412    
     18400   0.2302419      0.0010537922   0.0010537922   0              0             -173.06706      700.72451     -1047.0677      0             -214.64305      0              0              9.4550154      9.6555853      0.2            91.293707    
     18500   0.19445824     0.0011523137   0.0011523137   0              0              330.84605      600.98337      60.516947      0              687.33798      0              0              9.4540525      9.6437706      0.2            91.172713    
     18600   0.20900454     0.0011338563   0.0011338563   0              0              770.54683      643.68956      897.21019      0             -69.288178      0              0              9.4530896      9.6428535      0.2            91.154758    
     18700   0.17794557     0.0011461654   0.0011461654   0              0              660.98543      1178.345       143.43513      0             -608.97868      0              0              9.4521268      9.6546684      0.2            91.25715     
     18800   0.17151608     0.0011633132   0.0011633132   0              0              239.32732      1204.9121     -726.43546      0             -147.34131      0              0              9.4511639      9.6587308      0.2            91.286248    
     18900   0.19589971     0.0010248404   0.0010248404   0              0             -43.652908      186.98496     -274.47274      0             -88.592193      0              0              9.450201       9.6517135      0.2            91.210633    
     19000   0.198662       0.00087034253  0.00087034253  0              0              793.78032      1050.612       536.77793      0             -540.1693       0              0              9.4492382      9.6428413      0.2            91.117504    
     19100   0.21442259     0.00088732611  0.00088732611  0              0              447.40273      588.86158      305.731        0             -97.021712      0              0              9.4482753      9.6465803      0.2            91.143546    
     19200   0.2084011      0.0010524976   0.0010524976   0              0             -168.78291      219.71974     -557.48341      0             -649.48248      0              0              9.4473124      9.6499642      0.2            91.166227    
     19300   0.16152884     0.0011379878   0.0011379878   0              0              212.76246      845.21673     -419.85614      0             -344.71863      0              0              9.4463496      9.6502509      0.2            91.159644    
     19400   0.22113994     0.0010410347   0.0010410347   0              0              1054.7374      1632.4032      476.91765      0              716.85478      0              0              9.4453867      9.6451605      0.2            91.102271    
     19500   0.18911208     0.0011243572   0.0011243572   0              0              954.6452       1494.9134      414.18477      0             -84.123932      0              0              9.4444238      9.6466122      0.2            91.106694    
     19600   0.17560284     0.0010604155   0.0010604155   0              0              377.52399      1213.3855     -458.49284      0             -23.988177      0              0              9.443461       9.6576439      0.2            91.201584    
     19700   0.22491663     0.0009498488   0.0009498488   0              0              308.26294      982.06531     -365.73528      0             -348.45622      0              0              9.4424981      9.6597611      0.2            91.212276    
     19800   0.19592917     0.0010901926   0.0010901926   0              0              779.37787      1154.0236      404.55237      0             -550.90316      0              0              9.4415352      9.6481082      0.2            91.092954    
     19900   0.22294882     0.0011660737   0.0011660737   0              0              376.98878      484.9493       268.87625      0              89.670969      0              0              9.4405724      9.6521786      0.2            91.12209     
     20000   0.24167615     0.0011678423   0.0011678423   0              0              105.14115      502.96225     -292.84437      0             -242.26631      0              0              9.4396095      9.6540917      0.2            91.130856    
     20100   0.1581099      0.0011046683   0.0011046683   0              0             -128.58719      28.946353     -286.31662      0             -202.90593      0              0              9.4386466      9.6543355      0.2            91.123862    
     20200   0.24621724     0.0012808978   0.0012808978   0              0              664.43917      973.68924      355.01182      0              265.62423      0              0              9.4376838      9.6539044      0.2            91.110497    
     20300   0.2552244      0.0012878128   0.0012878128   0              0              1280.7716      2382.7955      178.564        0              156.91161      0              0              9.4367209      9.6523643      0.2            91.086668    
     20400   0.21993208     0.0011732105   0.0011732105   0              0              397.35941      1080.1098     -285.58418      0             -313.26206      0              0              9.435758       9.6595505      0.2            91.145181    
     20500   0.21878328     0.0010891789   0.0010891789   0              0              743.06551      1744.4675     -258.5084       0             -67.788617      0              0              9.4347952      9.6628244      0.2            91.166769    
     20600   0.2189128      0.0012512935   0.0012512935   0              0              1245.0489      2315.7585      174.12017      0             -741.56649      0              0              9.4338323      9.6579536      0.2            91.111515    
     20700   0.20939881     0.0012194553   0.0012194553   0              0              845.88527      1289.8177      401.79071      0              107.77507      0              0              9.4328694      9.6523769      0.2            91.049611    
     20800   0.23069693     0.001271204    0.001271204    0              0              210.18263      536.72371     -116.55554      0              613.04983      0              0              9.4319066      9.6681567      0.2            91.189151    
     20900   0.19617953     0.0011343996   0.0011343996   0              0              612.87574      1596.0089     -370.47147      0             -459.17351      0              0              9.4309437      9.6619153      0.2            91.12098     
     21000   0.21823569     0.0012507084   0.0012507084   0              0              577.11624      978.02731      176.00053      0             -241.57561      0              0              9.4299808      9.6561042      0.2            91.056878    
     21100   0.217396       0.0013230473   0.0013230473   0              0              752.08204      1124.1431      379.84791      0             -240.89852      0              0              9.429018       9.6569074      0.2            91.055153    
     21200   0.25240013     0.0014895394   0.0014895394   0              0              780.58189      1853.5221     -292.54424      0              61.430518      0              0              9.4280551      9.6488673      0.2            90.970053    
     21300   0.22550424     0.0011631597   0.0011631597   0              0              952.45694      2301.7238     -396.96017      0             -67.998854      0              0              9.4270923      9.6520009      0.2            90.990302    
     21400   0.20767586     0.001176412    0.001176412    0              0              964.12908      1725.0589      203.04964      0             -621.30229      0              0              9.4261294      9.6610394      0.2            91.066208    
     21500   0.19051301     0.0013209426   0.0013209426   0              0              718.19919      961.54027      474.72276      0             -127.98085      0              0              9.4251665      9.6555581      0.2            91.005243    
     21600   0.19888579     0.0014746869   0.0014746869   0              0              616.30554      1458.7563     -226.31739      0             -472.23349      0              0              9.4242037      9.6606092      0.2            91.043548    
     21700   0.1863582      0.0013074278   0.0013074278   0              0              169.95853      1119.4683     -779.71656      0             -508.43254      0              0              9.4232408      9.6628165      0.2            91.055046    
     21800   0.17103127     0.0013324146   0.0013324146   0              0              471.317        712.49304      229.94004      0             -375.25585      0              0              9.4222779      9.6590868      0.2            91.0106      
     21900   0.21873076     0.0013930567   0.0013930567   0              0              1688.7574      2243.8201      1133.5295      0             -127.77219      0              0              9.4213151      9.6485905      0.2            90.902411    
     22000   0.23856747     0.0012195986   0.0012195986   0              0              216.41337      629.11973     -196.44231      0             -724.81178      0              0              9.4203522      9.6509141      0.2            90.91501     
     22100   0.21278206     0.0013663847   0.0013663847   0              0             -258.20347      1001.8953     -1518.4793      0             -563.12668      0              0              9.4193893      9.6582536      0.2            90.974851    
     22200   0.20963597     0.0014208564   0.0014208564   0              0              68.354493      331.53194     -195.00174      0             -284.71136      0              0              9.4184265      9.6506244      0.2            90.893696    
     22300   0.18507541     0.0014347786   0.0014347786   0              0              1402.6525      1092.7303      1712.3862      0             -488.65316      0              0              9.4174636      9.633738       0.2            90.725377    
     22400   0.19980792     0.0013512416   0.0013512416   0              0              747.2058       666.09496      828.11054      0             -181.69575      0              0              9.4165007      9.6476487      0.2            90.847091    
     22500   0.23320689     0.0013683999   0.0013683999   0              0             -346.8774       875.78049     -1569.7705      0             -389.45168      0              0              9.4155379      9.6552013      0.2            90.908914    
     22600   0.17679955     0.0012208917   0.0012208917   0              0             -606.74728      192.92973     -1406.5952      0              448.08263      0              0              9.414575       9.6531882      0.2            90.880664    
     22700   0.25305918     0.0011144737   0.0011144737   0              0              1103.0106      1145.1246      1060.7064      0             -676.13602      0              0              9.4136121      9.6411005      0.2            90.757581    
     22800   0.19505633     0.0013714366   0.0013714366   0              0              2017.3184      2588.6958      1445.7159      0              225.83646      0              0              9.4126493      9.6337067      0.2            90.678703    
     22900   0.22105363     0.0011366643   0.0011366643   0              0              418.12879      1408.0062     -571.91078      0             -413.90028      0              0              9.4116864      9.6516575      0.2            90.838373    
     23000   0.19962278     0.0012637642   0.0012637642   0              0             -630.03427      219.56357     -1479.8004      0              34.973379      0              0              9.4107235      9.6589383      0.2            90.897598    
     23100   0.20614911     0.0011880288   0.0011880288   0              0              500.75024      922.37766      78.925276      0             -259.51475      0              0              9.4097607      9.6525861      0.2            90.828525    
     23200   0.20542711     0.0013254876   0.0013254876   0              0              1169.4923      1002.5474      1336.2566      0             -301.63992      0              0              9.4087978      9.6347761      0.2            90.65166     
     23300   0.20132125     0.0011629871   0.0011629871   0              0              392.23379      437.57365      346.72966      0             -276.40637      0              0              9.4078349      9.6436689      0.2            90.726045    
     23400   0.24499809     0.001109639    0.001109639    0              0             -333.9197       419.66702     -1087.7028      0              84.848384      0              0              9.4068721      9.6502771      0.2            90.778922    
     23500   0.20290959     0.0011359626   0.0011359626   0              0             -319.01491      3.6532626     -641.85874      0             -165.86849      0              0              9.4059092      9.6550295      0.2            90.814331    
     23600   0.22125092     0.0014462349   0.0014462349   0              0              1438.3603      2148.3557      728.16856      0             -535.62642      0              0              9.4049463      9.6435761      0.2            90.697316    
     23700   0.26467162     0.0012114349   0.0012114349   0              0              1099.2574      1527.4172      670.92077      0             -480.64778      0              0              9.4039835      9.650444       0.2            90.752616    
     23800   0.2118438      0.001268673    0.001268673    0              0              481.10811      1332.9243     -370.85781      0             -398.52039      0              0              9.4030206      9.6544301      0.2            90.780805    
     23900   0.24894834     0.0013168906   0.0013168906   0              0              479.09752      1663.1944     -705.18378      0             -825.41713      0              0              9.4020577      9.6546829      0.2            90.773886    
     24000   0.20071201     0.0012371153   0.0012371153   0              0              752.97445      1319.7462      186.01658      0              101.68904      0              0              9.4010949      9.6541931      0.2            90.759985    
     24100   0.21123545     0.0011613011   0.0011613011   0              0              931.91391      996.09251      867.5376       0             -122.6386       0              0              9.400132       9.6455142      0.2            90.669107    
     24200   0.18051421     0.0012140716   0.0012140716   0              0              419.58795      735.51019      103.48335      0             -81.790125      0              0              9.3991691      9.6546026      0.2            90.745242    
     24300   0.17027334     0.0012831481   0.0012831481   0              0             -176.21051      445.316       -797.95669      0              776.76318      0              0              9.3982063      9.652623       0.2            90.717342    
     24400   0.19129834     0.0013087732   0.0013087732   0              0              286.51613      1036.9042     -464.04927      0             -529.99674      0              0              9.3972434      9.6559839      0.2            90.739631    
     24500   0.21938114     0.0011779392   0.0011779392   0              0              527.71169      463.08393      592.17683      0             -512.20303      0              0              9.3962805      9.6532311      0.2            90.704468    
     24600   0.19552065     0.0013140893   0.0013140893   0              0              1549.4218      2412.9222      685.75413      0             -634.91088      0              0              9.3953177      9.652312       0.2            90.686538    
     24700   0.20457204     0.00096330527  0.00096330527  0              0             -329.12386     -392.51479     -265.91959      0              511.06637      0              0              9.3943548      9.6547653      0.2            90.700291    
     24800   0.17345873     0.0010667601   0.0010667601   0              0             -259.00281      292.60916     -810.8057       0             -910.20612      0              0              9.3933919      9.6561205      0.2            90.703725    
     24900   0.20606195     0.0012005833   0.0012005833   0              0             -210.70476     -292.79883     -128.78075      0             -407.97759      0              0              9.3924291      9.643732       0.2            90.578068    
     25000   0.25645814     0.0013505624   0.0013505624   0              0              1015.1067      1337.8316      692.2263       0             -521.50507      0              0              9.3914662      9.6495704      0.2            90.623615    
     25100   0.24747755     0.0012640329   0.0012640329   0              0              838.81626      1229.572       447.85441      0             -915.36738      0              0              9.3905033      9.6519468      0.2            90.636639    
     25200   0.21030409     0.0012244163   0.0012244163   0              0             -43.33915       265.92266     -352.80989      0             -845.86732      0              0              9.3895405      9.656005       0.2            90.66545     
     25300   0.26607028     0.0014714964   0.0014714964   0              0              284.74217      1177.4637     -608.18092      0             -260.13913      0              0              9.3885776      9.6563878      0.2            90.659746    
     25400   0.19827283     0.0015337962   0.0015337962   0              0              67.161779     -14.663378      148.78794      0             -169.17128      0              0              9.3876148      9.6594808      0.2            90.679485    
     25500   0.22010206     0.0013000294   0.0013000294   0              0              893.80978      1246.895       540.55508      0             -1005.585       0              0              9.3866519      9.6505841      0.2            90.586673    
     25600   0.18924269     0.00098612755  0.00098612755  0              0              745.17816      1475.3362      14.839538      0             -572.00213      0              0              9.385689       9.6514764      0.2            90.585756    
     25700   0.16211652     0.0011177715   0.0011177715   0              0              152.0069       911.21896     -607.38542      0             -576.14883      0              0              9.3847262      9.6577336      0.2            90.635185    
     25800   0.19336941     0.0012952512   0.0012952512   0              0              333.18899      858.79277     -192.6056       0             -356.49367      0              0              9.3837633      9.6519475      0.2            90.571591    
     25900   0.21210994     0.0014224062   0.0014224062   0              0              236.93871      43.192059      430.52192      0              592.80502      0              0              9.3828004      9.659704       0.2            90.635074    
     26000   0.23717233     0.0012759632   0.0012759632   0              0              616.47131      895.11654      337.63608      0             -282.69426      0              0              9.3818376      9.6482479      0.2            90.518295    
     26100   0.15113303     0.0013627448   0.0013627448   0              0             -215.49716     -67.248602     -363.92062      0             -915.35962      0              0              9.3808747      9.6542683      0.2            90.565482    
     26200   0.22919059     0.0012864079   0.0012864079   0              0              335.75383      1070.9165     -399.61275      0             -647.29734      0              0              9.3799118      9.6504026      0.2            90.519926    
     26300   0.20287768     0.0012319731   0.0012319731   0              0              306.23063      416.88125      195.422        0             -112.87162      0              0              9.378949       9.6511319      0.2            90.517473    
     26400   0.19389383     0.0011423183   0.0011423183   0              0              613.37548      813.46124      413.10529      0             -605.34764      0              0              9.3779861      9.6475037      0.2            90.474156    
     26500   0.24384533     0.0013141583   0.0013141583   0              0              701.89211      1541.9501     -138.34379      0             -607.52211      0              0              9.3770232      9.6439906      0.2            90.431924    
     26600   0.17879795     0.0014253355   0.0014253355   0              0              317.07516      944.99013     -310.96542      0             -333.06753      0              0              9.3760604      9.6517393      0.2            90.49529     
     26700   0.21340726     0.0012541956   0.0012541956   0              0              372.4048       504.95473      239.63087      0             -230.50933      0              0              9.3750975      9.6449871      0.2            90.422694    
     26800   0.18153373     0.0011400159   0.0011400159   0              0              563.51063      791.05711      335.79866      0              43.703161      0              0              9.3741346      9.6452899      0.2            90.416246    
     26900   0.17633914     0.001214456    0.001214456    0              0              132.70748      447.89867     -182.67112      0             -704.33743      0              0              9.3731718      9.6535445      0.2            90.484331    
     27000   0.24607386     0.0014009872   0.0014009872   0              0              264.33998      1042.2369     -513.71568      0             -472.49451      0              0              9.3722089      9.6536761      0.2            90.476269    
     27100   0.23167791     0.0012304095   0.0012304095   0              0              170.50263      246.91192      93.909206      0             -645.13577      0              0              9.371246       9.6515316      0.2            90.446877    
     27200   0.1905416      0.00124919     0.00124919     0              0              789.15796      1143.9092      434.23126      0             -742.14624      0              0              9.3702832      9.6405824      0.2            90.334987    
     27300   0.22334524     0.0012006272   0.0012006272   0              0              239.58387      503.5555      -24.576748      0              65.081569      0              0              9.3693203      9.641161       0.2            90.331125    
     27400   0.1881626      0.001352503    0.001352503    0              0             -462.53044     -352.95556     -572.3018       0              217.59163      0              0              9.3683574      9.6389601      0.2            90.301223    
     27500   0.1979861      0.0012418942   0.0012418942   0              0             -12.561466      87.842084     -113.14025      0              112.50793      0              0              9.3673946      9.6441944      0.2            90.340974    
     27600   0.17954074     0.0014974591   0.0014974591   0              0              740.16934      854.75318      625.37404      0             -96.172894      0              0              9.3664317      9.6413696      0.2            90.30523     
     27700   0.17253303     0.0014758338   0.0014758338   0              0              595.40931      1019.8967      170.72892      0             -823.36856      0              0              9.3654688      9.6435539      0.2            90.316403    
     27800   0.1808821      0.0018952019   0.0018952019   0              0              311.66562      1296.8508     -673.69052      0             -13.960977      0              0              9.364506       9.6507938      0.2            90.374916    
     27900   0.20681856     0.0012989355   0.0012989355   0              0              291.06082      926.91045     -344.96085      0              63.455667      0              0              9.3635431      9.6558427      0.2            90.4129      
     28000   0.18471002     0.0013919267   0.0013919267   0              0              1196.6682      1761.4466      631.71023      0             -84.606066      0              0              9.3625802      9.6504218      0.2            90.352848    
     28100   0.20022787     0.0015094555   0.0015094555   0              0              1034.6045      1575.9573      493.08009      0             -128.66413      0              0              9.3616174      9.6485959      0.2            90.326463    
[...]
     43100   0.19870401     0.0014240718   0.0014240718   0              0              594.31454      975.35155      213.1072       0             -308.46351      0              0              9.2171875      9.6164507      0.2            88.636629    
     43200   0.21017991     0.0015669903   0.0015669903   0              0              882.80674      810.93395      954.48311      0             -356.05999      0              0              9.2162246      9.6130922      0.2            88.596417    
     43300   0.21228314     0.0016804677   0.0016804677   0              0              697.39445      1608.7173     -214.11873      0             -514.96878      0              0              9.2152618      9.6230513      0.2            88.678937    
     43400   0.19562437     0.00160344     0.00160344     0              0             -106.73446      771.50045     -985.18644      0             -98.106018      0              0              9.2142989      9.6256903      0.2            88.693987    
     43500   0.23187703     0.0017774236   0.0017774236   0              0              776.22249      1389.6011      162.68432      0              171.91677      0              0              9.213336       9.6219378      0.2            88.650146    
     43600   0.21183291     0.0016162818   0.0016162818   0              0              854.82851      890.84174      818.62274      0              351.84012      0              0              9.2123732      9.6155682      0.2            88.582202    
     43700   0.23479025     0.0015990766   0.0015990766   0              0              562.47138      1387.6899     -262.93784      0              364.72342      0              0              9.2114103      9.6273059      0.2            88.681065    
     43800   0.18169459     0.0017816187   0.0017816187   0              0              241.464        1247.2079     -764.47029      0             -495.8343       0              0              9.2104474      9.629698       0.2            88.693827    
     43900   0.19663853     0.0016918935   0.0016918935   0              0              1300.3671      2163.4048      437.14151      0             -64.601749      0              0              9.2094846      9.6192436      0.2            88.588275    
     44000   0.20500916     0.0017487426   0.0017487426   0              0              824.74174      897.86153      751.44218      0              108.87661      0              0              9.2085217      9.6154155      0.2            88.543762    
     44100   0.19653309     0.0016541745   0.0016541745   0              0              293.17823      1098.8097     -512.6182       0              54.472671      0              0              9.2075588      9.626508       0.2            88.636639    
     44200   0.22300298     0.0015153578   0.0015153578   0              0              644.9356       1882.7378     -593.06508      0              67.164936      0              0              9.206596       9.624458       0.2            88.608496    
     44300   0.21402844     0.0016542242   0.0016542242   0              0              1360.6952      2165.307       555.9023       0             -235.92063      0              0              9.2056331      9.6156444      0.2            88.518094    
     44400   0.24183715     0.001660954    0.001660954    0              0              799.15464      1059.9919      538.09063      0              480.32564      0              0              9.2046702      9.6159359      0.2            88.511519    
     44500   0.20168925     0.0016790099   0.0016790099   0              0              220.65357      1038.1029     -596.98948      0              20.191502      0              0              9.2037074      9.6190581      0.2            88.530996    
     44600   0.20397972     0.0017948066   0.0017948066   0              0              616.50527      1756.6068     -523.76957      0             -92.513877      0              0              9.2027445      9.6156004      0.2            88.489914    
     44700   0.21314519     0.0016100683   0.0016100683   0              0              908.64704      1176.1988      640.93415      0              79.657477      0              0              9.2017816      9.6119484      0.2            88.44705     
     44800   0.23068473     0.00177328     0.00177328     0              0              1006.9057      1431.3622      582.22739      0             -245.25195      0              0              9.2008188      9.6073373      0.2            88.395369    
     44900   0.19199225     0.0017704846   0.0017704846   0              0              374.20922      1310.5665     -562.33815      0              787.96521      0              0              9.1998559      9.6055177      0.2            88.369379    
     45000   0.19951356     0.0019845139   0.0019845139   0              0             -314.52413     -40.616901     -588.60668      0             -131.85711      0              0              9.198893       9.6099376      0.2            88.400788    
     45100   0.24804631     0.0020160469   0.0020160469   0              0              1055.1378      1569.6632      540.41034      0              197.98232      0              0              9.1979302      9.6037294      0.2            88.334432    
     45200   0.18371177     0.0017275463   0.0017275463   0              0              895.3926       1385.9844      404.57219      0              132.12891      0              0              9.1969673      9.6029924      0.2            88.318407    
     45300   0.17708117     0.0018319681   0.0018319681   0              0              347.36606      1209.9274     -515.3903       0             -137.04647      0              0              9.1960044      9.6126438      0.2            88.397915    
     45400   0.26189832     0.0016318942   0.0016318942   0              0              632.729        1569.9931     -304.73895      0             -430.4663       0              0              9.1950416      9.6102619      0.2            88.366758    
     45500   0.19050997     0.0018803584   0.0018803584   0              0              1431.169       2476.2144      385.95908      0             -278.57157      0              0              9.1940787      9.6189021      0.2            88.436943    
     45600   0.19729224     0.0019526751   0.0019526751   0              0              1103.6687      1939.337       267.8255       0             -203.33788      0              0              9.1931158      9.6084423      0.2            88.331524    
     45700   0.23644374     0.0015014281   0.0015014281   0              0              291.0148       895.39963     -313.53604      0             -876.22846      0              0              9.192153       9.6148484      0.2            88.381157    
     45800   0.17822081     0.0018905878   0.0018905878   0              0              537.26617      1334.5874     -260.26371      0             -859.64758      0              0              9.1911901      9.611278       0.2            88.339083    
     45900   0.17571667     0.0019236429   0.0019236429   0              0              580.0244       791.66962      368.22115      0             -338.5211       0              0              9.1902273      9.6095045      0.2            88.31353     
     46000   0.17004854     0.0019519701   0.0019519701   0              0              1055.8977      1763.7071      347.8819       0             -307.8301       0              0              9.1892644      9.614577       0.2            88.35089     
     46100   0.21974514     0.0018161383   0.0018161383   0              0              598.18165      1519.6716     -323.49173      0             -307.92255      0              0              9.1883015      9.6147551      0.2            88.343269    
     46200   0.2336028      0.0017202899   0.0017202899   0              0              18.986065      487.79947     -449.99909      0             -720.99921      0              0              9.1873387      9.6162952      0.2            88.34816     
     46300   0.21613071     0.001643027    0.001643027    0              0              427.24064      609.63783      244.67018      0             -881.77781      0              0              9.1863758      9.6166198      0.2            88.341884    
     46400   0.15717807     0.0017116299   0.0017116299   0              0              571.11555      621.25564      520.80005      0             -777.60351      0              0              9.1854129      9.6030832      0.2            88.208284    
     46500   0.18572943     0.0016589872   0.0016589872   0              0              122.41107      401.50791     -156.86091      0             -595.66196      0              0              9.1844501      9.6109745      0.2            88.271516    
     46600   0.24250785     0.0018735597   0.0018735597   0              0              135.14677      857.73795     -587.6191       0              450.65614      0              0              9.1834872      9.6128242      0.2            88.279248    
     46700   0.17278984     0.0018520985   0.0018520985   0              0              732.71446      1221.7787      243.44612      0             -499.09746      0              0              9.1825243      9.6055611      0.2            88.203298    
     46800   0.2300268      0.0016378935   0.0016378935   0              0              617.7762       747.05411      488.28465      0             -63.935857      0              0              9.1815615      9.6088591      0.2            88.22433     
     46900   0.20990572     0.0016298866   0.0016298866   0              0              574.22252      1198.3867     -50.132461      0             -450.45629      0              0              9.1805986      9.6047972      0.2            88.177788    
     47000   0.20978152     0.0016588869   0.0016588869   0              0              434.07723      1427.5732     -559.59073      0             -37.139548      0              0              9.1796357      9.6094012      0.2            88.210803    
     47100   0.17813576     0.0015102899   0.0015102899   0              0              1048.9826      2044.6453      53.136426      0             -519.30564      0              0              9.1786729      9.6041543      0.2            88.15339     
     47200   0.21741438     0.0016637323   0.0016637323   0              0              1115.3828      1567.6978      662.8852       0             -1296.3859      0              0              9.17771        9.5978028      0.2            88.085851    
     47300   0.24711841     0.0017132333   0.0017132333   0              0              725.23655      1498.7188     -48.430026      0             -529.23014      0              0              9.1767471      9.6009553      0.2            88.105539    
     47400   0.16482943     0.0015825317   0.0015825317   0              0             -416.44186     -82.757821     -750.3443       0             -531.30996      0              0              9.1757843      9.6073886      0.2            88.155325    
     47500   0.15808691     0.0018768482   0.0018768482   0              0              676.95222      1327.0247      26.725072      0             -515.32595      0              0              9.1748214      9.6030356      0.2            88.106136    
     47600   0.23464071     0.0016705375   0.0016705375   0              0              1492.191       1918.1447      1066.014       0             -1410.5911      0              0              9.1738585      9.6022231      0.2            88.089437    
     47700   0.15854167     0.0016477968   0.0016477968   0              0              981.65325      1946.2244      16.927563      0             -1281.3027      0              0              9.1728957      9.6008079      0.2            88.067209    
     47800   0.18971962     0.0017351833   0.0017351833   0              0             -161.26888      868.38241     -1191.0981      0             -259.08848      0              0              9.1719328      9.6053         0.2            88.099166    
     47900   0.19091203     0.0015711988   0.0015711988   0              0              415.99751      1010.1011     -178.31205      0             -1069.3117      0              0              9.1709699      9.5980696      0.2            88.023608    
     48000   0.20394265     0.001429056    0.001429056    0              0              1709.2181      1986.3305      1431.9029      0             -108.77247      0              0              9.1700071      9.587531       0.2            87.917727    
     48100   0.23048663     0.0014868316   0.0014868316   0              0              745.04509      1249.0731      240.80734      0             -590.89063      0              0              9.1690442      9.5895862      0.2            87.92734     
     48200   0.22019626     0.001751112    0.001751112    0              0             -497.78704      585.76099     -1581.4997      0             -772.58356      0              0              9.1680813      9.5948475      0.2            87.966342    
     48300   0.26620252     0.0016524032   0.0016524032   0              0              528.15059      1641.6553     -585.53725      0             -758.4593       0              0              9.1671185      9.5874693      0.2            87.889467    
     48400   0.20661089     0.0016349516   0.0016349516   0              0              1339.3788      1157.5572      1520.9904      0             -244.95751      0              0              9.1661556      9.5797523      0.2            87.8095      
     48500   0.28060674     0.001572719    0.001572719    0              0              1086.6055      1489.6837      683.33932      0             -612.85708      0              0              9.1651927      9.5835413      0.2            87.835003    
     48600   0.24230425     0.0016279077   0.0016279077   0              0             -218.40013      942.58319     -1379.5814      0             -1041.6823      0              0              9.1642299      9.5904233      0.2            87.888844    
     48700   0.23208264     0.0017354094   0.0017354094   0              0             -227.94775      353.9192      -809.99298      0             -382.88883      0              0              9.163267       9.5835852      0.2            87.81695     
     48800   0.20579947     0.0016851455   0.0016851455   0              0              1180.8448      1195.0016      1166.474       0             -358.99592      0              0              9.1623041      9.5712215      0.2            87.694443    
     48900   0.21513435     0.0016442236   0.0016442236   0              0              1426.0238      2205.4746      646.42127      0              294.98517      0              0              9.1613413      9.56748        0.2            87.650949    
     49000   0.15843645     0.0017899868   0.0017899868   0              0              324.46351      1549.0701     -900.37094      0             -1279.8378      0              0              9.1603784      9.5751426      0.2            87.711929    
     49100   0.2275387      0.0013562773   0.0013562773   0              0              159.96155      1062.7914     -743.00229      0             -580.65401      0              0              9.1594155      9.5725576      0.2            87.679033    
     49200   0.21721032     0.001528269    0.001528269    0              0              722.24856      646.04614      798.22818      0             -522.51569      0              0              9.1584527      9.5625661      0.2            87.578309    
     49300   0.21917614     0.0017357105   0.0017357105   0              0              882.11243      1015.1143      748.94963      0             -424.02849      0              0              9.1574898      9.5618303      0.2            87.562363    
     49400   0.22850348     0.0017539217   0.0017539217   0              0             -215.24085      399.37548     -830.07315      0             -333.62896      0              0              9.1565269      9.5692732      0.2            87.621308    
     49500   0.17586671     0.0015644096   0.0015644096   0              0             -293.07289      125.84978     -712.16316      0              314.12865      0              0              9.1555641      9.5675385      0.2            87.596212    
     49600   0.21123453     0.0013675325   0.0013675325   0              0              1119.7952      1506.8396      732.55248      0             -126.00374      0              0              9.1546012      9.5644794      0.2            87.558995    
     49700   0.2699035      0.0014520596   0.0014520596   0              0              1146.6518      1580.3582      712.76988      0             -89.524217      0              0              9.1536383      9.5669431      0.2            87.572337    
     49800   0.18024725     0.0015076537   0.0015076537   0              0              322.17401      1166.8992     -522.70089      0             -52.688124      0              0              9.1526755      9.5723403      0.2            87.612524    
     49900   0.19316365     0.0016973358   0.0016973358   0              0              345.0972       1386.033      -696.00505      0             -239.21182      0              0              9.1517126      9.5701965      0.2            87.583688    
     50000   0.21824076     0.0019111372   0.0019111372   0              0              1149.8201      1827.7336      471.70689      0              367.31993      0              0              9.1507498      9.5666629      0.2            87.542138    
     50100   0.21178727     0.0015705232   0.0015705232   0              0              1148.5215      1624.1088      672.71739      0             -403.45471      0              0              9.1497869      9.5724345      0.2            87.585735    
     50200   0.19607553     0.0017099794   0.0017099794   0              0              153.99734      792.07187     -484.25404      0             -567.28539      0              0              9.148824       9.5722515      0.2            87.574845    
     50300   0.2045762      0.0014960522   0.0014960522   0              0             -133.41204      520.60621     -787.60189      0             -185.14198      0              0              9.1478612      9.5691904      0.2            87.537625    
     50366   0.16311525     0.0014911993   0.0014911993   0              0             -78.926063      436.61455     -594.68613      0             -264.12712      0              0              9.1472257      9.5638753      0.2            87.482926    
Loop time of 1.09555 on 1 procs for 50000 steps with 60 atoms

Performance: 39432.385 ns/day, 0.001 hours/ns, 45639.335 timesteps/s
99.6% CPU use with 1 MPI tasks x 1 OpenMP threads

MPI task timing breakdown:
Section |  min time  |  avg time  |  max time  |%varavg| %total
---------------------------------------------------------------
Pair    | 0          | 0          | 0          |   0.0 |  0.00
Bond    | 0.16471    | 0.16471    | 0.16471    |   0.0 | 15.03
Neigh   | 0          | 0          | 0          |   0.0 |  0.00
Comm    | 0.36309    | 0.36309    | 0.36309    |   0.0 | 33.14
Output  | 0.0070089  | 0.0070089  | 0.0070089  |   0.0 |  0.64
Modify  | 0.53407    | 0.53407    | 0.53407    |   0.0 | 48.75
Other   |            | 0.02666    |            |       |  2.43

Nlocal:             60 ave          60 max          60 min
Histogram: 1 0 0 0 0 0 0 0 0 0
Nghost:            505 ave         505 max         505 min
Histogram: 1 0 0 0 0 0 0 0 0 0
Neighs:              0 ave           0 max           0 min
Histogram: 1 0 0 0 0 0 0 0 0 0

Total # of neighbors = 0
Ave neighs/atom = 0
Ave special neighs/atom = 23.033333
Neighbor list builds = 0
Dangerous builds = 0


Total wall time: 0:00:01
