LAMMPS data file.

     60 atoms
    134 bonds
      0 angles
      0 dihedrals
      0 impropers
      1 atom types
    134 bond types
      0 angle types
      0 dihedral types
      0 improper types
  -4.814330   4.814330 xlo xhi
  -4.814330   4.814330 ylo yhi
  -0.100000   0.100000 zlo zhi

Masses # ['atom_id', 'mass']

1 10000.0

Atoms # ['atomID', 'moleculeID', 'atomType', 'charge', 'x', 'y', 'z']

     28      1      1   0.000000  -3.951813  -4.417787   0.000000
     45      1      1   0.000000   4.643412  -3.852572   0.000000
     44      1      1   0.000000  -1.482309  -3.591280   0.000000
     70      1      1   0.000000  -1.191729  -4.306255   0.000000
     52      1      1   0.000000  -0.361883  -4.247212   0.000000
     15      1      1   0.000000   0.923402  -4.153981   0.000000
     61      1      1   0.000000   3.791681  -4.273826   0.000000
     26      1      1   0.000000  -4.118769  -3.227470   0.000000
     21      1      1   0.000000  -2.481155  -3.335529   0.000000
     76      1      1   0.000000  -0.812367  -3.681215   0.000000
     48      1      1   0.000000  -1.397682  -2.700933   0.000000
     14      1      1   0.000000  -0.204329  -2.874692   0.000000
     17      1      1   0.000000   2.323537  -3.667485   0.000000
     40      1      1   0.000000   3.669314  -3.461656   0.000000
     11      1      1   0.000000  -2.455319  -2.021765   0.000000
     62      1      1   0.000000  -1.385253  -2.019872   0.000000
     57      1      1   0.000000  -0.628275  -1.819447   0.000000
     30      1      1   0.000000   0.484752  -1.793489   0.000000
     29      1      1   0.000000   1.220694  -2.827990   0.000000
     43      1      1   0.000000   2.118349  -2.343592   0.000000
     55      1      1   0.000000   2.975218  -2.672446   0.000000
     33      1      1   0.000000   2.896806  -1.629770   0.000000
      6      1      1   0.000000  -3.860960  -1.819519   0.000000
     46      1      1   0.000000  -3.052968  -0.941708   0.000000
      4      1      1   0.000000  -1.605085  -0.832926   0.000000
      8      1      1   0.000000  -0.214018  -0.651231   0.000000
     20      1      1   0.000000   1.522630  -0.991815   0.000000
     35      1      1   0.000000  -3.995578  -0.424094   0.000000
      1      1      1   0.000000  -2.515138   0.195520   0.000000
     22      1      1   0.000000  -1.267388   0.563101   0.000000
     10      1      1   0.000000   0.946749   0.542136   0.000000
     75      1      1   0.000000   1.835660  -0.077512   0.000000
     27      1      1   0.000000   2.711929  -0.366158   0.000000
     53      1      1   0.000000   3.739783   0.138745   0.000000
     58      1      1   0.000000   4.596425   0.427105   0.000000
     47      1      1   0.000000  -3.612037   0.643698   0.000000
     34      1      1   0.000000  -2.237933   1.388537   0.000000
     51      1      1   0.000000  -1.259823   1.681649   0.000000
     59      1      1   0.000000  -0.257454   0.515396   0.000000
     50      1      1   0.000000   3.050424   0.678671   0.000000
     63      1      1   0.000000   4.109824   1.018364   0.000000
     32      1      1   0.000000  -4.785180   1.488752   0.000000
     12      1      1   0.000000  -3.491575   1.852080   0.000000
     36      1      1   0.000000  -3.042462   3.047091   0.000000
     31      1      1   0.000000  -1.873580   2.553414   0.000000
     65      1      1   0.000000  -0.811431   2.290288   0.000000
     16      1      1   0.000000  -0.075296   1.542487   0.000000
      7      1      1   0.000000   3.447506   1.764996   0.000000
     77      1      1   0.000000   4.406604   2.345667   0.000000
      2      1      1   0.000000  -4.417436   3.070845   0.000000
     37      1      1   0.000000  -3.285485   4.248365   0.000000
     23      1      1   0.000000  -0.919084   3.245780   0.000000
      9      1      1   0.000000   3.772982   3.187013   0.000000
     66      1      1   0.000000  -4.127853   4.236302   0.000000
      3      1      1   0.000000  -2.301955  -4.492584   0.000000
     38      1      1   0.000000  -1.179990   4.410973   0.000000
      5      1      1   0.000000   0.174766   4.156989   0.000000
     60      1      1   0.000000   1.873920  -4.744535   0.000000
     19      1      1   0.000000   3.063397   4.541455   0.000000
     13      1      1   0.000000   4.528141   4.553818   0.000000

Bond Coeffs # ['bondID', 'bondCoeff', 'd']

      1   0.896429   1.056190
      2   0.427712   1.529060
      3   0.959128   1.021085
      4   0.671280   1.220529
      5   0.864724   1.075378
      6   0.455154   1.482248
      7   0.703002   1.192674
      8   1.630828   0.783062
      9   1.250189   0.894360
     10   0.539525   1.361426
     11   0.650899   1.239491
     12   0.701387   1.194046
     13   0.712224   1.184927
     14   1.203593   0.911507
     15   0.493386   1.423661
     16   0.666608   1.224799
     17   1.203593   0.911507
     18   0.520558   1.386007
     19   0.692171   1.201969
     20   0.526351   1.378359
     21   0.773233   1.137221
     22   0.729705   1.170648
     23   0.907703   1.049610
     24   0.466064   1.464796
     25   0.435396   1.515507
     26   0.729705   1.170648
     27   0.435396   1.515507
     28   0.806775   1.113329
     29   0.553887   1.343660
     30   0.621118   1.268858
     31   1.304229   0.875635
     32   0.762537   1.145169
     33   0.613161   1.277065
     34   0.852299   1.083188
     35   0.852299   1.083188
     36   0.980209   1.010045
     37   0.410102   1.561544
     38   0.838938   1.091780
     39   0.838938   1.091780
     40   0.776829   1.134585
     41   0.747509   1.156623
     42   0.729454   1.170850
     43   1.749790   0.755974
     44   0.795514   1.121182
     45   0.663469   1.227693
     46   0.632965   1.256927
     47   0.663469   1.227693
     48   1.678906   0.771768
     49   0.798570   1.119035
     50   1.187128   0.917807
     51   1.444815   0.831944
     52   1.003889   0.998061
     53   0.873329   1.070067
     54   0.602174   1.288662
     55   0.687625   1.205936
     56   0.702542   1.193064
     57   0.571022   1.323346
     58   0.908181   1.049334
     59   0.488932   1.430131
     60   0.571022   1.323346
     61   0.841658   1.090014
     62   0.613590   1.276617
     63   0.841658   1.090014
     64   0.579158   1.314018
     65   0.569684   1.324900
     66   0.616028   1.274089
     67   0.581439   1.311439
     68   0.789067   1.125753
     69   0.978242   1.011060
     70   0.495852   1.420116
     71   0.689266   1.204499
     72   0.569684   1.324900
     73   0.620423   1.269568
     74   0.914644   1.045620
     75   1.019598   0.990343
     76   1.019598   0.990343
     77   0.656294   1.234385
     78   0.919036   1.043119
     79   1.482373   0.821337
     80   0.591018   1.300768
     81   0.426875   1.530558
     82   1.070735   0.966404
     83   0.733726   1.167436
     84   0.557715   1.339041
     85   0.553747   1.343830
     86   0.560356   1.335882
     87   0.560356   1.335882
     88   0.508109   1.402883
     89   0.484748   1.436290
     90   0.488093   1.431360
     91   1.174862   0.922585
     92   0.468113   1.461586
     93   0.879760   1.066149
     94   0.541525   1.358910
     95   1.224011   0.903873
     96   0.799229   1.118573
     97   1.910994   0.723386
     98   0.559757   1.336596
     99   0.469910   1.458790
    100   0.844595   1.088117
    101   0.844595   1.088117
    102   0.530252   1.373279
    103   0.955205   1.023179
    104   0.955205   1.023179
    105   0.508820   1.401903
    106   1.316631   0.871501
    107   1.705417   0.765746
    108   0.719200   1.179166
    109   1.316631   0.871501
    110   0.665726   1.225610
    111   0.631892   1.257994
    112   0.734111   1.167130
    113   1.408986   0.842455
    114   0.678105   1.214372
    115   0.851697   1.083571
    116   0.706819   1.189449
    117   1.081602   0.961537
    118   0.608334   1.282120
    119   0.673778   1.218265
    120   0.901437   1.053252
    121   1.080889   0.961855
    122   1.080889   0.961855
    123   0.940643   1.031069
    124   0.905287   1.051010
    125   0.491915   1.425788
    126   0.528788   1.375179
    127   0.652623   1.237852
    128   0.652623   1.237852
    129   0.829018   1.098293
    130   0.876011   1.068428
    131   2.155177   0.681175
    132   0.876011   1.068428
    133   0.961145   1.020013
    134   2.188616   0.675951

Bonds # ['ID', 'type', 'atom1', 'atom2']

         1         1        43        33
         2         2         9        19
         3         3        34        51
         4         4        34        31
         5         5        46        35
         6         6        15        17
         7         7        51        16
         8         8        62        57
         9         9        44        48
        10        10        17        40
        11        11        57         8
        12        12        23        38
        13        13         1        47
        14        14        70        38
        15        15        23         5
        16        16         1        34
        17        17        38        70
        18        18        17        29
        19        19        28        26
        20        20        38         5
        21        21        14        57
        22        22        37        28
        23        23        45        40
        24        24        19        13
        25        25        15         5
        26        26        28        37
        27        27         5        15
        28        28        57        30
        29        29        32        12
        30        30        36        31
        31        31        53        50
        32        32        27        53
        33        33        33        27
        34        34         2        77
        35        35        77         2
        36        36        76        14
        37        37         9        13
        38        38        61        19
        39        39        19        61
        40        40        35        47
        41        41        50         7
        42        42        21         3
        43        43        51        65
        44        44         7        77
        45        45        45        13
        46        46        48        11
        47        47        13        45
        48        48        44        70
        49        49        15        60
        50        50        43        55
        51        51        70        52
        52        52        63         7
        53        53        11        62
        54        54        52        15
        55        55        48        14
        56        56         6        46
        57        57        28        13
        58        58        65        16
        59        59        10        16
        60        60        13        28
        61        61        58        32
        62        62        12        36
        63        63        32        58
        64        64        21        11
        65        65        37         3
        66        66        22        34
        67        67        30        20
        68        68        70         3
        69        69        22        59
        70        70        11         6
        71        71        10        59
        72        72         3        37
        73        73        30        29
        74        74        55        33
        75        75        66        28
        76        76        28        66
        77        77        11        46
        78        78        59        16
        79        79        61        40
        80        80         1        22
        81        81        12         2
        82        82        20        75
        83        83         8        59
        84        84        30         8
        85        85        20        27
        86        86         3        38
        87        87        38         3
        88        88         4         8
        89        89         4        22
        90        90        26         6
        91        91        75        27
        92        92        11         4
        93        93        51        31
        94        94        15        29
        95        95        53        58
        96        96        22        51
        97        97        52        76
        98        98        34        12
        99        99         7         9
       100       100        61        13
       101       101        13        61
       102       102         4         1
       103       103        66        13
       104       104        13        66
       105       105         6        35
       106       106        63        32
       107       107        58        63
       108       108        31        23
       109       109        32        63
       110       110        36        37
       111       111        46         1
       112       112        17        60
       113       113        37        66
       114       114        47        12
       115       115        10        75
       116       116        17        55
       117       117        65        23
       118       118        14        30
       119       119        44         3
       120       120        77         9
       121       121        32        77
       122       122        77        32
       123       123        44        21
       124       124        40        55
       125       125        14        29
       126       126        36         2
       127       127        60        19
       128       128        19        60
       129       129        27        50
       130       130        26        45
       131       131        48        62
       132       132        45        26
       133       133        29        43
       134       134        44        76
