LAMMPS data file via write_data, version 23 Jun 2022, timestep = 10000

80 atoms
4 atom types

-4.817615631843045 4.817615631843045 xlo xhi
-4.817615631843045 4.817615631843045 ylo yhi
-0.1 0.1 zlo zhi

Atoms # sphere

23 2 1.3 0.4551661356395083 -3.0384863074458472 -4.381136121544317 0 0 0 0
77 4 0.7 2.915451895043732 -3.8095856993216994 -4.012510013162714 0 0 1 0
67 4 0.7 2.915451895043732 -2.2054973579521313 -3.5819430108922417 0 0 0 0
52 3 1 1 -2.0875777943277662 4.788216612395551 0 0 0 0
63 4 0.7 2.915451895043732 -1.665004123119668 -4.06756257270061 0 0 1 0
22 2 1.3 0.4551661356395083 -0.8391796730122003 -4.620975544837799 0 0 1 0
21 2 1.3 0.4551661356395083 1.1475861858608836 -4.020232204584293 0 -1 0 0
79 4 0.7 2.915451895043732 2.8539152013160205 -4.164274870998519 0 -1 0 0
80 4 0.7 2.915451895043732 4.164866779439304 -4.183721388853617 0 -1 1 0
69 4 0.7 2.915451895043732 3.7094307143574134 -3.981944795759136 0 0 1 0
13 1 1.6 0.2441406249999999 -4.649927392332564 -3.4138228180039727 0 1 0 0
8 1 1.6 0.2441406249999999 -3.2269808545500114 -3.036031709964205 0 0 1 0
32 2 1.3 0.4551661356395083 -1.4530141641934722 -2.986455963307888 0 0 1 0
58 3 1 1 -0.5904884264116177 -3.4761882110577416 0 0 0 0
57 3 1 1 0.10420520655060983 -3.9832293615967425 0 0 0 0
74 4 0.7 2.915451895043732 1.5064103502364539 -3.0142257358357085 0 0 0 0
29 2 1.3 0.4551661356395083 0.48159221190853696 -3.039689266046522 0 0 0 0
17 1 1.6 0.2441406249999999 2.3563079833970493 -3.3760296729615114 0 0 0 0
10 1 1.6 0.2441406249999999 3.667541654305211 -2.876103539225512 0 -1 0 0
14 1 1.6 0.2441406249999999 -4.39426319678307 -1.9871425718150149 0 0 0 0
46 3 1 1 -2.5117143120894743 -2.1559156707976523 0 0 0 0
43 3 1 1 -1.9932068796305478 -1.4124490033853538 0 0 1 0
68 4 0.7 2.915451895043732 -1.6885157287247186 -2.228275738367002 0 0 0 0
33 2 1.3 0.4551661356395083 -0.568327976858706 -2.2472457972801427 0 0 0 0
38 2 1.3 0.4551661356395083 0.5269558285413485 -1.7013931848326322 0 0 0 0
61 4 0.7 2.915451895043732 1.2126235979109339 -2.2875900094011756 0 0 0 0
27 2 1.3 0.4551661356395083 2.0591787148891676 -2.1265483420408517 0 0 0 0
41 3 1 1 4.200269401797449 -1.7307077427070574 0 0 0 0
5 1 1.6 0.2441406249999999 -3.121388750619963 -1.1798081277137684 0 0 0 0
51 3 1 1 -1.2483369931968187 -1.354254121038196 0 -1 1 0
37 2 1.3 0.4551661356395083 -0.33746910277556363 -0.9316699115417992 0 0 0 0
28 2 1.3 0.4551661356395083 1.6911947101718425 -1.040905816927875 0 0 0 0
39 2 1.3 0.4551661356395083 3.105774348979356 -1.6474697861277021 0 0 0 0
73 4 0.7 2.915451895043732 3.909793454319111 -1.091055273448911 0 0 0 0
47 3 1 1 4.60921605462765 -0.9806148799258212 0 -1 1 0
7 1 1.6 0.2441406249999999 -4.232529164707865 -0.1211127859308565 0 0 0 0
24 2 1.3 0.4551661356395083 -3.010176021344079 0.1527609607345628 0 0 0 0
9 1 1.6 0.2441406249999999 -1.8602151276092616 -0.2342921931702966 0 0 0 0
70 4 0.7 2.915451895043732 -0.8354121440595597 -0.17078338686963068 0 0 -1 0
75 4 0.7 2.915451895043732 0.9973330130281743 0.357972197331371 0 0 0 0
50 3 1 1 0.5842269711496941 -0.41238468618092483 0 0 0 0
56 3 1 1 1.5197727256234757 0.0017026919727118894 0 0 0 0
15 1 1.6 0.2441406249999999 2.810488578256572 -0.4009683677783995 0 -1 0 0
66 4 0.7 2.915451895043732 3.837363273976525 -0.1455283453491516 0 0 0 0
62 4 0.7 2.915451895043732 4.299820391517915 0.3712176957710849 0 -1 -1 0
6 1 1.6 0.2441406249999999 -4.775210705703829 1.1918908570692475 0 1 0 0
71 4 0.7 2.915451895043732 -2.2632636506115515 0.6784724423905484 0 0 0 0
53 3 1 1 -2.324876793124164 1.4013938108421167 0 0 0 0
59 3 1 1 -1.2078558609817356 0.8138113278650074 0 0 0 0
3 1 1.6 0.2441406249999999 -0.024133130887277865 0.5012350361233322 0 0 0 0
72 4 0.7 2.915451895043732 0.684208343600968 1.1711232144306285 0 0 0 0
36 2 1.3 0.4551661356395083 1.4963024055240783 1.60640765712684 0 0 0 0
60 3 1 1 2.249078755808144 0.6850198601884774 0 0 0 0
55 3 1 1 2.5328653256802047 1.748066737400924 0 0 0 0
12 1 1.6 0.2441406249999999 3.453440775213055 1.074368106595685 0 0 0 0
30 2 1.3 0.4551661356395083 -3.405732506316488 1.3294394363236757 0 1 0 0
45 3 1 1 -1.5914579395358235 1.8042201343652238 0 0 0 0
4 1 1.6 0.2441406249999999 -2.5275669302189723 2.5930519014418216 0 1 0 0
44 3 1 1 -0.76716903184915 1.5790570506674353 0 0 0 0
11 1 1.6 0.2441406249999999 0.23774176410275327 2.0330120199046684 0 0 0 0
76 4 0.7 2.915451895043732 2.0170893630806006 2.5351902945297757 0 -1 -1 0
48 3 1 1 3.2333041415071015 2.349420863098251 0 0 0 0
25 2 1.3 0.4551661356395083 4.323356776009124 2.45071393585793 0 0 0 0
19 1 1.6 0.2441406249999999 -4.0282557878674385 2.5420864433805583 0 0 0 0
20 1 1.6 0.2441406249999999 -3.286058138896254 3.8745606896823883 0 0 -1 0
16 1 1.6 0.2441406249999999 -0.9779677201963191 2.847252436333335 0 0 -1 0
40 2 1.3 0.4551661356395083 0.34258836946194116 3.4044827303606855 0 0 0 0
42 3 1 1 1.2651011584918006 2.768786280440528 0 -1 -1 0
78 4 0.7 2.915451895043732 2.6391471102718054 2.915173631562837 0 -1 -1 0
31 2 1.3 0.4551661356395083 3.355783581822406 3.3566526320759493 0 0 -1 0
1 1 1.6 0.2441406249999999 -4.492597965984501 4.726551521281635 0 0 -1 0
35 2 1.3 0.4551661356395083 -1.8931379884897748 3.7118577910425774 0 0 0 0
65 4 0.7 2.915451895043732 -1.0310095147658052 4.0989294125467755 0 0 0 0
49 3 1 1 -0.3328767264393324 4.0196496909827495 0 0 0 0
26 2 1.3 0.4551661356395083 0.5158419310108 4.644188576910345 0 0 0 0
2 1 1.6 0.2441406249999999 1.8060867481595233 3.882335994501304 0 0 0 0
54 3 1 1 2.1550599896336395 -4.5734221906492705 0 0 0 0
18 1 1.6 0.2441406249999999 3.707506377641094 4.554510782369853 0 -1 0 0
64 4 0.7 2.915451895043732 2.695199101041564 4.655714825684067 0 0 -1 0
34 2 1.3 0.4551661356395083 4.604003320347752 3.41641733423287 0 0 -1 0

Velocities

23 0.0049637871204468295 -0.032693131701520474 0 0 0 0
77 0.17881051362373787 -0.12234069781092766 0 0 0 0
67 0.15286186059522588 -0.11834336705919728 0 0 0 0
52 0.04267207680264675 -0.19335146592576274 0 0 0 0
63 -0.14050268708506125 0.2755205838096229 0 0 0 0
22 -0.04466050432718246 -0.24609233957936444 0 0 0 0
21 -0.09625602872787513 0.012848049106525839 0 0 0 0
79 -0.23224625147793504 -0.044755295443923836 0 0 0 0
80 -0.10982154398176218 0.010785552848741919 0 0 0 0
69 0.021035551736250168 -0.32016855338942773 0 0 0 0
13 0.03184978005755488 0.04192853269081449 0 0 0 0
8 -0.13929394868574216 0.14664437629861218 0 0 0 0
32 0.025921021921515797 -0.10484768710619412 0 0 0 0
58 0.031985637891145835 0.09529009141397836 0 0 0 0
57 -0.06570851831074064 0.09729577114072807 0 0 0 0
74 0.022018260595480513 -0.12801234051334434 0 0 0 0
29 -0.0022847101871736153 -0.06835793984352237 0 0 0 0
17 0.07684053302403344 0.0114560218285414 0 0 0 0
10 -0.16195545029863093 0.1538976230793853 0 0 0 0
14 0.07791053496507473 0.07149706758054722 0 0 0 0
46 0.19579139289458974 -0.03698004411497906 0 0 0 0
43 -0.025086803148403777 0.083518532690123 0 0 0 0
68 0.196363880282664 0.009278112084636681 0 0 0 0
33 -0.16389677891404872 0.11093423108887304 0 0 0 0
38 0.09688166113251419 0.08849853922268774 0 0 0 0
61 -0.04527565706966605 0.09883929458508557 0 0 0 0
27 0.01910841035152621 0.11343748779846322 0 0 0 0
41 -0.014112998519751499 0.10096582367776552 0 0 0 0
5 -0.03224375017368096 0.05497983945855842 0 0 0 0
51 0.04840361119658536 0.08431698827819901 0 0 0 0
37 -0.11737309528050818 -0.11496596118354364 0 0 0 0
28 -0.08489826555971514 0.03335782013933237 0 0 0 0
39 -0.02030731303094233 -0.0011792322730293995 0 0 0 0
73 -0.10595679510056034 0.030094419397045206 0 0 0 0
47 -0.051222325245654635 -0.08923175401697028 0 0 0 0
7 0.1760381980611636 -0.07373307166574382 0 0 0 0
24 0.11348894005302113 0.10358285174097781 0 0 0 0
9 0.040268934280466157 -0.21740834718873603 0 0 0 0
70 0.04434239571821718 -0.02695236928698215 0 0 0 0
75 0.108958782029987 0.017941490687818605 0 0 0 0
50 -0.07821321519933154 0.06869725130812952 0 0 0 0
56 -0.06883388229527916 -0.13643410746033313 0 0 0 0
15 0.11649535726993479 0.05698011892086587 0 0 0 0
66 0.06850634836598384 0.041540593282387406 0 0 0 0
62 0.005331825534330199 0.011093561050408858 0 0 0 0
6 0.04441710506812543 0.09816820556043071 0 0 0 0
71 0.12177904557160263 0.20156325070461245 0 0 0 0
53 -0.06713791115780894 -0.04306239831441016 0 0 0 0
59 -0.1317613757067691 -0.0067843344799252345 0 0 0 0
3 0.024869323241950656 -0.0794496321066272 0 0 0 0
72 -0.00537420089789105 0.04488736078614982 0 0 0 0
36 -0.12428566341852629 -0.04499434867114809 0 0 0 0
60 0.05361055042669669 -0.013098529706127106 0 0 0 0
55 -0.11951448946512927 -0.05535000133779155 0 0 0 0
12 -0.1535053228337755 -0.04679376095329305 0 0 0 0
30 -0.17398123728305115 -0.03794656758658738 0 0 0 0
45 0.18128877536672036 -0.032791265862348824 0 0 0 0
4 -0.19010432729129376 0.06242655459116766 0 0 0 0
44 0.11329617067897062 0.01438384773971576 0 0 0 0
11 -0.03282297033056588 -0.2745869492480525 0 0 0 0
76 0.15773226528817524 -0.11883835895452703 0 0 0 0
48 0.05248480402197359 -0.022260308348095923 0 0 0 0
25 0.12779694977972025 0.15910750501792145 0 0 0 0
19 -0.06457654990249273 -0.13443375795692677 0 0 0 0
20 -0.08084416697589303 0.10809948654269817 0 0 0 0
16 -0.07009683083619381 0.06637832568058236 0 0 0 0
40 -0.052332596854577786 -0.10001510393001828 0 0 0 0
42 -0.058517416969730424 -0.08112142696697608 0 0 0 0
78 0.012118323242312514 -0.12493842517893446 0 0 0 0
31 -0.12653025469094364 -0.09475417816336254 0 0 0 0
1 0.07340917469498211 0.1508460593165518 0 0 0 0
35 -0.044042753849539096 0.08360836235272193 0 0 0 0
65 -0.046964768312905684 0.1192390647707273 0 0 0 0
49 0.004373367709782224 -0.015621671955990133 0 0 0 0
26 -0.048028883168477844 -0.08095715738948171 0 0 0 0
2 0.25410610226911257 -0.005756956172339847 0 0 0 0
54 -0.01455012200975745 0.06393531889608416 0 0 0 0
18 0.09246330845575583 0.12134939182278791 0 0 0 0
64 0.05921229184218318 0.03766437049404022 0 0 0 0
34 0.13531551141281237 0.13252510936141898 0 0 0 0
