LAMMPS data file.

     32 atoms
     76 bonds
      0 angles
      0 dihedrals
      0 impropers
      1 atom types
     76 bond types
      0 angle types
      0 dihedral types
      0 improper types
  -4.817616   4.817616 xlo xhi
  -4.817616   4.817616 ylo yhi
  -0.100000   0.100000 zlo zhi

Masses # ['atom_id', 'mass']

1 10000.0

Atoms # ['atomID', 'moleculeID', 'atomType', 'charge', 'x', 'y', 'z']

     23      1      1   0.000000  -3.038486  -4.381136   0.000000
     77      1      1   0.000000  -3.809586  -4.012510   0.000000
     80      1      1   0.000000   4.164867  -4.183721   0.000000
     69      1      1   0.000000   3.709431  -3.981945   0.000000
     13      1      1   0.000000  -4.649927  -3.413823   0.000000
      8      1      1   0.000000  -3.226981  -3.036032   0.000000
     10      1      1   0.000000   3.667542  -2.876104   0.000000
     14      1      1   0.000000  -4.394263  -1.987143   0.000000
     46      1      1   0.000000  -2.511714  -2.155916   0.000000
     43      1      1   0.000000  -1.993207  -1.412449   0.000000
     41      1      1   0.000000   4.200269  -1.730708   0.000000
      5      1      1   0.000000  -3.121389  -1.179808   0.000000
     39      1      1   0.000000   3.105774  -1.647470   0.000000
     73      1      1   0.000000   3.909793  -1.091055   0.000000
     47      1      1   0.000000   4.609216  -0.980615   0.000000
      7      1      1   0.000000  -4.232529  -0.121113   0.000000
     24      1      1   0.000000  -3.010176   0.152761   0.000000
      9      1      1   0.000000  -1.860215  -0.234292   0.000000
      6      1      1   0.000000  -4.775211   1.191891   0.000000
     71      1      1   0.000000  -2.263264   0.678472   0.000000
     53      1      1   0.000000  -2.324877   1.401394   0.000000
     30      1      1   0.000000  -3.405733   1.329439   0.000000
     45      1      1   0.000000  -1.591458   1.804220   0.000000
      4      1      1   0.000000  -2.527567   2.593052   0.000000
     25      1      1   0.000000   4.323357   2.450714   0.000000
     19      1      1   0.000000  -4.028256   2.542086   0.000000
     20      1      1   0.000000  -3.286058   3.874561   0.000000
     16      1      1   0.000000  -0.977968   2.847252   0.000000
      1      1      1   0.000000  -4.492598   4.726552   0.000000
     35      1      1   0.000000  -1.893138   3.711858   0.000000
     18      1      1   0.000000   3.707506   4.554511   0.000000
     34      1      1   0.000000   4.604003   3.416417   0.000000

Bond Coeffs # ['bondID', 'bondCoeff', 'd']

      1   0.773432   1.137074
      2   0.604512   1.286167
      3   0.419997   1.543039
      4   0.538199   1.363102
      5   0.476426   1.448780
      6   0.461360   1.472244
      7   0.406056   1.569304
      8   1.899655   0.725542
      9   0.476014   1.449407
     10   1.045977   0.977775
     11   0.509059   1.401573
     12   0.509059   1.401573
     13   0.708111   1.188364
     14   0.547908   1.350971
     15   0.777478   1.134112
     16   0.478655   1.445402
     17   0.684401   1.208773
     18   0.508466   1.402390
     19   0.787634   1.126777
     20   0.787634   1.126777
     21   0.648914   1.241385
     22   0.498362   1.416536
     23   0.630883   1.258999
     24   0.498362   1.416536
     25   0.755008   1.150864
     26   1.217148   0.906417
     27   0.986402   1.006869
     28   0.986402   1.006869
     29   2.026213   0.702518
     30   0.667309   1.224155
     31   0.626672   1.263222
     32   0.527874   1.376368
     33   0.402486   1.576248
     34   0.829980   1.097656
     35   0.939319   1.031795
     36   1.994459   0.708088
     37   0.443525   1.501554
     38   0.450943   1.489152
     39   0.816567   1.106634
     40   0.564842   1.330567
     41   0.405535   1.570311
     42   0.564842   1.330567
     43   0.458374   1.477033
     44   0.789976   1.125105
     45   0.789976   1.125105
     46   0.730800   1.169771
     47   0.730800   1.169771
     48   4.030051   0.498132
     49   1.428220   0.836763
     50   0.852205   1.083248
     51   1.004432   0.997791
     52   0.682926   1.210077
     53   0.559250   1.337202
     54   0.534004   1.368446
     55   0.870464   1.071827
     56   0.870464   1.071827
     57   1.198681   0.913373
     58   0.988782   1.005657
     59   0.637286   1.252659
     60   0.711369   1.185639
     61   0.429859   1.525236
     62   0.442605   1.503113
     63   0.495422   1.420733
     64   0.424544   1.534754
     65   0.679246   1.213351
     66   0.828287   1.098777
     67   0.828287   1.098777
     68   0.753627   1.151918
     69   0.603855   1.286867
     70   0.542054   1.358247
     71   0.603855   1.286867
     72   1.368964   0.854681
     73   0.440141   1.507315
     74   1.370094   0.854328
     75   0.534004   1.368446
     76   0.708111   1.188364

Bonds # ['ID', 'type', 'atom1', 'atom2']

         1         1        77         8
         2         2         4        35
         3         3         6        19
         4         4        30        19
         5         5        18        34
         6         6        13         8
         7         7         8        14
         8         8        71        53
         9         9        13        14
        10        10        39        73
        11        11        23        20
        12        12        20        23
        13        13        14        47
        14        14        10        39
        15        15         8        46
        16        16        18         1
        17        17        53         4
        18        18        20        35
        19        19        77         1
        20        20         1        77
        21        21        24        30
        22        22         1        34
        23        23        16        35
        24        24        34         1
        25        25        46         5
        26        26        46        43
        27        27        80        18
        28        28        18        80
        29        29        41        73
        30        30        45         4
        31        31        10        41
        32        32         6        30
        33        33         5         9
        34        34        41        39
        35        35        77        13
        36        36        73        47
        37        37         4        19
        38        38         4        20
        39        39        69        10
        40        40        19        34
        41        41         4        16
        42        42        34        19
        43        43        20         1
        44        44        13        80
        45        45        80        13
        46        46        47         7
        47        47         7        47
        48        48        80        69
        49        49        53        45
        50        50        53        30
        51        51         9        71
        52        52        45        16
        53        53         5        24
        54        54        25         6
        55        55        41        14
        56        56        14        41
        57        57        24        71
        58        58        25        34
        59        59         7        24
        60        60        43         9
        61        61        19        20
        62        62        13         1
        63        63         7         6
        64        64         5         7
        65        65        24         9
        66        66        69        18
        67        67        18        69
        68        68        43         5
        69        69        25        19
        70        70        23         8
        71        71        19        25
        72        72        23        77
        73        73        14         5
        74        74        41        47
        75        75         6        25
        76        76        47        14
