ITEM: TIMESTEP
0
ITEM: NUMBER OF ATOMS
80
ITEM: BOX BOUNDS pp pp pp
-1.0000000000000000e+01 1.0000000000000000e+01
-1.0000000000000000e+01 1.0000000000000000e+01
-1.0000000000000001e-01 1.0000000000000001e-01
ITEM: ATOMS id type xs ys zs
9 1 0.00226396 0.0504299 0.5
62 4 0.083895 0.0240197 0.5
1 1 0.142144 0.0174441 0.5
70 4 0.713098 0.0362491 0.5
27 2 0.983758 0.0123349 0.5
76 4 0.079613 0.0554438 0.5
23 2 0.301189 0.0879906 0.5
16 1 0.330282 0.0554994 0.5
39 2 0.403705 0.0654371 0.5
38 2 0.61695 0.0770846 0.5
31 2 0.7535 0.075893 0.5
34 2 0.88541 0.0932824 0.5
21 2 0.0291629 0.140681 0.5
14 1 0.0603387 0.112762 0.5
20 1 0.263468 0.111892 0.5
37 2 0.171666 0.182426 0.5
42 3 0.176127 0.159427 0.5
53 3 0.217956 0.181908 0.5
79 4 0.325769 0.200967 0.5
57 3 0.434532 0.187494 0.5
10 1 0.0899755 0.218989 0.5
24 2 0.169348 0.226908 0.5
5 1 0.294474 0.219091 0.5
74 4 0.673781 0.241664 0.5
54 3 0.703234 0.261609 0.5
13 1 0.983713 0.262897 0.5
29 2 0.320242 0.311175 0.5
36 2 0.719896 0.289454 0.5
61 4 0.930164 0.26335 0.5
46 3 0.0200718 0.346467 0.5
7 1 0.270028 0.367982 0.5
12 1 0.56901 0.354115 0.5
64 4 0.779755 0.340625 0.5
78 4 0.0811194 0.374398 0.5
15 1 0.226478 0.412816 0.5
58 3 0.298589 0.383752 0.5
30 2 0.395512 0.377829 0.5
63 4 0.741085 0.417806 0.5
4 1 0.962955 0.385692 0.5
67 4 0.224934 0.470789 0.5
41 3 0.565685 0.46573 0.5
73 4 0.898877 0.432202 0.5
51 3 0.0680964 0.495385 0.5
75 4 0.365831 0.519206 0.5
50 3 0.442585 0.521823 0.5
17 1 0.480544 0.49628 0.5
72 4 0.249094 0.529545 0.5
28 2 0.314781 0.532094 0.5
56 3 0.0769674 0.591923 0.5
80 4 0.222503 0.612555 0.5
45 3 0.318356 0.604158 0.5
35 2 0.776083 0.621783 0.5
66 4 0.942559 0.590429 0.5
11 1 0.0271104 0.644182 0.5
19 1 0.260645 0.661375 0.5
3 1 0.582595 0.666383 0.5
65 4 0.35799 0.733604 0.5
6 1 0.609489 0.687309 0.5
68 4 0.146829 0.756463 0.5
33 2 0.42356 0.77726 0.5
44 3 0.137728 0.793958 0.5
43 3 0.628239 0.814768 0.5
55 3 0.741288 0.822949 0.5
25 2 0.793884 0.80494 0.5
59 3 0.0165919 0.859367 0.5
52 3 0.286659 0.879231 0.5
40 2 0.464917 0.861093 0.5
49 3 0.758903 0.884762 0.5
8 1 0.0280801 0.941689 0.5
47 3 0.088174 0.939956 0.5
18 1 0.113042 0.90496 0.5
32 2 0.492291 0.936073 0.5
22 2 0.548993 0.924147 0.5
60 3 0.555774 0.894781 0.5
69 4 0.560418 0.942137 0.5
26 2 0.622532 0.899568 0.5
2 1 0.404829 0.96579 0.5
71 4 0.409233 0.983443 0.5
77 4 0.393226 0.956233 0.5
48 3 0.887547 0.998591 0.5
ITEM: TIMESTEP
10
ITEM: NUMBER OF ATOMS
80
ITEM: BOX BOUNDS pp pp pp
-9.2430366722004837e+00 9.2430366722004837e+00
-9.2430366722004837e+00 9.2430366722004837e+00
-1.0000000000000001e-01 1.0000000000000001e-01
ITEM: ATOMS id type xs ys zs
9 1 0.00231341 0.0505317 0.5
62 4 0.0838959 0.0240062 0.5
1 1 0.142145 0.0174439 0.5
70 4 0.713098 0.0362491 0.5
27 2 0.983708 0.0122331 0.5
76 4 0.0796112 0.0554573 0.5
23 2 0.301205 0.0880155 0.5
16 1 0.330354 0.0554182 0.5
39 2 0.403706 0.0654372 0.5
38 2 0.61695 0.0770846 0.5
31 2 0.7535 0.075893 0.5
34 2 0.88541 0.0932824 0.5
21 2 0.0290772 0.140758 0.5
14 1 0.0604244 0.112685 0.5
20 1 0.26338 0.111948 0.5
37 2 0.171602 0.182474 0.5
42 3 0.17614 0.159297 0.5
53 3 0.21801 0.181913 0.5
79 4 0.325839 0.200926 0.5
57 3 0.434532 0.187494 0.5
10 1 0.0899755 0.218989 0.5
24 2 0.169344 0.226986 0.5
5 1 0.294404 0.219131 0.5
74 4 0.673759 0.241649 0.5
54 3 0.703209 0.261544 0.5
13 1 0.98373 0.262897 0.5
29 2 0.320242 0.311175 0.5
36 2 0.719944 0.289534 0.5
61 4 0.930146 0.26335 0.5
46 3 0.0200718 0.346467 0.5
7 1 0.26997 0.367875 0.5
12 1 0.56901 0.354115 0.5
64 4 0.779755 0.340625 0.5
78 4 0.0811194 0.374398 0.5
15 1 0.226431 0.412862 0.5
58 3 0.298695 0.383811 0.5
30 2 0.395512 0.377829 0.5
63 4 0.741085 0.417806 0.5
4 1 0.962955 0.385692 0.5
67 4 0.224934 0.470791 0.5
41 3 0.565685 0.46573 0.5
73 4 0.898877 0.432202 0.5
51 3 0.0680964 0.495385 0.5
75 4 0.365831 0.519206 0.5
50 3 0.442524 0.521863 0.5
17 1 0.480604 0.496239 0.5
72 4 0.249094 0.529545 0.5
28 2 0.314781 0.532094 0.5
56 3 0.0769674 0.591923 0.5
80 4 0.222503 0.612555 0.5
45 3 0.318356 0.604158 0.5
35 2 0.776083 0.621783 0.5
66 4 0.942559 0.590429 0.5
11 1 0.0271104 0.644182 0.5
19 1 0.260645 0.661375 0.5
3 1 0.58246 0.666278 0.5
65 4 0.35799 0.733604 0.5
6 1 0.609624 0.687414 0.5
68 4 0.146833 0.756447 0.5
33 2 0.42356 0.77726 0.5
44 3 0.137724 0.793974 0.5
43 3 0.628239 0.814768 0.5
55 3 0.741278 0.822953 0.5
25 2 0.793893 0.804936 0.5
59 3 0.0165919 0.859367 0.5
52 3 0.286659 0.879231 0.5
40 2 0.464917 0.861093 0.5
49 3 0.758903 0.884762 0.5
8 1 0.0280589 0.941689 0.5
47 3 0.0881467 0.940023 0.5
18 1 0.113091 0.904892 0.5
32 2 0.492263 0.936079 0.5
22 2 0.548941 0.924151 0.5
60 3 0.555797 0.894681 0.5
69 4 0.560475 0.942227 0.5
26 2 0.622532 0.899568 0.5
2 1 0.404916 0.965749 0.5
71 4 0.409276 0.983596 0.5
77 4 0.393098 0.956121 0.5
48 3 0.887547 0.998591 0.5
ITEM: TIMESTEP
20
ITEM: NUMBER OF ATOMS
80
ITEM: BOX BOUNDS pp pp pp
-8.3112758608785438e+00 8.3112758608785438e+00
-8.3112758608785438e+00 8.3112758608785438e+00
-1.0000000000000001e-01 1.0000000000000001e-01
ITEM: ATOMS id type xs ys zs
9 1 0.00248276 0.0508932 0.5
62 4 0.0838754 0.0239458 0.5
1 1 0.142174 0.0174407 0.5
70 4 0.713097 0.0362479 0.5
27 2 0.983525 0.0118586 0.5
76 4 0.0796082 0.055504 0.5
23 2 0.301267 0.0881072 0.5
16 1 0.330593 0.0551077 0.5
39 2 0.403742 0.0654422 0.5
38 2 0.61695 0.0770846 0.5
31 2 0.753501 0.0758941 0.5
34 2 0.88541 0.0932824 0.5
21 2 0.0287617 0.141041 0.5
14 1 0.0607472 0.112433 0.5
20 1 0.263044 0.112162 0.5
37 2 0.171353 0.182628 0.5
42 3 0.176171 0.15882 0.5
53 3 0.218243 0.181941 0.5
79 4 0.326098 0.200776 0.5
57 3 0.434532 0.187494 0.5
10 1 0.0899685 0.218988 0.5
24 2 0.169335 0.227282 0.5
5 1 0.294145 0.219281 0.5
74 4 0.673664 0.241585 0.5
54 3 0.703127 0.261312 0.5
13 1 0.983818 0.262897 0.5
29 2 0.320258 0.311157 0.5
36 2 0.720121 0.289831 0.5
61 4 0.930059 0.263351 0.5
46 3 0.0200837 0.346458 0.5
7 1 0.269756 0.367487 0.5
12 1 0.56901 0.354115 0.5
64 4 0.779755 0.340625 0.5
78 4 0.0811194 0.374398 0.5
15 1 0.226245 0.41302 0.5
58 3 0.299079 0.384024 0.5
30 2 0.395512 0.377829 0.5
63 4 0.741085 0.417806 0.5
4 1 0.962943 0.3857 0.5
67 4 0.224933 0.470826 0.5
41 3 0.565685 0.46573 0.5
73 4 0.898877 0.432202 0.5
51 3 0.0680964 0.495385 0.5
75 4 0.365845 0.519202 0.5
50 3 0.442292 0.522019 0.5
17 1 0.480836 0.496083 0.5
72 4 0.249094 0.529545 0.5
28 2 0.314768 0.532098 0.5
56 3 0.0769706 0.591919 0.5
80 4 0.222497 0.612547 0.5
45 3 0.318356 0.604158 0.5
35 2 0.776083 0.621783 0.5
66 4 0.942559 0.590429 0.5
11 1 0.0271072 0.644186 0.5
19 1 0.260651 0.661382 0.5
3 1 0.581975 0.665901 0.5
65 4 0.35799 0.733604 0.5
6 1 0.610109 0.687791 0.5
68 4 0.146851 0.756372 0.5
33 2 0.42356 0.77726 0.5
44 3 0.137706 0.794049 0.5
43 3 0.628239 0.814768 0.5
55 3 0.741219 0.822973 0.5
25 2 0.793953 0.804916 0.5
59 3 0.0165919 0.859367 0.5
52 3 0.286659 0.879231 0.5
40 2 0.464917 0.861093 0.5
49 3 0.758903 0.884762 0.5
8 1 0.0279542 0.941691 0.5
47 3 0.0880699 0.940276 0.5
18 1 0.113273 0.904635 0.5
32 2 0.492134 0.936106 0.5
22 2 0.548778 0.924163 0.5
60 3 0.555881 0.894315 0.5
69 4 0.560682 0.942553 0.5
26 2 0.622533 0.899568 0.5
2 1 0.405224 0.965597 0.5
71 4 0.409431 0.984155 0.5
77 4 0.392633 0.955714 0.5
48 3 0.887547 0.998591 0.5
ITEM: TIMESTEP
30
ITEM: NUMBER OF ATOMS
80
ITEM: BOX BOUNDS pp pp pp
-7.6127113235327188e+00 7.6127113235327188e+00
-7.6127113235327188e+00 7.6127113235327188e+00
-1.0000000000000001e-01 1.0000000000000001e-01
ITEM: ATOMS id type xs ys zs
9 1 0.00277234 0.0515643 0.5
62 4 0.0837831 0.0238054 0.5
1 1 0.142288 0.0174279 0.5
70 4 0.713076 0.036228 0.5
27 2 0.983143 0.011137 0.5
76 4 0.0796155 0.0555716 0.5
23 2 0.301393 0.0882917 0.5
16 1 0.331042 0.0544393 0.5
39 2 0.403883 0.0654621 0.5
38 2 0.61695 0.0770846 0.5
31 2 0.753522 0.075914 0.5
34 2 0.88541 0.0932824 0.5
21 2 0.0281324 0.141604 0.5
14 1 0.0614229 0.112034 0.5
20 1 0.262327 0.112626 0.5
37 2 0.170835 0.182894 0.5
42 3 0.176197 0.157861 0.5
53 3 0.218784 0.182004 0.5
79 4 0.326621 0.200473 0.5
57 3 0.434532 0.187494 0.5
10 1 0.0899012 0.218983 0.5
24 2 0.169354 0.227917 0.5
5 1 0.293622 0.219584 0.5
74 4 0.673451 0.241442 0.5
54 3 0.702987 0.260865 0.5
13 1 0.98404 0.262895 0.5
29 2 0.320335 0.311071 0.5
36 2 0.720474 0.290421 0.5
61 4 0.929837 0.263353 0.5
46 3 0.0201524 0.346411 0.5
7 1 0.269322 0.366737 0.5
12 1 0.56901 0.354115 0.5
64 4 0.779755 0.340625 0.5
78 4 0.0811194 0.374398 0.5
15 1 0.225843 0.41331 0.5
58 3 0.299841 0.384444 0.5
30 2 0.395512 0.377829 0.5
63 4 0.741085 0.417806 0.5
4 1 0.962874 0.385748 0.5
67 4 0.22493 0.470953 0.5
41 3 0.565685 0.46573 0.5
73 4 0.898877 0.432202 0.5
51 3 0.0680964 0.495385 0.5
75 4 0.365915 0.519185 0.5
50 3 0.441814 0.522341 0.5
17 1 0.481314 0.495762 0.5
72 4 0.249094 0.529545 0.5
28 2 0.314697 0.532114 0.5
56 3 0.0770048 0.591883 0.5
80 4 0.222457 0.612496 0.5
45 3 0.318357 0.604159 0.5
35 2 0.776083 0.621783 0.5
66 4 0.942559 0.590429 0.5
11 1 0.027073 0.644222 0.5
19 1 0.26069 0.661435 0.5
3 1 0.581029 0.665165 0.5
65 4 0.35799 0.733604 0.5
6 1 0.611055 0.688527 0.5
68 4 0.146895 0.756192 0.5
33 2 0.42356 0.77726 0.5
44 3 0.137662 0.794229 0.5
43 3 0.628239 0.814768 0.5
55 3 0.741052 0.82303 0.5
25 2 0.79412 0.804859 0.5
59 3 0.0165918 0.859367 0.5
52 3 0.286659 0.879231 0.5
40 2 0.464916 0.86109 0.5
49 3 0.758903 0.884763 0.5
8 1 0.0276859 0.94168 0.5
47 3 0.0879625 0.940791 0.5
18 1 0.113667 0.904104 0.5
32 2 0.491832 0.936174 0.5
22 2 0.548498 0.92419 0.5
60 3 0.556029 0.893571 0.5
69 4 0.561091 0.943207 0.5
26 2 0.622562 0.899566 0.5
2 1 0.405828 0.965292 0.5
71 4 0.409737 0.985257 0.5
77 4 0.391723 0.954917 0.5
48 3 0.887547 0.998591 0.5
ITEM: TIMESTEP
40
ITEM: NUMBER OF ATOMS
80
ITEM: BOX BOUNDS pp pp pp
-7.1196665884427297e+00 7.1196665884427297e+00
-7.1196665884427297e+00 7.1196665884427297e+00
-1.0000000000000001e-01 1.0000000000000001e-01
ITEM: ATOMS id type xs ys zs
9 1 0.00315923 0.0525572 0.5
62 4 0.0835672 0.0235529 0.5
1 1 0.142556 0.017391 0.5
70 4 0.713006 0.0361589 0.5
27 2 0.982484 0.0100379 0.5
76 4 0.0796359 0.0556479 0.5
23 2 0.301605 0.0885945 0.5
16 1 0.331738 0.053285 0.5
39 2 0.404205 0.0655093 0.5
38 2 0.61695 0.0770846 0.5
31 2 0.753592 0.0759831 0.5
34 2 0.88541 0.0932824 0.5
21 2 0.0271209 0.142526 0.5
14 1 0.0625621 0.111542 0.5
20 1 0.261111 0.113407 0.5
37 2 0.170001 0.183252 0.5
42 3 0.176201 0.156283 0.5
53 3 0.219741 0.182109 0.5
79 4 0.327471 0.199981 0.5
57 3 0.434532 0.187494 0.5
10 1 0.0896692 0.218985 0.5
24 2 0.16943 0.229046 0.5
5 1 0.292784 0.220075 0.5
74 4 0.673077 0.241192 0.5
54 3 0.702795 0.260163 0.5
13 1 0.984455 0.262891 0.5
29 2 0.320526 0.310869 0.5
36 2 0.72104 0.291372 0.5
61 4 0.929422 0.263357 0.5
46 3 0.0203282 0.34629 0.5
7 1 0.268604 0.365558 0.5
12 1 0.56901 0.354115 0.5
64 4 0.779755 0.340625 0.5
78 4 0.0811194 0.374398 0.5
15 1 0.225128 0.413755 0.5
58 3 0.30109 0.385108 0.5
30 2 0.395512 0.377829 0.5
63 4 0.741085 0.417806 0.5
4 1 0.962699 0.385868 0.5
67 4 0.224925 0.471233 0.5
41 3 0.565685 0.46573 0.5
73 4 0.898877 0.432202 0.5
51 3 0.0680964 0.495385 0.5
75 4 0.366089 0.519141 0.5
50 3 0.441025 0.522872 0.5
17 1 0.482103 0.495231 0.5
72 4 0.249088 0.529545 0.5
28 2 0.314528 0.532133 0.5
56 3 0.0771103 0.591773 0.5
80 4 0.22235 0.612358 0.5
45 3 0.31838 0.604162 0.5
35 2 0.776083 0.621783 0.5
66 4 0.942559 0.590429 0.5
11 1 0.0269676 0.644332 0.5
19 1 0.260775 0.661595 0.5
3 1 0.579533 0.664001 0.5
65 4 0.35799 0.733604 0.5
6 1 0.612551 0.689691 0.5
68 4 0.146975 0.755862 0.5
33 2 0.42356 0.77726 0.5
44 3 0.137582 0.794559 0.5
43 3 0.628239 0.814768 0.5
55 3 0.740718 0.823131 0.5
25 2 0.79445 0.804746 0.5
59 3 0.0165893 0.859348 0.5
52 3 0.286659 0.879231 0.5
40 2 0.464901 0.861047 0.5
49 3 0.758907 0.884774 0.5
8 1 0.0271664 0.941643 0.5
47 3 0.0878497 0.941634 0.5
18 1 0.114372 0.903205 0.5
32 2 0.491324 0.936323 0.5
22 2 0.548065 0.924248 0.5
60 3 0.556213 0.892338 0.5
69 4 0.561747 0.944278 0.5
26 2 0.622708 0.899554 0.5
2 1 0.40677 0.964801 0.5
71 4 0.410212 0.987012 0.5
77 4 0.390274 0.953665 0.5
48 3 0.887547 0.998591 0.5
ITEM: TIMESTEP
50
ITEM: NUMBER OF ATOMS
80
ITEM: BOX BOUNDS pp pp pp
-6.7810006709674839e+00 6.7810006709674839e+00
-6.7810006709674839e+00 6.7810006709674839e+00
-1.0000000000000001e-01 1.0000000000000001e-01
ITEM: ATOMS id type xs ys zs
9 1 0.00357315 0.0538219 0.5
62 4 0.0831863 0.0231653 0.5
1 1 0.143054 0.0173086 0.5
70 4 0.712859 0.0360143 0.5
27 2 0.981494 0.00857188 0.5
76 4 0.0796773 0.0557275 0.5
23 2 0.301918 0.0890337 0.5
16 1 0.332684 0.0515612 0.5
39 2 0.404766 0.0656065 0.5
38 2 0.61695 0.0770846 0.5
31 2 0.753739 0.0761277 0.5
34 2 0.88541 0.0932824 0.5
21 2 0.0256905 0.143862 0.5
14 1 0.0642339 0.111016 0.5
20 1 0.259345 0.114499 0.5
37 2 0.168852 0.183665 0.5
42 3 0.176175 0.154014 0.5
53 3 0.221123 0.182275 0.5
79 4 0.328678 0.199282 0.5
57 3 0.434532 0.187494 0.5
10 1 0.0891861 0.219037 0.5
24 2 0.169597 0.230771 0.5
5 1 0.291636 0.220768 0.5
74 4 0.672504 0.240813 0.5
54 3 0.702565 0.259193 0.5
13 1 0.985099 0.26288 0.5
29 2 0.320893 0.310524 0.5
36 2 0.721842 0.292722 0.5
61 4 0.928771 0.263362 0.5
46 3 0.0206553 0.346075 0.5
7 1 0.267567 0.363921 0.5
12 1 0.56901 0.354115 0.5
64 4 0.779755 0.340625 0.5
78 4 0.0811194 0.374398 0.5
15 1 0.224031 0.414366 0.5
58 3 0.302881 0.386054 0.5
30 2 0.395512 0.377829 0.5
63 4 0.741085 0.417806 0.5
4 1 0.962387 0.386082 0.5
67 4 0.224919 0.471714 0.5
41 3 0.565705 0.465723 0.5
73 4 0.898865 0.432211 0.5
51 3 0.0680964 0.495385 0.5
75 4 0.366402 0.519062 0.5
50 3 0.43989 0.523636 0.5
17 1 0.483218 0.494474 0.5
72 4 0.249048 0.529543 0.5
28 2 0.31425 0.532123 0.5
56 3 0.0773209 0.591552 0.5
80 4 0.222148 0.6121 0.5
45 3 0.31846 0.604178 0.5
35 2 0.776083 0.621783 0.5
66 4 0.942559 0.590429 0.5
11 1 0.0267569 0.644553 0.5
19 1 0.260901 0.661927 0.5
3 1 0.577453 0.662383 0.5
65 4 0.35799 0.733604 0.5
6 1 0.614631 0.691309 0.5
68 4 0.147099 0.755353 0.5
33 2 0.42356 0.777259 0.5
44 3 0.137458 0.795068 0.5
43 3 0.628239 0.814768 0.5
55 3 0.740169 0.82326 0.5
25 2 0.794983 0.804563 0.5
59 3 0.0165791 0.859269 0.5
52 3 0.286659 0.879231 0.5
40 2 0.464857 0.860923 0.5
49 3 0.758922 0.884828 0.5
8 1 0.0263389 0.941586 0.5
47 3 0.0877601 0.942845 0.5
18 1 0.115458 0.901883 0.5
32 2 0.49062 0.936597 0.5
22 2 0.547455 0.924352 0.5
60 3 0.556415 0.890547 0.5
69 4 0.562677 0.945807 0.5
26 2 0.623058 0.899522 0.5
2 1 0.408041 0.964097 0.5
71 4 0.410847 0.989459 0.5
77 4 0.388246 0.951952 0.5
48 3 0.887547 0.998591 0.5
ITEM: TIMESTEP
60
ITEM: NUMBER OF ATOMS
80
ITEM: BOX BOUNDS pp pp pp
-6.5414070858003344e+00 6.5414070858003344e+00
-6.5414070858003344e+00 6.5414070858003344e+00
-1.0000000000000001e-01 1.0000000000000001e-01
ITEM: ATOMS id type xs ys zs
9 1 0.00392952 0.0553176 0.5
62 4 0.0826139 0.0226258 0.5
1 1 0.143848 0.017182 0.5
70 4 0.712615 0.035775 0.5
27 2 0.980135 0.00676894 0.5
76 4 0.0797567 0.0558003 0.5
23 2 0.302345 0.0896243 0.5
16 1 0.333846 0.0492324 0.5
39 2 0.40561 0.0657962 0.5
38 2 0.61695 0.0770846 0.5
31 2 0.753983 0.076367 0.5
34 2 0.88541 0.0932824 0.5
21 2 0.0238131 0.145629 0.5
14 1 0.0664752 0.11049 0.5
20 1 0.257031 0.115826 0.5
37 2 0.167399 0.184092 0.5
42 3 0.176094 0.151048 0.5
53 3 0.222896 0.182518 0.5
79 4 0.33025 0.198371 0.5
57 3 0.434532 0.187494 0.5
10 1 0.0884342 0.219205 0.5
24 2 0.169888 0.233145 0.5
5 1 0.290211 0.221687 0.5
74 4 0.671704 0.240288 0.5
54 3 0.702319 0.257954 0.5
13 1 0.985956 0.262845 0.5
29 2 0.321489 0.310025 0.5
36 2 0.722888 0.294485 0.5
61 4 0.92786 0.26337 0.5
46 3 0.0211736 0.345774 0.5
7 1 0.266192 0.361814 0.5
12 1 0.56901 0.354115 0.5
64 4 0.779756 0.340626 0.5
78 4 0.0811194 0.374398 0.5
15 1 0.222514 0.415142 0.5
58 3 0.305227 0.387308 0.5
30 2 0.395512 0.377829 0.5
63 4 0.741085 0.417806 0.5
4 1 0.961936 0.38639 0.5
67 4 0.224915 0.472433 0.5
41 3 0.565783 0.465696 0.5
73 4 0.898816 0.432247 0.5
51 3 0.0680964 0.495385 0.5
75 4 0.366881 0.518941 0.5
50 3 0.438396 0.524641 0.5
17 1 0.484634 0.493496 0.5
72 4 0.248945 0.529539 0.5
28 2 0.313864 0.53206 0.5
56 3 0.0776611 0.591195 0.5
80 4 0.221835 0.611698 0.5
45 3 0.318624 0.604212 0.5
35 2 0.776083 0.621783 0.5
66 4 0.942559 0.590429 0.5
11 1 0.0264167 0.644909 0.5
19 1 0.261062 0.662483 0.5
3 1 0.57479 0.660311 0.5
65 4 0.35799 0.733604 0.5
6 1 0.617293 0.693381 0.5
68 4 0.14727 0.754648 0.5
33 2 0.423551 0.777242 0.5
44 3 0.137287 0.795773 0.5
43 3 0.628239 0.814764 0.5
55 3 0.739371 0.823399 0.5
25 2 0.795744 0.804303 0.5
59 3 0.0165572 0.859091 0.5
52 3 0.286659 0.879231 0.5
40 2 0.464781 0.860697 0.5
49 3 0.758959 0.88495 0.5
8 1 0.0251807 0.941489 0.5
47 3 0.0877094 0.944424 0.5
18 1 0.116957 0.900109 0.5
32 2 0.489727 0.937032 0.5
22 2 0.546658 0.924512 0.5
60 3 0.556621 0.88817 0.5
69 4 0.563898 0.947796 0.5
26 2 0.62367 0.899472 0.5
2 1 0.409632 0.963135 0.5
71 4 0.411613 0.992589 0.5
77 4 0.385636 0.949809 0.5
48 3 0.887547 0.998591 0.5
ITEM: TIMESTEP
70
ITEM: NUMBER OF ATOMS
80
ITEM: BOX BOUNDS pp pp pp
-6.3805945724318729e+00 6.3805945724318729e+00
-6.3805945724318729e+00 6.3805945724318729e+00
-1.0000000000000001e-01 1.0000000000000001e-01
ITEM: ATOMS id type xs ys zs
9 1 0.00414197 0.0570115 0.5
62 4 0.0818493 0.0219194 0.5
1 1 0.144998 0.017031 0.5
70 4 0.712263 0.0354296 0.5
27 2 0.978387 0.00467519 0.5
76 4 0.0798874 0.0558508 0.5
23 2 0.302898 0.0903774 0.5
16 1 0.33516 0.0463106 0.5
39 2 0.406758 0.0661346 0.5
38 2 0.61695 0.0770846 0.5
31 2 0.754335 0.0767124 0.5
34 2 0.88541 0.0932824 0.5
21 2 0.0214826 0.147814 0.5
14 1 0.0692915 0.11001 0.5
20 1 0.254231 0.117277 0.5
37 2 0.165669 0.184496 0.5
42 3 0.17592 0.147442 0.5
53 3 0.224991 0.182855 0.5
79 4 0.332175 0.197255 0.5
57 3 0.434532 0.187494 0.5
10 1 0.0874282 0.219536 0.5
24 2 0.170333 0.236165 0.5
5 1 0.288557 0.22285 0.5
74 4 0.670664 0.239616 0.5
54 3 0.702078 0.256458 0.5
13 1 0.986982 0.262776 0.5
29 2 0.322356 0.309379 0.5
36 2 0.724149 0.296637 0.5
61 4 0.926681 0.26338 0.5
46 3 0.0219098 0.345405 0.5
7 1 0.264477 0.359249 0.5
12 1 0.56901 0.354115 0.5
64 4 0.779775 0.340641 0.5
78 4 0.0811195 0.374398 0.5
15 1 0.220574 0.416069 0.5
58 3 0.308099 0.388879 0.5
30 2 0.395514 0.377829 0.5
63 4 0.741085 0.417806 0.5
4 1 0.961352 0.386786 0.5
67 4 0.22492 0.473413 0.5
41 3 0.565956 0.465636 0.5
73 4 0.898708 0.432325 0.5
51 3 0.0680964 0.495385 0.5
75 4 0.36754 0.518776 0.5
50 3 0.436553 0.525881 0.5
17 1 0.486304 0.492315 0.5
72 4 0.248754 0.529532 0.5
28 2 0.313378 0.531924 0.5
56 3 0.0781448 0.590688 0.5
80 4 0.221399 0.611139 0.5
45 3 0.318892 0.604271 0.5
35 2 0.776083 0.621783 0.5
66 4 0.942559 0.590429 0.5
11 1 0.025933 0.645416 0.5
19 1 0.261248 0.663293 0.5
3 1 0.571579 0.657812 0.5
65 4 0.35799 0.733604 0.5
6 1 0.620505 0.69588 0.5
68 4 0.147489 0.753744 0.5
33 2 0.423523 0.777184 0.5
44 3 0.137068 0.796678 0.5
43 3 0.628241 0.814739 0.5
55 3 0.738308 0.823531 0.5
25 2 0.796743 0.803962 0.5
59 3 0.0165219 0.858786 0.5
52 3 0.286659 0.879231 0.5
40 2 0.464678 0.860369 0.5
49 3 0.759023 0.885159 0.5
8 1 0.0236987 0.941325 0.5
47 3 0.0877025 0.946346 0.5
18 1 0.118865 0.897874 0.5
32 2 0.488678 0.937645 0.5
22 2 0.545678 0.924732 0.5
60 3 0.55682 0.885223 0.5
69 4 0.565409 0.950215 0.5
26 2 0.624582 0.899423 0.5
2 1 0.411527 0.961871 0.5
71 4 0.41247 0.996328 0.5
77 4 0.382476 0.947304 0.5
48 3 0.887547 0.998591 0.5
ITEM: TIMESTEP
80
ITEM: NUMBER OF ATOMS
80
ITEM: BOX BOUNDS pp pp pp
-6.2876177235772612e+00 6.2876177235772612e+00
-6.2876177235772612e+00 6.2876177235772612e+00
-1.0000000000000001e-01 1.0000000000000001e-01
ITEM: ATOMS id type xs ys zs
9 1 0.00414306 0.0588643 0.5
62 4 0.0809071 0.021032 0.5
1 1 0.146542 0.0168603 0.5
70 4 0.7118 0.0349754 0.5
27 2 0.976255 0.00235239 0.5
76 4 0.0800758 0.0558589 0.5
23 2 0.303584 0.0912976 0.5
16 1 0.336543 0.0428431 0.5
39 2 0.40821 0.0666813 0.5
38 2 0.61695 0.0770846 0.5
31 2 0.754798 0.0771666 0.5
34 2 0.88541 0.0932824 0.5
21 2 0.0187202 0.150378 0.5
14 1 0.0726474 0.109642 0.5
20 1 0.251053 0.118724 0.5
37 2 0.16369 0.184853 0.5
42 3 0.175617 0.143302 0.5
53 3 0.227313 0.183297 0.5
79 4 0.334417 0.195954 0.5
57 3 0.434532 0.187494 0.5
10 1 0.0862002 0.220057 0.5
24 2 0.170957 0.239773 0.5
5 1 0.286733 0.224261 0.5
74 4 0.669388 0.238813 0.5
54 3 0.70187 0.254732 0.5
13 1 0.988121 0.262668 0.5
29 2 0.323511 0.308599 0.5
36 2 0.725573 0.299118 0.5
61 4 0.925246 0.263393 0.5
46 3 0.0228683 0.344983 0.5
7 1 0.26244 0.35626 0.5
12 1 0.56901 0.354115 0.5
64 4 0.779835 0.340689 0.5
78 4 0.0811242 0.3744 0.5
15 1 0.218241 0.417125 0.5
58 3 0.311413 0.390751 0.5
30 2 0.395537 0.377836 0.5
63 4 0.741085 0.417806 0.5
4 1 0.960652 0.387259 0.5
67 4 0.224942 0.47466 0.5
41 3 0.566254 0.465534 0.5
73 4 0.898525 0.432458 0.5
51 3 0.0680964 0.495385 0.5
75 4 0.368378 0.518567 0.5
50 3 0.434393 0.527336 0.5
17 1 0.488166 0.490962 0.5
72 4 0.24846 0.52952 0.5
28 2 0.312804 0.531701 0.5
56 3 0.0787742 0.590029 0.5
80 4 0.220843 0.610421 0.5
45 3 0.319274 0.604357 0.5
35 2 0.776083 0.621783 0.5
66 4 0.942559 0.590429 0.5
11 1 0.0253036 0.646076 0.5
19 1 0.261451 0.664368 0.5
3 1 0.567887 0.65494 0.5
65 4 0.357989 0.733603 0.5
6 1 0.624197 0.698752 0.5
68 4 0.147755 0.75265 0.5
33 2 0.423466 0.777069 0.5
44 3 0.136803 0.797767 0.5
43 3 0.628244 0.814677 0.5
55 3 0.736984 0.823644 0.5
25 2 0.797973 0.80354 0.5
59 3 0.0164738 0.858338 0.5
52 3 0.286659 0.879231 0.5
40 2 0.464557 0.859943 0.5
49 3 0.759118 0.885467 0.5
8 1 0.0219291 0.941068 0.5
47 3 0.0877428 0.948568 0.5
18 1 0.121144 0.895211 0.5
32 2 0.487525 0.938438 0.5
22 2 0.544538 0.925009 0.5
60 3 0.557 0.881771 0.5
69 4 0.567182 0.953 0.5
26 2 0.625798 0.899397 0.5
2 1 0.413686 0.960294 0.5
71 4 0.41338 1.00055 0.5
77 4 0.378827 0.944514 0.5
48 3 0.887545 0.998591 0.5
ITEM: TIMESTEP
90
ITEM: NUMBER OF ATOMS
80
ITEM: BOX BOUNDS pp pp pp
-6.2547075092109683e+00 6.2547075092109683e+00
-6.2547075092109683e+00 6.2547075092109683e+00
-1.0000000000000001e-01 1.0000000000000001e-01
ITEM: ATOMS id type xs ys zs
9 1 0.00389675 0.0608293 0.5
62 4 0.0798097 0.0199601 0.5
1 1 0.14848 0.0166669 0.5
70 4 0.711233 0.0344189 0.5
27 2 0.973777 -0.000126023 0.5
76 4 0.0803203 0.0558027 0.5
23 2 0.304408 0.0923812 0.5
16 1 0.337892 0.0389187 0.5
39 2 0.409941 0.0674763 0.5
38 2 0.61695 0.0770846 0.5
31 2 0.755365 0.0777232 0.5
34 2 0.88541 0.0932824 0.5
21 2 0.015576 0.153254 0.5
14 1 0.0764806 0.109446 0.5
20 1 0.247637 0.120037 0.5
37 2 0.161502 0.185152 0.5
42 3 0.175166 0.138749 0.5
53 3 0.229749 0.183848 0.5
79 4 0.336918 0.194499 0.5
57 3 0.434532 0.187494 0.5
10 1 0.0847969 0.220774 0.5
24 2 0.17177 0.243884 0.5
5 1 0.284807 0.225905 0.5
74 4 0.667892 0.237898 0.5
54 3 0.701718 0.252816 0.5
13 1 0.989315 0.262526 0.5
29 2 0.324951 0.307717 0.5
36 2 0.727098 0.301854 0.5
61 4 0.923585 0.263408 0.5
46 3 0.0240305 0.344526 0.5
7 1 0.260121 0.352907 0.5
12 1 0.56901 0.354115 0.5
64 4 0.779958 0.340784 0.5
78 4 0.0811431 0.37441 0.5
15 1 0.21558 0.418275 0.5
58 3 0.315031 0.392886 0.5
30 2 0.395622 0.377852 0.5
63 4 0.741085 0.417806 0.5
4 1 0.959858 0.387791 0.5
67 4 0.224992 0.476162 0.5
41 3 0.566697 0.465385 0.5
73 4 0.898256 0.432654 0.5
51 3 0.0680964 0.495385 0.5
75 4 0.369376 0.518317 0.5
50 3 0.431978 0.528969 0.5
17 1 0.490147 0.489479 0.5
72 4 0.248056 0.529505 0.5
28 2 0.312162 0.531385 0.5
56 3 0.0795399 0.589226 0.5
80 4 0.220175 0.609556 0.5
45 3 0.319771 0.604473 0.5
35 2 0.776083 0.621783 0.5
66 4 0.942559 0.590429 0.5
11 1 0.024538 0.646879 0.5
19 1 0.261662 0.665696 0.5
3 1 0.563815 0.651771 0.5
65 4 0.357983 0.7336 0.5
6 1 0.628269 0.70192 0.5
68 4 0.14806 0.751393 0.5
33 2 0.42338 0.776887 0.5
44 3 0.136503 0.798989 0.5
43 3 0.628248 0.814567 0.5
55 3 0.735422 0.823728 0.5
25 2 0.799408 0.803047 0.5
59 3 0.0164154 0.857739 0.5
52 3 0.286659 0.879231 0.5
40 2 0.464431 0.859414 0.5
49 3 0.759245 0.885876 0.5
8 1 0.0199348 0.9407 0.5
47 3 0.0878308 0.951032 0.5
18 1 0.12372 0.892218 0.5
32 2 0.486333 0.939393 0.5
22 2 0.543281 0.925335 0.5
60 3 0.557145 0.877897 0.5
69 4 0.56918 0.956075 0.5
26 2 0.627294 0.899412 0.5
2 1 0.416032 0.958444 0.5
71 4 0.414336 1.00511 0.5
77 4 0.374769 0.941515 0.5
48 3 0.887525 0.99859 0.5
ITEM: TIMESTEP
100
ITEM: NUMBER OF ATOMS
80
ITEM: BOX BOUNDS pp pp pp
-6.2708443627247759e+00 6.2708443627247759e+00
-6.2708443627247759e+00 6.2708443627247759e+00
-1.0000000000000001e-01 1.0000000000000001e-01
ITEM: ATOMS id type xs ys zs
9 1 0.00340085 0.0628553 0.5
62 4 0.0785836 0.0187222 0.5
1 1 0.150773 0.0164439 0.5
70 4 0.710576 0.0337742 0.5
27 2 0.971013 -0.00268433 0.5
76 4 0.0806114 0.055662 0.5
23 2 0.305366 0.093616 0.5
16 1 0.339099 0.0346503 0.5
39 2 0.41191 0.0685342 0.5
38 2 0.61695 0.0770846 0.5
31 2 0.756022 0.0783679 0.5
34 2 0.88541 0.0932824 0.5
21 2 0.0121272 0.156342 0.5
14 1 0.0806894 0.10945 0.5
20 1 0.244122 0.121112 0.5
37 2 0.159173 0.185394 0.5
42 3 0.174567 0.13391 0.5
53 3 0.232184 0.184499 0.5
79 4 0.339608 0.192931 0.5
57 3 0.434532 0.187494 0.5
10 1 0.0832749 0.221676 0.5
24 2 0.172759 0.248393 0.5
5 1 0.282852 0.227753 0.5
74 4 0.666198 0.236895 0.5
54 3 0.701645 0.250757 0.5
13 1 0.990498 0.262375 0.5
29 2 0.326661 0.306779 0.5
36 2 0.728664 0.304762 0.5
61 4 0.921741 0.263425 0.5
46 3 0.025365 0.344048 0.5
7 1 0.257578 0.349271 0.5
12 1 0.56901 0.354115 0.5
64 4 0.78016 0.340938 0.5
78 4 0.0811831 0.37443 0.5
15 1 0.212676 0.419482 0.5
58 3 0.318798 0.395222 0.5
30 2 0.395794 0.377876 0.5
63 4 0.741085 0.417806 0.5
4 1 0.958998 0.388363 0.5
67 4 0.225079 0.477892 0.5
41 3 0.567296 0.465187 0.5
73 4 0.8979 0.432913 0.5
51 3 0.0680964 0.495385 0.5
75 4 0.370488 0.518029 0.5
50 3 0.429395 0.530742 0.5
17 1 0.492169 0.487911 0.5
72 4 0.247543 0.529487 0.5
28 2 0.311471 0.530979 0.5
56 3 0.080422 0.588302 0.5
80 4 0.219416 0.608568 0.5
45 3 0.320374 0.604617 0.5
35 2 0.776083 0.621783 0.5
66 4 0.942559 0.590429 0.5
11 1 0.0236558 0.647803 0.5
19 1 0.261871 0.667246 0.5
3 1 0.559482 0.6484 0.5
65 4 0.357969 0.73359 0.5
6 1 0.632602 0.705291 0.5
68 4 0.148397 0.750006 0.5
33 2 0.423267 0.776639 0.5
44 3 0.136181 0.800274 0.5
43 3 0.628253 0.814409 0.5
55 3 0.733663 0.823779 0.5
25 2 0.801008 0.8025 0.5
59 3 0.0163509 0.856996 0.5
52 3 0.286659 0.879231 0.5
40 2 0.464313 0.858777 0.5
49 3 0.759404 0.886372 0.5
8 1 0.0177985 0.94021 0.5
47 3 0.0879653 0.95367 0.5
18 1 0.1265 0.889033 0.5
32 2 0.485159 0.940488 0.5
22 2 0.541966 0.925695 0.5
60 3 0.557251 0.873696 0.5
69 4 0.571359 0.959367 0.5
26 2 0.629019 0.899481 0.5
2 1 0.418472 0.956392 0.5
71 4 0.415343 1.00985 0.5
77 4 0.3704 0.938385 0.5
48 3 0.887466 0.998589 0.5
ITEM: TIMESTEP
110
ITEM: NUMBER OF ATOMS
80
ITEM: BOX BOUNDS pp pp pp
-6.3192034674638116e+00 6.3192034674638116e+00
-6.3192034674638116e+00 6.3192034674638116e+00
-1.0000000000000001e-01 1.0000000000000001e-01
ITEM: ATOMS id type xs ys zs
9 1 0.00268218 0.0648926 0.5
62 4 0.0772553 0.0173659 0.5
1 1 0.153358 0.0161927 0.5
70 4 0.709847 0.0330597 0.5
27 2 0.968024 -0.00525606 0.5
76 4 0.0809347 0.0554215 0.5
23 2 0.306455 0.0949842 0.5
16 1 0.340089 0.0301405 0.5
39 2 0.414067 0.0698463 0.5
38 2 0.61695 0.0770846 0.5
31 2 0.756751 0.0790824 0.5
34 2 0.88541 0.0932824 0.5
21 2 0.00846043 0.159532 0.5
14 1 0.0851316 0.109639 0.5
20 1 0.240625 0.121885 0.5
37 2 0.156787 0.185597 0.5
42 3 0.173855 0.128911 0.5
53 3 0.234516 0.185231 0.5
79 4 0.342416 0.191289 0.5
57 3 0.434532 0.187494 0.5
10 1 0.081692 0.222737 0.5
24 2 0.173894 0.253185 0.5
5 1 0.280941 0.229747 0.5
74 4 0.664333 0.235829 0.5
54 3 0.701665 0.248603 0.5
13 1 0.99161 0.262251 0.5
29 2 0.328617 0.305836 0.5
36 2 0.730216 0.307765 0.5
61 4 0.919759 0.263445 0.5
46 3 0.026835 0.343564 0.5
7 1 0.254871 0.345455 0.5
12 1 0.56901 0.354115 0.5
64 4 0.780453 0.341156 0.5
78 4 0.0812479 0.374464 0.5
15 1 0.209595 0.420718 0.5
58 3 0.322587 0.397683 0.5
30 2 0.39607 0.377903 0.5
63 4 0.741085 0.417806 0.5
4 1 0.958101 0.388955 0.5
67 4 0.22521 0.479817 0.5
41 3 0.568053 0.464942 0.5
73 4 0.897458 0.433234 0.5
51 3 0.0680964 0.495385 0.5
75 4 0.371668 0.517705 0.5
50 3 0.426733 0.532613 0.5
17 1 0.494161 0.486302 0.5
72 4 0.246929 0.529467 0.5
28 2 0.310752 0.530489 0.5
56 3 0.0813954 0.587281 0.5
80 4 0.218589 0.607484 0.5
45 3 0.321068 0.60479 0.5
35 2 0.776083 0.621783 0.5
66 4 0.942559 0.590429 0.5
11 1 0.0226824 0.648824 0.5
19 1 0.262072 0.668975 0.5
3 1 0.555008 0.644919 0.5
65 4 0.357947 0.733575 0.5
6 1 0.637076 0.708773 0.5
68 4 0.148756 0.748527 0.5
33 2 0.423127 0.776327 0.5
44 3 0.135847 0.801554 0.5
43 3 0.628257 0.814208 0.5
55 3 0.731754 0.823797 0.5
25 2 0.802727 0.801916 0.5
59 3 0.0162846 0.856122 0.5
52 3 0.286659 0.879231 0.5
40 2 0.464218 0.858039 0.5
49 3 0.759593 0.886939 0.5
8 1 0.0156101 0.939597 0.5
47 3 0.0881455 0.956402 0.5
18 1 0.129385 0.885791 0.5
32 2 0.484045 0.941701 0.5
22 2 0.540655 0.926069 0.5
60 3 0.55733 0.869259 0.5
69 4 0.573671 0.962805 0.5
26 2 0.630908 0.899604 0.5
2 1 0.420902 0.954223 0.5
71 4 0.416407 1.01463 0.5
77 4 0.365819 0.935191 0.5
48 3 0.887353 0.998588 0.5
ITEM: TIMESTEP
120
ITEM: NUMBER OF ATOMS
80
ITEM: BOX BOUNDS pp pp pp
-6.3768798080842890e+00 6.3768798080842890e+00
-6.3768798080842890e+00 6.3768798080842890e+00
-1.0000000000000001e-01 1.0000000000000001e-01
ITEM: ATOMS id type xs ys zs
9 1 0.00178447 0.0669013 0.5
62 4 0.0758458 0.0159447 0.5
1 1 0.156167 0.0159225 0.5
70 4 0.709067 0.0322936 0.5
27 2 0.964861 0.992206 0.5
76 4 0.0812751 0.0550712 0.5
23 2 0.307669 0.0964681 0.5
16 1 0.340844 0.0254489 0.5
39 2 0.416364 0.0713987 0.5
38 2 0.61695 0.0770846 0.5
31 2 0.757531 0.0798485 0.5
34 2 0.88541 0.0932824 0.5
21 2 0.00465179 0.162737 0.5
14 1 0.0896751 0.109993 0.5
20 1 0.237205 0.122355 0.5
37 2 0.15442 0.185783 0.5
42 3 0.173056 0.123833 0.5
53 3 0.236688 0.186031 0.5
79 4 0.345281 0.18961 0.5
57 3 0.434532 0.187494 0.5
10 1 0.0800997 0.22393 0.5
24 2 0.17514 0.258162 0.5
5 1 0.27913 0.231823 0.5
74 4 0.662321 0.234719 0.5
54 3 0.701789 0.246392 0.5
13 1 0.992608 0.262187 0.5
29 2 0.330795 0.304931 0.5
36 2 0.731709 0.3108 0.5
61 4 0.917682 0.263467 0.5
46 3 0.0284068 0.343085 0.5
7 1 0.252057 0.34156 0.5
12 1 0.56901 0.354115 0.5
64 4 0.780848 0.341441 0.5
78 4 0.0813392 0.374514 0.5
15 1 0.206379 0.421961 0.5