LAMMPS data file via write_data, version 23 Jun 2022, timestep = 10000

80 atoms
4 atom types

-4.814329760276835 4.814329760276835 xlo xhi
-4.814329760276835 4.814329760276835 ylo yhi
-0.1 0.1 zlo zhi

Atoms # sphere

28 2 1.3 0.4551661356395083 -3.9518133998659826 -4.417786648218122 0 0 1 0
45 3 1 1 4.643411574339194 -3.852571916624949 0 0 1 0
71 4 0.7 2.915451895043732 -3.250063791960226 -3.736909785710735 0 0 0 0
44 3 1 1 -1.4823087639248738 -3.5912800505707994 0 0 0 0
70 4 0.7 2.915451895043732 -1.1917292509593387 -4.3062552813553605 0 0 1 0
52 3 1 1 -0.36188343571217807 -4.247211857722944 0 0 1 0
15 1 1.6 0.2441406249999999 0.9234017544168411 -4.153980897409871 0 0 0 0
61 4 0.7 2.915451895043732 3.7916812768575534 -4.273825763392808 0 0 1 0
26 2 1.3 0.4551661356395083 -4.118769488440654 -3.2274695201694446 0 0 0 0
21 2 1.3 0.4551661356395083 -2.481155030196126 -3.335529024773172 0 0 0 0
74 4 0.7 2.915451895043732 -3.2074853635839173 -2.962629303724773 0 1 1 0
76 4 0.7 2.915451895043732 -0.812367481100055 -3.6812153724164904 0 0 1 0
48 3 1 1 -1.3976815156787836 -2.7009334012462016 0 0 1 0
14 1 1.6 0.2441406249999999 -0.20432908293796892 -2.8746918725302795 0 0 0 0
17 1 1.6 0.2441406249999999 2.323537329905961 -3.6674845295270186 0 -1 0 0
40 2 1.3 0.4551661356395083 3.669314144840077 -3.4616555813356595 0 -1 0 0
68 4 0.7 2.915451895043732 4.749516194790908 -2.414905322127041 0 0 0 0
11 1 1.6 0.2441406249999999 -2.455318534724322 -2.021764651302527 0 1 0 0
62 4 0.7 2.915451895043732 -1.3852530459564636 -2.019872066548017 0 0 0 0
57 3 1 1 -0.6282751941581841 -1.8194471720109657 0 1 0 0
30 2 1.3 0.4551661356395083 0.4847516357942938 -1.7934885299802876 0 0 0 0
29 2 1.3 0.4551661356395083 1.2206941141635017 -2.8279896700764846 0 -1 0 0
43 3 1 1 2.118349067965327 -2.3435919481185725 0 0 0 0
55 3 1 1 2.9752177557694495 -2.6724460018802514 0 0 0 0
33 2 1.3 0.4551661356395083 2.896805703428303 -1.6297698344945513 0 0 0 0
80 4 0.7 2.915451895043732 4.438292508891377 -3.0207928016512704 0 0 0 0
24 2 1.3 0.4551661356395083 4.049835390293498 -2.009110531230792 0 0 0 0
54 3 1 1 4.726291114197038 -1.3854424439017992 0 -1 0 0
6 1 1.6 0.2441406249999999 -3.8609596525795826 -1.8195186380674455 0 0 1 0
46 3 1 1 -3.0529677101778434 -0.941708186875553 0 0 0 0
4 1 1.6 0.2441406249999999 -1.6050853062780583 -0.832925644420567 0 0 0 0
8 1 1.6 0.2441406249999999 -0.2140178081771884 -0.65123130933629 0 0 0 0
20 1 1.6 0.2441406249999999 1.5226296088886517 -0.9918149175551267 0 0 0 0
41 3 1 1 3.7279530748844953 -0.8200364608727164 0 0 0 0
72 4 0.7 2.915451895043732 -4.80125765429249 -0.32639266557665714 0 1 0 0
35 2 1.3 0.4551661356395083 -3.995578114321037 -0.4240943135823185 0 0 0 0
1 1 1.6 0.2441406249999999 -2.5151379330803882 0.19552004323380423 0 0 0 0
22 2 1.3 0.4551661356395083 -1.2673875201656468 0.5631007798737624 0 0 0 0
10 1 1.6 0.2441406249999999 0.9467485687090811 0.542136120815063 0 0 0 0
67 4 0.7 2.915451895043732 2.221002758007711 0.601630433345413 0 0 0 0
75 4 0.7 2.915451895043732 1.8356597827736083 -0.07751204222955899 0 0 0 0
27 2 1.3 0.4551661356395083 2.7119287246480495 -0.36615823747390674 0 0 0 0
78 4 0.7 2.915451895043732 4.39834607285693 -0.7289454320262205 0 -1 0 0
53 3 1 1 3.7397830698235994 0.13874493115813635 0 0 1 0
58 3 1 1 4.596424602278657 0.4271046872763353 0 0 0 0
73 4 0.7 2.915451895043732 -4.252150087703771 0.61312265689567 0 0 0 0
47 3 1 1 -3.6120373575389166 0.6436980024281427 0 0 0 0
34 2 1.3 0.4551661356395083 -2.2379333523903515 1.3885369186002539 0 0 0 0
51 3 1 1 -1.2598233367345353 1.681648590233455 0 0 0 0
59 3 1 1 -0.25745375676529925 0.5153958943892496 0 0 0 0
79 4 0.7 2.915451895043732 2.47799451437396 1.1275524316561558 0 0 0 0
39 2 1.3 0.4551661356395083 1.7968202509032443 1.8507586969547791 0 -1 0 0
50 3 1 1 3.05042353237483 0.678670891778939 0 -1 0 0
63 4 0.7 2.915451895043732 4.109824460615667 1.018363632234533 0 -1 0 0
32 2 1.3 0.4551661356395083 -4.785180217803021 1.4887518737327126 0 0 0 0
12 1 1.6 0.2441406249999999 -3.4915745457315728 1.8520801674810015 0 1 0 0
36 2 1.3 0.4551661356395083 -3.0424621425225093 3.047090632653364 0 0 0 0
31 2 1.3 0.4551661356395083 -1.8735804244168452 2.553414249364523 0 0 0 0
65 4 0.7 2.915451895043732 -0.8114312162392965 2.290287839666642 0 0 -1 0
16 1 1.6 0.2441406249999999 -0.07529580427782534 1.5424865952633633 0 0 0 0
69 4 0.7 2.915451895043732 0.8411887990897666 1.7479176784361758 0 0 0 0
49 3 1 1 1.0626264734326485 2.5729151624743523 0 0 0 0
25 2 1.3 0.4551661356395083 2.5037177701891666 2.684232164662597 0 -1 0 0
7 1 1.6 0.2441406249999999 3.4475055307282334 1.7649958788364488 0 0 0 0
77 4 0.7 2.915451895043732 4.406603548330707 2.3456672279955013 0 0 0 0
2 1 1.6 0.2441406249999999 -4.417435530504348 3.0708453034538685 0 1 0 0
37 2 1.3 0.4551661356395083 -3.2854845549354454 4.248364755470122 0 0 0 0
56 3 1 1 -2.2540884910115984 3.575173908364099 0 0 -1 0
23 2 1.3 0.4551661356395083 -0.9190839798443475 3.245779875280811 0 0 0 0
42 3 1 1 0.18223478584233543 2.650885838228115 0 0 0 0
64 4 0.7 2.915451895043732 0.6763951209835293 3.253317094101422 0 1 0 0
18 1 1.6 0.2441406249999999 1.5535760817654696 3.7782613269707115 0 0 0 0
9 1 1.6 0.2441406249999999 3.772982189824739 3.1870134391591316 0 0 0 0
66 4 0.7 2.915451895043732 -4.127852996296427 4.236301593384099 0 0 0 0
3 1 1.6 0.2441406249999999 -2.3019552637145346 -4.492584001932721 0 1 1 0
38 2 1.3 0.4551661356395083 -1.1799899856866176 4.410972667088038 0 1 -1 0
5 1 1.6 0.2441406249999999 0.1747664794728161 4.156988667879198 0 0 -1 0
60 3 1 1 1.8739199391990544 -4.744534605836737 0 0 0 0
19 1 1.6 0.2441406249999999 3.063396756407413 4.541455411624583 0 0 -1 0
13 1 1.6 0.2441406249999999 4.528140856756617 4.553818054072237 0 0 -1 0

Velocities

28 -0.0007720520949463885 0.01236808553359889 0 0 0 0
45 -0.036422007612418934 -0.03690147445620543 0 0 0 0
71 -0.11216237446693361 -0.06411935583601751 0 0 0 0
44 -0.020053866879864136 -0.06374837288402868 0 0 0 0
70 0.021501555618076342 0.002553883368164468 0 0 0 0
52 -0.06627708591435258 0.0016319758254688147 0 0 0 0
15 0.05968268513343845 0.003448756930856167 0 0 0 0
61 0.015840532358943265 0.07725079328571934 0 0 0 0
26 0.07331102883744448 0.03652839950504367 0 0 0 0
21 -0.004681015757159916 0.153305704879437 0 0 0 0
74 -0.17415458706346382 0.09655905657130383 0 0 0 0
76 0.07735254676996259 -0.05501885288993459 0 0 0 0
48 0.14804537212670518 0.13996549306557068 0 0 0 0
14 0.010668843072355461 -0.06451441516991652 0 0 0 0
17 0.11353107912713661 -0.014852289180945815 0 0 0 0
40 0.08265119096502885 -0.12920613045695942 0 0 0 0
68 -0.008733199792002561 -0.16059580391859307 0 0 0 0
11 0.02790796468522176 0.12942086925620427 0 0 0 0
62 -0.03411963177327763 0.25064534159415214 0 0 0 0
57 -0.1506388271011811 0.10593954830118399 0 0 0 0
30 0.18216773897121988 -0.1466024794163296 0 0 0 0
29 -0.07222903892859986 0.05930138177889133 0 0 0 0
43 -0.010549246303250033 0.16565477458144284 0 0 0 0
55 -0.2920655930113393 -0.03364696119485016 0 0 0 0
33 -0.06800555557346749 0.14517461714016763 0 0 0 0
80 0.025270302677348474 -0.11433527574750571 0 0 0 0
24 -0.0007236041663973629 -0.18107604312311704 0 0 0 0
54 -0.0728645682303645 -0.054564451368380965 0 0 0 0
6 0.020640075904394543 -0.06893191792407871 0 0 0 0
46 0.022189858452094452 -0.026186515958094517 0 0 0 0
4 0.012816826558587091 -0.15304951991601173 0 0 0 0
8 0.16803806756713313 -0.0476081966417336 0 0 0 0
20 0.1795601073585906 -0.023242867784556167 0 0 0 0
41 -0.20117069585320094 -0.025547684118739894 0 0 0 0
72 -0.13139150429178537 -0.011391228765688965 0 0 0 0
35 -0.010772388704837883 -0.11483118185657724 0 0 0 0
1 -0.046986570903930776 -0.023219655677575262 0 0 0 0
22 -0.15831854182961294 0.08906630642610523 0 0 0 0
10 0.1533367325931278 0.10924873492898837 0 0 0 0
67 0.024187195825822766 0.09686901033790567 0 0 0 0
75 -0.2561766399037152 0.08021137886464377 0 0 0 0
27 0.06429863955582293 0.15779365531685008 0 0 0 0
78 0.14053357293671026 0.03439341889709176 0 0 0 0
53 0.11532436905187814 0.15271990510256847 0 0 0 0
58 0.011471222849531884 0.07008672905869222 0 0 0 0
73 -0.06336619280040434 -0.1604081255362203 0 0 0 0
47 -0.11708814954331395 -0.08838975748010239 0 0 0 0
34 -0.07775282219448176 0.1439806023814206 0 0 0 0
51 0.33441850131660206 0.12055732425178571 0 0 0 0
59 0.008302688905763562 -0.06302483708312204 0 0 0 0
79 0.16285011750929346 -0.1122250281843892 0 0 0 0
39 0.009458294715837158 0.1011696738158785 0 0 0 0
50 -0.05336935306393173 0.05061529243024804 0 0 0 0
63 0.16570723846365 -0.10481266047160982 0 0 0 0
32 -0.049448364824893676 0.250593774633258 0 0 0 0
12 0.03550947794119744 -0.15637468606302563 0 0 0 0
36 -0.07497893779188126 0.0840092440179318 0 0 0 0
31 -0.03463092042464228 -0.17217896603531302 0 0 0 0
65 0.05759013360268603 -0.08112560368289451 0 0 0 0
16 0.011390748395456531 0.05395408153108341 0 0 0 0
69 -0.12320082506231644 0.10426937873595972 0 0 0 0
49 -0.09161962380430812 -0.00944106666339626 0 0 0 0
25 0.07339247086805892 -0.18519032402673602 0 0 0 0
7 -0.032683785120237785 -0.04850767325535299 0 0 0 0
77 -0.022651372252927016 -0.0765767377257796 0 0 0 0
2 0.08295062002767972 0.08180704043738739 0 0 0 0
37 0.04255605878661462 0.007702133021407495 0 0 0 0
56 -0.26140422959939125 -0.0680946964322197 0 0 0 0
23 -0.13013368017097005 -0.26859924126557627 0 0 0 0
42 0.16171121219166207 0.061775117096753415 0 0 0 0
64 0.09641737367876282 -0.14866822540953803 0 0 0 0
18 0.07647246506497088 -0.08511409716955803 0 0 0 0
9 0.17877499094818422 0.0486617776791598 0 0 0 0
66 -0.009359493161148803 0.14855362922921986 0 0 0 0
3 -0.011923364860549384 0.05238017625143798 0 0 0 0
38 -0.014522353340252163 -0.14851541663364284 0 0 0 0
5 0.03814514457903556 0.04814722581946348 0 0 0 0
60 -0.18723754723317562 -0.027879770894173584 0 0 0 0
19 -0.03518774233814824 0.1559032478288058 0 0 0 0
13 0.03385230775104843 -0.0658999514127754 0 0 0 0
