ITEM: TIMESTEP
0
ITEM: NUMBER OF ATOMS
80
ITEM: BOX BOUNDS pp pp pp
-1.0000000000000000e+01 1.0000000000000000e+01
-1.0000000000000000e+01 1.0000000000000000e+01
-1.0000000000000001e-01 1.0000000000000001e-01
ITEM: ATOMS id type xs ys zs
29 2 0.00381062 0.0451597 0.5
44 3 0.327424 0.020485 0.5
14 1 0.578212 0.0045408 0.5
19 1 0.74481 0.0141166 0.5
4 1 0.345278 0.0897669 0.5
30 2 0.519668 0.068013 0.5
51 3 0.490694 0.0957745 0.5
13 1 0.684126 0.104778 0.5
40 2 0.247761 0.124192 0.5
41 3 0.285187 0.133794 0.5
15 1 0.381218 0.133478 0.5
60 3 0.890352 0.149773 0.5
56 3 0.0981294 0.260389 0.5
20 1 0.619757 0.261615 0.5
5 1 0.637545 0.221689 0.5
79 4 0.656883 0.239363 0.5
35 2 0.205407 0.274287 0.5
71 4 0.594709 0.278693 0.5
68 4 0.690503 0.28138 0.5
65 4 0.848534 0.307338 0.5
38 2 0.968186 0.309989 0.5
26 2 0.559906 0.340237 0.5
72 4 0.590192 0.361338 0.5
2 1 0.636005 0.330041 0.5
80 4 0.640288 0.321884 0.5
11 1 0.992644 0.366164 0.5
27 2 0.948316 0.345453 0.5
54 3 0.131158 0.37594 0.5
21 2 0.365407 0.389806 0.5
62 4 0.702587 0.38053 0.5
67 4 0.770773 0.383572 0.5
61 4 0.99794 0.376698 0.5
32 2 0.350952 0.444786 0.5
8 1 0.406525 0.472229 0.5
77 4 0.477389 0.469443 0.5
43 3 0.891025 0.452929 0.5
46 3 0.276464 0.527106 0.5
22 2 0.433781 0.552369 0.5
55 3 0.85438 0.563922 0.5
17 1 0.0826803 0.607863 0.5
28 2 0.119214 0.622118 0.5
47 3 0.150332 0.628949 0.5
78 4 0.523805 0.590575 0.5
24 2 0.737408 0.619612 0.5
57 3 0.918284 0.60529 0.5
39 2 0.0355606 0.667067 0.5
25 2 0.0592993 0.642787 0.5
1 1 0.178119 0.646833 0.5
33 2 0.584974 0.66147 0.5
9 1 0.672734 0.643595 0.5
58 3 0.778881 0.651578 0.5
74 4 0.970052 0.659755 0.5
34 2 0.085363 0.696211 0.5
75 4 0.294859 0.695857 0.5
10 1 0.706951 0.719918 0.5
18 1 0.74021 0.713615 0.5
69 4 0.00831524 0.754239 0.5
50 3 0.0659718 0.787208 0.5
37 2 0.236791 0.745255 0.5
42 3 0.0434235 0.818842 0.5
76 4 0.0831091 0.814533 0.5
48 3 0.610093 0.837108 0.5
7 1 0.825122 0.817715 0.5
73 4 0.0882307 0.893004 0.5
6 1 0.304509 0.889596 0.5
36 2 0.35294 0.858742 0.5
23 2 0.398278 0.851271 0.5
49 3 0.655434 0.88187 0.5
45 3 0.833514 0.867688 0.5
59 3 0.419343 0.895101 0.5
52 3 0.639252 0.909332 0.5
70 4 0.852796 0.939036 0.5
3 1 0.952515 0.92146 0.5
63 4 0.105787 0.958035 0.5
31 2 0.418397 0.996771 0.5
66 4 0.522339 0.953399 0.5
16 1 0.900039 0.961968 0.5
53 3 0.924674 0.993313 0.5
64 4 0.930624 0.991553 0.5
12 1 0.987622 0.963444 0.5
ITEM: TIMESTEP
10
ITEM: NUMBER OF ATOMS
80
ITEM: BOX BOUNDS pp pp pp
-9.2841981297665992e+00 9.2841981297665992e+00
-9.2841981297665992e+00 9.2841981297665992e+00
-1.0000000000000001e-01 1.0000000000000001e-01
ITEM: ATOMS id type xs ys zs
29 2 0.00381062 0.0451597 0.5
44 3 0.327424 0.020485 0.5
14 1 0.578212 0.0045408 0.5
19 1 0.74481 0.0141166 0.5
4 1 0.345222 0.0896985 0.5
30 2 0.519716 0.0679675 0.5
51 3 0.490647 0.0958199 0.5
13 1 0.684126 0.104778 0.5
40 2 0.247692 0.124174 0.5
41 3 0.285256 0.133811 0.5
15 1 0.381274 0.133546 0.5
60 3 0.890352 0.149773 0.5
56 3 0.0981294 0.260389 0.5
20 1 0.619731 0.261672 0.5
5 1 0.637515 0.221488 0.5
79 4 0.657015 0.239413 0.5
35 2 0.205407 0.274287 0.5
71 4 0.594626 0.27875 0.5
68 4 0.690503 0.28138 0.5
65 4 0.848534 0.307338 0.5
38 2 0.968213 0.309869 0.5
26 2 0.559865 0.340209 0.5
72 4 0.590225 0.361372 0.5
2 1 0.63594 0.33023 0.5
80 4 0.640371 0.321727 0.5
11 1 0.992667 0.366092 0.5
27 2 0.948191 0.345495 0.5
54 3 0.131158 0.37594 0.5
21 2 0.365415 0.389775 0.5
62 4 0.702587 0.38053 0.5
67 4 0.770773 0.383572 0.5
61 4 0.998015 0.376848 0.5
32 2 0.350906 0.4448 0.5
8 1 0.406563 0.472247 0.5
77 4 0.477389 0.469443 0.5
43 3 0.891025 0.452929 0.5
46 3 0.276464 0.527106 0.5
22 2 0.433781 0.552369 0.5
55 3 0.85438 0.563922 0.5
17 1 0.0826282 0.607723 0.5
28 2 0.119212 0.622127 0.5
47 3 0.150326 0.628905 0.5
78 4 0.523805 0.590575 0.5
24 2 0.737407 0.619593 0.5
57 3 0.918284 0.60529 0.5
39 2 0.0354542 0.667135 0.5
25 2 0.059298 0.642781 0.5
1 1 0.178251 0.646911 0.5
33 2 0.584974 0.66147 0.5
9 1 0.672719 0.643601 0.5
58 3 0.778898 0.651591 0.5
74 4 0.970052 0.659755 0.5
34 2 0.0853987 0.696246 0.5
75 4 0.294859 0.695857 0.5
10 1 0.706783 0.71995 0.5
18 1 0.740378 0.713583 0.5
69 4 0.00831524 0.754239 0.5
50 3 0.0659758 0.78714 0.5
37 2 0.236791 0.745255 0.5
42 3 0.0433874 0.818878 0.5
76 4 0.0831412 0.814565 0.5
48 3 0.610093 0.837108 0.5
7 1 0.825112 0.817661 0.5
73 4 0.0882307 0.893004 0.5
6 1 0.30446 0.889628 0.5
36 2 0.352918 0.858723 0.5
23 2 0.398334 0.851228 0.5
49 3 0.655469 0.881812 0.5
45 3 0.833523 0.867743 0.5
59 3 0.419358 0.895132 0.5
52 3 0.639218 0.909391 0.5
70 4 0.852777 0.939027 0.5
3 1 0.952496 0.921354 0.5
63 4 0.105787 0.958035 0.5
31 2 0.418397 0.996771 0.5
66 4 0.522339 0.953399 0.5
16 1 0.899917 0.961896 0.5
53 3 0.924604 0.993425 0.5
64 4 0.930792 0.991555 0.5
12 1 0.987683 0.963517 0.5
ITEM: TIMESTEP
20
ITEM: NUMBER OF ATOMS
80
ITEM: BOX BOUNDS pp pp pp
-8.3783003012631507e+00 8.3783003012631507e+00
-8.3783003012631507e+00 8.3783003012631507e+00
-1.0000000000000001e-01 1.0000000000000001e-01
ITEM: ATOMS id type xs ys zs
29 2 0.00381079 0.0451606 0.5
44 3 0.327423 0.0204795 0.5
14 1 0.578212 0.0045408 0.5
19 1 0.74481 0.0141166 0.5
4 1 0.345011 0.0894445 0.5
30 2 0.519895 0.0677963 0.5
51 3 0.490468 0.0959912 0.5
13 1 0.684126 0.104778 0.5
40 2 0.247435 0.124108 0.5
41 3 0.285512 0.133878 0.5
15 1 0.381487 0.133805 0.5
60 3 0.890352 0.149773 0.5
56 3 0.0981294 0.260389 0.5
20 1 0.619616 0.261853 0.5
5 1 0.637408 0.220757 0.5
79 4 0.657501 0.239587 0.5
35 2 0.205407 0.274287 0.5
71 4 0.594321 0.278956 0.5
68 4 0.690503 0.28138 0.5
65 4 0.848534 0.307338 0.5
38 2 0.968305 0.309407 0.5
26 2 0.559692 0.340102 0.5
72 4 0.590329 0.361517 0.5
2 1 0.635761 0.330907 0.5
80 4 0.640659 0.321181 0.5
11 1 0.992778 0.365871 0.5
27 2 0.947724 0.345648 0.5
54 3 0.131158 0.37594 0.5
21 2 0.365451 0.389638 0.5
62 4 0.702587 0.38053 0.5
67 4 0.770773 0.383572 0.5
61 4 0.998279 0.377378 0.5
32 2 0.350714 0.444859 0.5
8 1 0.406719 0.472324 0.5
77 4 0.477389 0.469443 0.5
43 3 0.891025 0.452929 0.5
46 3 0.276464 0.527106 0.5
22 2 0.433781 0.552369 0.5
55 3 0.85438 0.563922 0.5
17 1 0.0824462 0.607193 0.5
28 2 0.11921 0.622139 0.5
47 3 0.150312 0.628749 0.5
78 4 0.523805 0.590575 0.5
24 2 0.737412 0.619501 0.5
57 3 0.918284 0.60529 0.5
39 2 0.035036 0.667385 0.5
25 2 0.0592528 0.642751 0.5
1 1 0.178751 0.647202 0.5
33 2 0.584974 0.66147 0.5
9 1 0.672625 0.64361 0.5
58 3 0.778978 0.65165 0.5
74 4 0.970052 0.659755 0.5
34 2 0.0855592 0.69641 0.5
75 4 0.294859 0.695857 0.5
10 1 0.706193 0.720086 0.5
18 1 0.740976 0.713472 0.5
69 4 0.00831524 0.754239 0.5
50 3 0.0659924 0.786875 0.5
37 2 0.236791 0.745255 0.5
42 3 0.0432322 0.81902 0.5
76 4 0.0832797 0.814687 0.5
48 3 0.610093 0.837108 0.5
7 1 0.825077 0.817449 0.5
73 4 0.0882307 0.893004 0.5
6 1 0.304266 0.889752 0.5
36 2 0.352842 0.858643 0.5
23 2 0.398541 0.851053 0.5
49 3 0.655597 0.881595 0.5
45 3 0.833559 0.867955 0.5
59 3 0.419421 0.895263 0.5
52 3 0.63909 0.909608 0.5
70 4 0.852688 0.938984 0.5
3 1 0.95244 0.920946 0.5
63 4 0.105787 0.958035 0.5
31 2 0.418397 0.996771 0.5
66 4 0.522339 0.953399 0.5
16 1 0.899457 0.961649 0.5
53 3 0.924362 0.993837 0.5
64 4 0.931391 0.991573 0.5
12 1 0.987932 0.963785 0.5
ITEM: TIMESTEP
30
ITEM: NUMBER OF ATOMS
80
ITEM: BOX BOUNDS pp pp pp
-7.7163102497709701e+00 7.7163102497709701e+00
-7.7163102497709701e+00 7.7163102497709701e+00
-1.0000000000000001e-01 1.0000000000000001e-01
ITEM: ATOMS id type xs ys zs
29 2 0.0038163 0.045189 0.5
44 3 0.32741 0.0204275 0.5
14 1 0.578219 0.00453243 0.5
19 1 0.74481 0.0141166 0.5
4 1 0.34461 0.0889515 0.5
30 2 0.520251 0.0674558 0.5
51 3 0.490104 0.09634 0.5
13 1 0.684126 0.104778 0.5
40 2 0.246915 0.123975 0.5
41 3 0.286011 0.134027 0.5
15 1 0.381922 0.134334 0.5
60 3 0.890352 0.149773 0.5
56 3 0.0981294 0.260389 0.5
20 1 0.61935 0.262134 0.5
5 1 0.637206 0.219326 0.5
79 4 0.658465 0.239912 0.5
35 2 0.205407 0.274287 0.5
71 4 0.593711 0.27935 0.5
68 4 0.690503 0.28138 0.5
65 4 0.848534 0.307338 0.5
38 2 0.968473 0.308451 0.5
26 2 0.559276 0.339887 0.5
72 4 0.590504 0.361843 0.5
2 1 0.635563 0.332229 0.5
80 4 0.641213 0.32018 0.5
11 1 0.993059 0.365513 0.5
27 2 0.946775 0.345949 0.5
54 3 0.131158 0.37594 0.5
21 2 0.365533 0.389328 0.5
62 4 0.702587 0.38053 0.5
67 4 0.770773 0.383572 0.5
61 4 0.998778 0.378391 0.5
32 2 0.350282 0.444997 0.5
8 1 0.40706 0.472478 0.5
77 4 0.477391 0.469443 0.5
43 3 0.891025 0.452929 0.5
46 3 0.276464 0.527106 0.5
22 2 0.433787 0.552386 0.5
55 3 0.85438 0.563922 0.5
17 1 0.0820844 0.606078 0.5
28 2 0.119212 0.62213 0.5
47 3 0.150337 0.628455 0.5
78 4 0.523805 0.590575 0.5
24 2 0.737445 0.619273 0.5
57 3 0.918284 0.60529 0.5
39 2 0.0341407 0.667899 0.5
25 2 0.0590869 0.642677 0.5
1 1 0.179773 0.647791 0.5
33 2 0.584972 0.66147 0.5
9 1 0.672356 0.643583 0.5
58 3 0.779188 0.651762 0.5
74 4 0.970052 0.659755 0.5
34 2 0.0859339 0.696798 0.5
75 4 0.294859 0.695857 0.5
10 1 0.705082 0.720413 0.5
18 1 0.742116 0.713289 0.5
69 4 0.00831524 0.754239 0.5
50 3 0.066029 0.786321 0.5
37 2 0.236791 0.745255 0.5
42 3 0.0428823 0.819323 0.5
76 4 0.083593 0.814938 0.5
48 3 0.610093 0.837108 0.5
7 1 0.825001 0.817 0.5
73 4 0.0882307 0.893004 0.5
6 1 0.303853 0.890016 0.5
36 2 0.352702 0.858471 0.5
23 2 0.398956 0.850672 0.5
49 3 0.655852 0.88116 0.5
45 3 0.833634 0.868404 0.5
59 3 0.419558 0.895553 0.5
52 3 0.638834 0.910042 0.5
70 4 0.852469 0.938878 0.5
3 1 0.952353 0.920095 0.5
63 4 0.105787 0.958035 0.5
31 2 0.418397 0.996771 0.5
66 4 0.522339 0.953399 0.5
16 1 0.898496 0.961193 0.5
53 3 0.923882 0.994674 0.5
64 4 0.932515 0.991639 0.5
12 1 0.988549 0.964267 0.5
ITEM: TIMESTEP
40
ITEM: NUMBER OF ATOMS
80
ITEM: BOX BOUNDS pp pp pp
-7.2466959568076836e+00 7.2466959568076836e+00
-7.2466959568076836e+00 7.2466959568076836e+00
-1.0000000000000001e-01 1.0000000000000001e-01
ITEM: ATOMS id type xs ys zs
29 2 0.00383815 0.0453046 0.5
44 3 0.32737 0.0202713 0.5
14 1 0.578271 0.00448011 0.5
19 1 0.74481 0.0141165 0.5
4 1 0.34402 0.0881763 0.5
30 2 0.520796 0.0669397 0.5
51 3 0.489509 0.0969102 0.5
13 1 0.684126 0.104778 0.5
40 2 0.246071 0.123758 0.5
41 3 0.286772 0.134308 0.5
15 1 0.382635 0.135202 0.5
60 3 0.890352 0.149773 0.5
56 3 0.0981294 0.260389 0.5
20 1 0.618864 0.262462 0.5
5 1 0.6369 0.217046 0.5
79 4 0.660006 0.240411 0.5
35 2 0.205407 0.274287 0.5
71 4 0.592703 0.279949 0.5
68 4 0.690514 0.28138 0.5
65 4 0.848534 0.307338 0.5
38 2 0.968726 0.30687 0.5
26 2 0.558509 0.339538 0.5
72 4 0.59074 0.362416 0.5
2 1 0.635475 0.33434 0.5
80 4 0.642077 0.318699 0.5
11 1 0.993592 0.365031 0.5
27 2 0.945211 0.34642 0.5
54 3 0.131158 0.37594 0.5
21 2 0.365675 0.388772 0.5
62 4 0.702587 0.38053 0.5
67 4 0.770773 0.383572 0.5
61 4 0.999557 0.379984 0.5
32 2 0.349528 0.445246 0.5
8 1 0.407611 0.4727 0.5
77 4 0.477423 0.469441 0.5
43 3 0.891025 0.452929 0.5
46 3 0.276464 0.527106 0.5
22 2 0.433816 0.552473 0.5
55 3 0.85438 0.563922 0.5
17 1 0.0814861 0.604174 0.5
28 2 0.119228 0.622068 0.5
47 3 0.150457 0.628008 0.5
78 4 0.523805 0.590575 0.5
24 2 0.737525 0.618842 0.5
57 3 0.918284 0.60529 0.5
39 2 0.0326306 0.668751 0.5
25 2 0.0587283 0.642545 0.5
1 1 0.181447 0.648752 0.5
33 2 0.584936 0.661478 0.5
9 1 0.671827 0.643447 0.5
58 3 0.779603 0.651911 0.5
74 4 0.970044 0.659754 0.5
34 2 0.0865978 0.697531 0.5
75 4 0.294859 0.695857 0.5
10 1 0.703376 0.721018 0.5
18 1 0.743891 0.713093 0.5
69 4 0.00831524 0.754239 0.5
50 3 0.0660919 0.785399 0.5
37 2 0.236791 0.745255 0.5
42 3 0.0422717 0.81983 0.5
76 4 0.0841407 0.815353 0.5
48 3 0.610085 0.8371 0.5
7 1 0.824875 0.816249 0.5
73 4 0.0882307 0.893004 0.5
6 1 0.303154 0.890464 0.5
36 2 0.352491 0.858174 0.5
23 2 0.399631 0.850018 0.5
49 3 0.656273 0.880468 0.5
45 3 0.83376 0.869155 0.5
59 3 0.419795 0.896055 0.5
52 3 0.638421 0.910742 0.5
70 4 0.852062 0.93868 0.5
3 1 0.952258 0.918651 0.5
63 4 0.105787 0.958035 0.5
31 2 0.418397 0.996771 0.5
66 4 0.522337 0.953397 0.5
16 1 0.896884 0.960507 0.5
53 3 0.923101 0.996069 0.5
64 4 0.934211 0.991789 0.5
12 1 0.989726 0.964932 0.5
ITEM: TIMESTEP
50
ITEM: NUMBER OF ATOMS
80
ITEM: BOX BOUNDS pp pp pp
-6.9400679977808331e+00 6.9400679977808331e+00
-6.9400679977808331e+00 6.9400679977808331e+00
-1.0000000000000001e-01 1.0000000000000001e-01
ITEM: ATOMS id type xs ys zs
29 2 0.00388498 0.0455626 0.5
44 3 0.327293 0.0199605 0.5
14 1 0.57842 0.00435931 0.5
19 1 0.744816 0.0141068 0.5
4 1 0.343262 0.0871053 0.5
30 2 0.521516 0.0662671 0.5
51 3 0.488661 0.0977224 0.5
13 1 0.684119 0.104788 0.5
40 2 0.244874 0.12345 0.5
41 3 0.287787 0.13476 0.5
15 1 0.383653 0.13644 0.5
60 3 0.890352 0.149773 0.5
56 3 0.0981294 0.260389 0.5
20 1 0.618106 0.262756 0.5
5 1 0.636499 0.213852 0.5
79 4 0.662158 0.241092 0.5
35 2 0.205407 0.274287 0.5
71 4 0.591248 0.280756 0.5
68 4 0.690576 0.281375 0.5
65 4 0.848534 0.307338 0.5
38 2 0.969063 0.304602 0.5
26 2 0.557309 0.339058 0.5
72 4 0.591014 0.363275 0.5
2 1 0.635615 0.337311 0.5
80 4 0.643262 0.316762 0.5
11 1 0.994442 0.364439 0.5
27 2 0.94296 0.347069 0.5
54 3 0.131158 0.37594 0.5
21 2 0.365874 0.387903 0.5
62 4 0.702588 0.380531 0.5
67 4 0.770773 0.383572 0.5
61 4 0.000621189 0.382194 0.5
32 2 0.348398 0.445627 0.5
8 1 0.408372 0.472988 0.5
77 4 0.477525 0.469437 0.5
43 3 0.891025 0.452929 0.5
46 3 0.276464 0.527106 0.5
22 2 0.433884 0.552678 0.5
55 3 0.85438 0.563922 0.5
17 1 0.0806078 0.601342 0.5
28 2 0.119271 0.621916 0.5
47 3 0.150726 0.627405 0.5
78 4 0.523805 0.590575 0.5
24 2 0.737667 0.618135 0.5
57 3 0.918284 0.60529 0.5
39 2 0.0304644 0.669985 0.5
25 2 0.0581284 0.642352 0.5
1 1 0.183838 0.650122 0.5
33 2 0.584818 0.661502 0.5
9 1 0.670996 0.643129 0.5
58 3 0.780276 0.652075 0.5
74 4 0.969996 0.659747 0.5
34 2 0.087588 0.698713 0.5
75 4 0.294859 0.695857 0.5
10 1 0.701065 0.721963 0.5
18 1 0.746336 0.712986 0.5
69 4 0.00831524 0.754239 0.5
50 3 0.0661848 0.784069 0.5
37 2 0.236791 0.745255 0.5
42 3 0.0413652 0.820567 0.5
76 4 0.0849543 0.815946 0.5
48 3 0.610047 0.837064 0.5
7 1 0.824692 0.81516 0.5
73 4 0.0882307 0.893004 0.5
6 1 0.302131 0.891124 0.5
36 2 0.352193 0.857726 0.5
23 2 0.400592 0.849049 0.5
49 3 0.656894 0.879516 0.5
45 3 0.833943 0.870244 0.5
59 3 0.420154 0.896812 0.5
52 3 0.637839 0.91173 0.5
70 4 0.851419 0.938368 0.5
3 1 0.952181 0.916515 0.5
63 4 0.105787 0.958035 0.5
31 2 0.418397 0.996771 0.5
66 4 0.522317 0.953378 0.5
16 1 0.894565 0.959606 0.5
53 3 0.921992 0.998097 0.5
64 4 0.936457 0.992058 0.5
12 1 0.991581 0.965728 0.5
ITEM: TIMESTEP
60
ITEM: NUMBER OF ATOMS
80
ITEM: BOX BOUNDS pp pp pp
-6.7374653621663088e+00 6.7374653621663088e+00
-6.7374653621663088e+00 6.7374653621663088e+00
-1.0000000000000001e-01 1.0000000000000001e-01
ITEM: ATOMS id type xs ys zs
29 2 0.00396059 0.0460054 0.5
44 3 0.32717 0.0194568 0.5
14 1 0.578714 0.00415665 0.5
19 1 0.744847 0.0140608 0.5
4 1 0.342368 0.0857457 0.5
30 2 0.522383 0.0654666 0.5
51 3 0.487558 0.0987788 0.5
13 1 0.684089 0.104833 0.5
40 2 0.243321 0.12305 0.5
41 3 0.289032 0.135409 0.5
15 1 0.384979 0.138054 0.5
60 3 0.890352 0.149773 0.5
56 3 0.0981294 0.260389 0.5
20 1 0.61706 0.262931 0.5
5 1 0.63601 0.209755 0.5
79 4 0.664903 0.241946 0.5
35 2 0.205407 0.274287 0.5
71 4 0.589346 0.281748 0.5
68 4 0.690724 0.28137 0.5
65 4 0.848534 0.307338 0.5
38 2 0.96948 0.301642 0.5
26 2 0.555613 0.338484 0.5
72 4 0.591292 0.364436 0.5
2 1 0.636061 0.341133 0.5
80 4 0.644757 0.314424 0.5
11 1 0.995652 0.363744 0.5
27 2 0.940013 0.347902 0.5
54 3 0.131158 0.37594 0.5
21 2 0.366127 0.386683 0.5
62 4 0.702608 0.380543 0.5
67 4 0.770773 0.383572 0.5
61 4 0.00194129 0.385016 0.5
32 2 0.346865 0.446148 0.5
8 1 0.409328 0.473336 0.5
77 4 0.477731 0.469427 0.5
43 3 0.891025 0.452929 0.5
46 3 0.276464 0.527106 0.5
22 2 0.434001 0.553039 0.5
55 3 0.85438 0.563922 0.5
17 1 0.0794272 0.597531 0.5
28 2 0.119344 0.621663 0.5
47 3 0.151183 0.62665 0.5
78 4 0.523805 0.590575 0.5
24 2 0.737877 0.617103 0.5
57 3 0.918284 0.60529 0.5
39 2 0.0276677 0.671614 0.5
25 2 0.0572663 0.642108 0.5
1 1 0.186948 0.651909 0.5
33 2 0.584578 0.661553 0.5
9 1 0.669852 0.642581 0.5
58 3 0.781239 0.652228 0.5
74 4 0.969869 0.659727 0.5
34 2 0.088914 0.700382 0.5
75 4 0.294859 0.695857 0.5
10 1 0.698178 0.723278 0.5
18 1 0.749434 0.713046 0.5
69 4 0.00831524 0.754239 0.5
50 3 0.0663087 0.782328 0.5
37 2 0.236791 0.745255 0.5
42 3 0.0401572 0.821536 0.5
76 4 0.0860384 0.816719 0.5
48 3 0.60996 0.836984 0.5
7 1 0.824451 0.813725 0.5
73 4 0.0882307 0.893004 0.5
6 1 0.300769 0.892007 0.5
36 2 0.351797 0.857111 0.5
23 2 0.401853 0.847747 0.5
49 3 0.657731 0.878323 0.5
45 3 0.834184 0.871679 0.5
59 3 0.42065 0.897846 0.5
52 3 0.637088 0.913003 0.5
70 4 0.850506 0.937923 0.5
3 1 0.952136 0.913663 0.5
63 4 0.105787 0.958035 0.5
31 2 0.418397 0.996771 0.5
66 4 0.522258 0.953325 0.5
16 1 0.891563 0.958524 0.5
53 3 0.920568 1.00076 0.5
64 4 0.939191 0.992457 0.5
12 1 0.994155 0.966598 0.5
ITEM: TIMESTEP
70
ITEM: NUMBER OF ATOMS
80
ITEM: BOX BOUNDS pp pp pp
-6.6160696171915383e+00 6.6160696171915383e+00
-6.6160696171915383e+00 6.6160696171915383e+00
-1.0000000000000001e-01 1.0000000000000001e-01
ITEM: ATOMS id type xs ys zs
29 2 0.00406331 0.0466614 0.5
44 3 0.326996 0.0187341 0.5
14 1 0.579187 0.00386231 0.5
19 1 0.744916 0.0139578 0.5
4 1 0.341378 0.0841184 0.5
30 2 0.523366 0.0645722 0.5
51 3 0.486213 0.100067 0.5
13 1 0.684031 0.104914 0.5
40 2 0.241425 0.122564 0.5
41 3 0.29047 0.136273 0.5
15 1 0.3866 0.140025 0.5
60 3 0.890352 0.149773 0.5
56 3 0.0981294 0.260389 0.5
20 1 0.615734 0.262917 0.5
5 1 0.635439 0.204847 0.5
79 4 0.668174 0.242939 0.5
35 2 0.205407 0.274287 0.5
71 4 0.587036 0.282892 0.5
68 4 0.690981 0.281387 0.5
65 4 0.848534 0.307338 0.5
38 2 0.969963 0.298032 0.5
26 2 0.5534 0.337856 0.5
72 4 0.591538 0.365891 0.5
2 1 0.636845 0.345725 0.5
80 4 0.64654 0.311754 0.5
11 1 0.99724 0.362945 0.5
27 2 0.936419 0.348919 0.5
54 3 0.131158 0.37594 0.5
21 2 0.366433 0.385111 0.5
62 4 0.702677 0.380585 0.5
67 4 0.770773 0.383572 0.5
61 4 0.00346391 0.388409 0.5
32 2 0.344931 0.446811 0.5
8 1 0.41045 0.473722 0.5
77 4 0.478065 0.469409 0.5
43 3 0.891025 0.452929 0.5
46 3 0.276464 0.527106 0.5
22 2 0.434175 0.553578 0.5
55 3 0.85438 0.563922 0.5
17 1 0.0779465 0.592771 0.5
28 2 0.119442 0.621318 0.5
47 3 0.151852 0.625753 0.5
78 4 0.523805 0.590575 0.5
24 2 0.738156 0.615729 0.5
57 3 0.918284 0.60529 0.5
39 2 0.0243152 0.673627 0.5
25 2 0.0561454 0.641826 0.5
1 1 0.19072 0.65408 0.5
33 2 0.584188 0.661637 0.5
9 1 0.66842 0.641786 0.5
58 3 0.782501 0.652347 0.5
74 4 0.969632 0.659684 0.5
34 2 0.0905624 0.702504 0.5
75 4 0.294859 0.695857 0.5
10 1 0.694768 0.724967 0.5
18 1 0.753125 0.713324 0.5
69 4 0.00831518 0.754239 0.5
50 3 0.0664603 0.780209 0.5
37 2 0.236798 0.745268 0.5
42 3 0.038667 0.822722 0.5
76 4 0.0873751 0.817659 0.5
48 3 0.609811 0.83685 0.5
7 1 0.824155 0.811959 0.5
73 4 0.0882307 0.893004 0.5
6 1 0.299077 0.893115 0.5
36 2 0.351301 0.856325 0.5
23 2 0.403411 0.846114 0.5
49 3 0.65879 0.876918 0.5
45 3 0.834481 0.873445 0.5
59 3 0.421281 0.899157 0.5
52 3 0.636179 0.914542 0.5
70 4 0.849302 0.937333 0.5
3 1 0.952125 0.910149 0.5
63 4 0.105787 0.958035 0.5
31 2 0.418397 0.996771 0.5
66 4 0.522148 0.953226 0.5
16 1 0.887975 0.957314 0.5
53 3 0.918875 0.00401209 0.5
64 4 0.942324 0.992973 0.5
12 1 0.997416 0.967491 0.5
ITEM: TIMESTEP
80
ITEM: NUMBER OF ATOMS
80
ITEM: BOX BOUNDS pp pp pp
-6.5653781189475975e+00 6.5653781189475975e+00
-6.5653781189475975e+00 6.5653781189475975e+00
-1.0000000000000001e-01 1.0000000000000001e-01
ITEM: ATOMS id type xs ys zs
29 2 0.00418597 0.0475423 0.5
44 3 0.32677 0.0177807 0.5
14 1 0.579853 0.00347081 0.5
19 1 0.74503 0.0137867 0.5
4 1 0.340333 0.0822645 0.5
30 2 0.524426 0.0636222 0.5
51 3 0.484655 0.101559 0.5
13 1 0.683956 0.105001 0.5
40 2 0.239223 0.122005 0.5
41 3 0.292051 0.137352 0.5
15 1 0.388492 0.142313 0.5
60 3 0.890352 0.149773 0.5
56 3 0.0981294 0.260389 0.5
20 1 0.614158 0.262678 0.5
5 1 0.63479 0.199285 0.5
79 4 0.671867 0.244026 0.5
35 2 0.205407 0.274287 0.5
71 4 0.584382 0.284171 0.5
68 4 0.69135 0.281453 0.5
65 4 0.848534 0.307338 0.5
38 2 0.970497 0.29386 0.5
26 2 0.550701 0.337208 0.5
72 4 0.591712 0.367604 0.5
2 1 0.637966 0.350942 0.5
80 4 0.648574 0.308842 0.5
11 1 0.999193 0.36204 0.5
27 2 0.932269 0.350105 0.5
54 3 0.131158 0.37594 0.5
21 2 0.366789 0.383217 0.5
62 4 0.702824 0.380667 0.5
67 4 0.770773 0.383572 0.5
61 4 0.00512748 0.3923 0.5
32 2 0.342622 0.447605 0.5
8 1 0.411698 0.474121 0.5
77 4 0.47854 0.469383 0.5
43 3 0.891025 0.452929 0.5
46 3 0.276464 0.527106 0.5
22 2 0.434404 0.554306 0.5
55 3 0.85438 0.563922 0.5
17 1 0.0761844 0.587175 0.5
28 2 0.119549 0.62091 0.5
47 3 0.152739 0.624726 0.5
78 4 0.523805 0.590575 0.5
24 2 0.738503 0.614031 0.5
57 3 0.918284 0.60529 0.5
39 2 0.0205293 0.675988 0.5
25 2 0.0547927 0.641526 0.5
1 1 0.195045 0.656557 0.5
33 2 0.583633 0.661759 0.5
9 1 0.666755 0.640752 0.5
58 3 0.784044 0.652408 0.5
74 4 0.96926 0.659607 0.5
34 2 0.0924999 0.704972 0.5
75 4 0.294859 0.695857 0.5
10 1 0.690922 0.727006 0.5
18 1 0.7573 0.71383 0.5
69 4 0.00831131 0.754238 0.5
50 3 0.0666299 0.777799 0.5
37 2 0.236828 0.745327 0.5
42 3 0.0369387 0.824093 0.5
76 4 0.0889239 0.818742 0.5
48 3 0.609592 0.836658 0.5
7 1 0.823812 0.809905 0.5
73 4 0.0882307 0.893004 0.5
6 1 0.29708 0.894434 0.5
36 2 0.350716 0.855378 0.5
23 2 0.405249 0.844175 0.5
49 3 0.660054 0.875342 0.5
45 3 0.834824 0.875499 0.5
59 3 0.422024 0.900723 0.5
52 3 0.635134 0.91631 0.5
70 4 0.8478 0.93659 0.5
3 1 0.952142 0.906087 0.5
63 4 0.105787 0.958035 0.5
31 2 0.418397 0.996771 0.5
66 4 0.52198 0.953075 0.5
16 1 0.883968 0.95605 0.5
53 3 0.916986 0.00773989 0.5
64 4 0.945738 0.993572 0.5
12 1 1.00126 0.968356 0.5
ITEM: TIMESTEP
90
ITEM: NUMBER OF ATOMS
80
ITEM: BOX BOUNDS pp pp pp
-6.5737364653511818e+00 6.5737364653511818e+00
-6.5737364653511818e+00 6.5737364653511818e+00
-1.0000000000000001e-01 1.0000000000000001e-01
ITEM: ATOMS id type xs ys zs
29 2 0.00431716 0.0486421 0.5
44 3 0.326497 0.0165991 0.5
14 1 0.580712 0.00298115 0.5
19 1 0.745192 0.013546 0.5
4 1 0.339263 0.0802444 0.5
30 2 0.525521 0.0626561 0.5
51 3 0.482925 0.103215 0.5
13 1 0.683885 0.105063 0.5
40 2 0.236782 0.121384 0.5
41 3 0.293723 0.138631 0.5
15 1 0.390603 0.144857 0.5
60 3 0.890352 0.149773 0.5
56 3 0.0981294 0.260389 0.5
20 1 0.612388 0.262205 0.5
5 1 0.634076 0.193268 0.5
79 4 0.675853 0.245151 0.5
35 2 0.205407 0.274287 0.5
71 4 0.581467 0.285574 0.5
68 4 0.691827 0.281589 0.5
65 4 0.848534 0.307338 0.5
38 2 0.971055 0.289257 0.5
26 2 0.547593 0.336573 0.5
72 4 0.591778 0.369519 0.5
2 1 0.639376 0.356588 0.5
80 4 0.650804 0.305791 0.5
11 1 1.00147 0.361029 0.5
27 2 0.927688 0.351422 0.5
54 3 0.131158 0.37594 0.5
21 2 0.367193 0.381062 0.5
62 4 0.703073 0.380796 0.5
67 4 0.770773 0.383572 0.5
61 4 0.00687678 0.396597 0.5
32 2 0.339993 0.448508 0.5
8 1 0.413023 0.474498 0.5
77 4 0.479158 0.469347 0.5
43 3 0.891025 0.452929 0.5
46 3 0.276464 0.527106 0.5
22 2 0.434686 0.555217 0.5
55 3 0.85438 0.563922 0.5
17 1 0.0741779 0.580907 0.5
28 2 0.119646 0.620477 0.5
47 3 0.153832 0.623587 0.5
78 4 0.523805 0.590575 0.5
24 2 0.738911 0.612058 0.5
57 3 0.918285 0.60529 0.5
39 2 0.0164652 0.678633 0.5
25 2 0.0532536 0.641227 0.5
1 1 0.199781 0.659242 0.5
33 2 0.58291 0.661924 0.5
9 1 0.664937 0.639515 0.5
58 3 0.785831 0.652391 0.5
74 4 0.968741 0.659482 0.5
34 2 0.094675 0.707661 0.5
75 4 0.294859 0.695857 0.5
10 1 0.686746 0.729343 0.5
18 1 0.761798 0.714522 0.5
69 4 0.00829603 0.754231 0.5
50 3 0.0668071 0.775214 0.5
37 2 0.236893 0.745463 0.5
42 3 0.0350365 0.825604 0.5
76 4 0.0906267 0.819933 0.5
48 3 0.609303 0.836413 0.5
7 1 0.823449 0.807646 0.5
73 4 0.0882307 0.893004 0.5
6 1 0.294827 0.89594 0.5
36 2 0.350062 0.854297 0.5
23 2 0.407334 0.841976 0.5
49 3 0.661496 0.873643 0.5
45 3 0.835187 0.877743 0.5
59 3 0.422846 0.902498 0.5
52 3 0.633981 0.918254 0.5
70 4 0.84601 0.935706 0.5
3 1 0.952185 0.901616 0.5
63 4 0.105787 0.958035 0.5
31 2 0.418397 0.996771 0.5
66 4 0.521756 0.952875 0.5
16 1 0.879771 0.954832 0.5
53 3 0.914986 0.0118247 0.5
64 4 0.949298 0.994211 0.5
12 1 1.00554 0.969153 0.5
ITEM: TIMESTEP
100
ITEM: NUMBER OF ATOMS
80
ITEM: BOX BOUNDS pp pp pp
-6.6224352798640904e+00 6.6224352798640904e+00
-6.6224352798640904e+00 6.6224352798640904e+00
-1.0000000000000001e-01 1.0000000000000001e-01
ITEM: ATOMS id type xs ys zs
29 2 0.00444395 0.0499414 0.5
44 3 0.326181 0.0152013 0.5
14 1 0.581749 0.00239581 0.5
19 1 0.745395 0.0132424 0.5
4 1 0.338188 0.078127 0.5
30 2 0.526613 0.0617093 0.5
51 3 0.481069 0.104991 0.5
13 1 0.68384 0.105069 0.5
40 2 0.234179 0.120715 0.5
41 3 0.295447 0.140086 0.5
15 1 0.392874 0.147586 0.5
60 3 0.890352 0.149773 0.5
56 3 0.0981294 0.260389 0.5
20 1 0.610493 0.261525 0.5
5 1 0.633313 0.186995 0.5
79 4 0.679997 0.246254 0.5
35 2 0.205407 0.274287 0.5
71 4 0.578371 0.28708 0.5
68 4 0.692406 0.281797 0.5
65 4 0.848534 0.307338 0.5
38 2 0.971613 0.284364 0.5
26 2 0.544184 0.335979 0.5
72 4 0.591707 0.371571 0.5
2 1 0.640999 0.36248 0.5
80 4 0.653166 0.302703 0.5
11 1 0.00399242 0.359914 0.5
27 2 0.922818 0.352824 0.5
54 3 0.131158 0.37594 0.5
21 2 0.367641 0.378724 0.5
62 4 0.703443 0.380971 0.5
67 4 0.770773 0.383572 0.5
61 4 0.00866322 0.401202 0.5
32 2 0.337111 0.449493 0.5
8 1 0.414374 0.47482 0.5
77 4 0.479914 0.4693 0.5
43 3 0.891025 0.452929 0.5
46 3 0.276464 0.527106 0.5
22 2 0.435012 0.556296 0.5
55 3 0.85438 0.563922 0.5
17 1 0.0719873 0.574144 0.5
28 2 0.119714 0.620063 0.5
47 3 0.155107 0.622348 0.5
78 4 0.523805 0.590575 0.5
24 2 0.739376 0.609881 0.5
57 3 0.918285 0.60529 0.5
39 2 0.0122723 0.681504 0.5
25 2 0.0515817 0.640944 0.5
1 1 0.204779 0.662032 0.5
33 2 0.582028 0.662133 0.5
9 1 0.66305 0.638122 0.5
58 3 0.787814 0.652284 0.5
74 4 0.96807 0.659296 0.5
34 2 0.0970248 0.710444 0.5
75 4 0.294859 0.695857 0.5
10 1 0.682354 0.731912 0.5
18 1 0.766452 0.715334 0.5
69 4 0.00826486 0.754223 0.5
50 3 0.0669759 0.77257 0.5
37 2 0.237003 0.7457 0.5
42 3 0.0330326 0.827202 0.5
76 4 0.0924178 0.82119 0.5
48 3 0.608951 0.836124 0.5
7 1 0.823096 0.805279 0.5
73 4 0.0882307 0.893004 0.5
6 1 0.292371 0.8976 0.5
36 2 0.349367 0.853112 0.5
23 2 0.409626 0.839575 0.5
49 3 0.663075 0.871869 0.5
45 3 0.835538 0.880057 0.5
59 3 0.423706 0.904424 0.5
52 3 0.632754 0.920317 0.5
70 4 0.843955 0.934704 0.5
3 1 0.952253 0.896866 0.5
63 4 0.105787 0.958035 0.5
31 2 0.418397 0.996771 0.5
66 4 0.521481 0.952632 0.5
16 1 0.875599 0.953764 0.5
53 3 0.912956 0.0161402 0.5
64 4 0.952866 0.994859 0.5
12 1 0.0100929 0.96985 0.5
ITEM: TIMESTEP
110
ITEM: NUMBER OF ATOMS
80
ITEM: BOX BOUNDS pp pp pp
-6.6857400073375874e+00 6.6857400073375874e+00
-6.6857400073375874e+00 6.6857400073375874e+00
-1.0000000000000001e-01 1.0000000000000001e-01
ITEM: ATOMS id type xs ys zs
29 2 0.00455548 0.0514163 0.5
44 3 0.325827 0.0136005 0.5
14 1 0.58294 0.00172542 0.5
19 1 0.745633 0.0128863 0.5
4 1 0.337127 0.0759741 0.5
30 2 0.527673 0.0608088 0.5
51 3 0.479131 0.106846 0.5
13 1 0.683844 0.104991 0.5
40 2 0.231476 0.120011 0.5
41 3 0.297195 0.141689 0.5
15 1 0.395241 0.150442 0.5
60 3 0.890352 0.149773 0.5
56 3 0.0981294 0.260389 0.5
20 1 0.60855 0.260682 0.5
5 1 0.632512 0.180635 0.5
79 4 0.684186 0.247276 0.5
35 2 0.205407 0.274287 0.5
71 4 0.575147 0.288664 0.5
68 4 0.693075 0.282076 0.5
65 4 0.848534 0.307338 0.5
38 2 0.972143 0.279309 0.5
26 2 0.540581 0.335452 0.5
72 4 0.591479 0.373697 0.5
2 1 0.642751 0.368468 0.5
80 4 0.655605 0.299654 0.5
11 1 0.00670193 0.358702 0.5
27 2 0.917789 0.354262 0.5
54 3 0.131158 0.37594 0.5
21 2 0.36813 0.37628 0.5
62 4 0.703948 0.381183 0.5
67 4 0.770773 0.383572 0.5
61 4 0.0104529 0.406032 0.5
32 2 0.334042 0.450532 0.5
8 1 0.415706 0.475057 0.5
77 4 0.480799 0.469242 0.5
43 3 0.891025 0.452929 0.5
46 3 0.276464 0.527106 0.5
22 2 0.435375 0.557522 0.5
55 3 0.854379 0.563921 0.5
17 1 0.0696881 0.567032 0.5
28 2 0.119738 0.619707 0.5
47 3 0.156539 0.621014 0.5
78 4 0.523805 0.590575 0.5
24 2 0.739895 0.607568 0.5
57 3 0.918285 0.605291 0.5
39 2 0.00806 0.684571 0.5
25 2 0.0498268 0.640688 0.5
1 1 0.209913 0.664838 0.5
33 2 0.580999 0.662386 0.5
9 1 0.661146 0.636605 0.5
58 3 0.789945 0.652075 0.5
74 4 0.967254 0.659033 0.5
34 2 0.0994887 0.713207 0.5
75 4 0.294859 0.695857 0.5
10 1 0.677841 0.734648 0.5
18 1 0.771138 0.716213 0.5
69 4 0.00821623 0.754227 0.5
50 3 0.0671167 0.769967 0.5
37 2 0.237158 0.746058 0.5
42 3 0.0309939 0.82884 0.5
76 4 0.0942368 0.822478 0.5
48 3 0.608545 0.835799 0.5
7 1 0.822777 0.802887 0.5
73 4 0.0882307 0.893004 0.5
6 1 0.289759 0.899387 0.5
36 2 0.348642 0.851847 0.5
23 2 0.412089 0.837026 0.5
49 3 0.664752 0.870061 0.5
45 3 0.835852 0.882335 0.5
59 3 0.42458 0.906451 0.5
52 3 0.631489 0.92244 0.5
70 4 0.841655 0.933605 0.5
3 1 0.95234 0.891951 0.5
63 4 0.105787 0.958035 0.5
31 2 0.418397 0.996771 0.5
66 4 0.521166 0.952356 0.5
16 1 0.871605 0.952927 0.5
53 3 0.910937 0.0205881 0.5
64 4 0.956339 0.995505 0.5
12 1 0.0148497 0.970418 0.5
ITEM: TIMESTEP
120
ITEM: NUMBER OF ATOMS
80
ITEM: BOX BOUNDS pp pp pp
-6.7336246015082537e+00 6.7336246015082537e+00
-6.7336246015082537e+00 6.7336246015082537e+00
-1.0000000000000001e-01 1.0000000000000001e-01
ITEM: ATOMS id type xs ys zs
29 2 0.00464638 0.0530512 0.5
44 3 0.325438 0.0118008 0.5
14 1 0.58426 0.00098419 0.5
19 1 0.745901 0.0124868 0.5
4 1 0.336093 0.0738325 0.5
30 2 0.52868 0.0599716 0.5
51 3 0.477149 0.108749 0.5
13 1 0.683923 0.104805 0.5
40 2 0.228712 0.119284 0.5
41 3 0.298948 0.143418 0.5
15 1 0.397655 0.153392 0.5
60 3 0.890352 0.149773 0.5
56 3 0.0981294 0.260389 0.5
20 1 0.606619 0.259726 0.5
5 1 0.631677 0.174297 0.5
79 4 0.688346 0.248175 0.5
35 2 0.205407 0.274287 0.5
71 4 0.571825 0.290316 0.5
68 4 0.693828 0.282427 0.5
65 4 0.848534 0.307338 0.5
38 2 0.972623 0.27418 0.5
26 2 0.536868 0.335013 0.5
72 4 0.591083 0.375855 0.5
2 1 0.644556 0.374448 0.5
80 4 0.658084 0.296691 0.5
11 1 0.00953418 0.357392 0.5
27 2 0.912697 0.355694 0.5
54 3 0.131158 0.37594 0.5
21 2 0.368654 0.373782 0.5
62 4 0.7046 0.381425 0.5
67 4 0.770773 0.383572 0.5
61 4 0.0122322 0.411038 0.5
32 2 0.330832 0.451603 0.5
8 1 0.416989 0.475191 0.5
77 4 0.481809 0.469172 0.5
43 3 0.891025 0.452929 0.5
46 3 0.276464 0.527106 0.5