ITEM: TIMESTEP
250
ITEM: NUMBER OF ATOMS
27
ITEM: BOX BOUNDS pp pp pp
-4.8302140511879941e+00 4.8302140511879941e+00
-4.8316215524610024e+00 4.8316215524610024e+00
-1.0000000000000001e-01 1.0000000000000001e-01
ITEM: ATOMS id type xs ys zs
16 1 0.406045 0.132723 0.499459
52 1 0.886295 0.102989 0.500236
7 1 0.970969 0.0183746 0.498965
34 1 0.0369044 0.141907 0.501255
15 1 0.167207 0.206586 0.499216
79 1 0.480484 0.198413 0.499973
42 1 0.535458 0.138137 0.498137
36 1 0.91414 0.184634 0.50123
17 1 0.011758 0.279992 0.499903
48 1 0.274517 0.26336 0.497991
54 1 0.354477 0.235567 0.498742
44 1 0.445706 0.257133 0.499876
13 1 0.570621 0.254899 0.501113
46 1 0.885313 0.289328 0.501508
9 1 0.143185 0.3502 0.50078
71 1 0.248013 0.34557 0.500205
10 1 0.354943 0.368711 0.500148
45 1 0.815638 0.355245 0.500351
6 1 0.930152 0.404764 0.500099
1 1 0.802054 0.477126 0.500378
19 1 0.818344 0.627058 0.501285
28 1 0.703763 0.695097 0.500748
27 1 0.817172 0.764545 0.498972
55 1 0.706912 0.811734 0.500772
77 1 0.780071 0.846638 0.499583
18 1 0.737208 0.936273 0.500305
60 1 0.839919 0.00994985 0.500365
ITEM: TIMESTEP
500
ITEM: NUMBER OF ATOMS
27
ITEM: BOX BOUNDS pp pp pp
-4.8290062500759694e+00 4.8290062500759694e+00
-4.8207499899816195e+00 4.8207499899816195e+00
-1.0000000000000001e-01 1.0000000000000001e-01
ITEM: ATOMS id type xs ys zs
16 1 0.406368 0.131089 0.500859
52 1 0.886193 0.103494 0.499166
7 1 0.971909 0.0189038 0.499615
34 1 0.0380339 0.142388 0.502541
15 1 0.166553 0.207811 0.499533
79 1 0.481226 0.197693 0.500496
42 1 0.536515 0.137596 0.499236
36 1 0.915353 0.185131 0.500093
17 1 0.01319 0.280156 0.499535
48 1 0.274523 0.263809 0.498398
54 1 0.354351 0.234911 0.498709
44 1 0.446173 0.25624 0.498336
13 1 0.570418 0.255171 0.501578
46 1 0.885151 0.288755 0.500693
9 1 0.142796 0.352481 0.50035
71 1 0.247791 0.346263 0.501182
10 1 0.354892 0.369164 0.500496
45 1 0.815523 0.355075 0.499811
6 1 0.92998 0.404786 0.500212
1 1 0.803149 0.478088 0.499748
19 1 0.818355 0.628233 0.50137
28 1 0.70314 0.696565 0.49987
27 1 0.817074 0.765252 0.501386
55 1 0.705753 0.813306 0.502623
77 1 0.779726 0.847643 0.502049
18 1 0.737593 0.937399 0.500713
60 1 0.840918 0.0102491 0.501843
ITEM: TIMESTEP
750
ITEM: NUMBER OF ATOMS
27
ITEM: BOX BOUNDS pp pp pp
-4.8277984489639438e+00 4.8277984489639438e+00
-4.8192285766063945e+00 4.8192285766063945e+00
-1.0000000000000001e-01 1.0000000000000001e-01
ITEM: ATOMS id type xs ys zs
16 1 0.405856 0.131393 0.502373
52 1 0.885914 0.103167 0.497869
7 1 0.971979 0.0190064 0.499108
34 1 0.0387288 0.142644 0.502129
15 1 0.165537 0.208542 0.500837
79 1 0.480365 0.197786 0.501608
42 1 0.535522 0.136943 0.498405
36 1 0.915574 0.184798 0.498196
17 1 0.0138397 0.280465 0.499229
48 1 0.274962 0.263483 0.497433
54 1 0.354688 0.234666 0.499108
44 1 0.446065 0.256982 0.498945
13 1 0.570606 0.254174 0.501318
46 1 0.885065 0.288846 0.501216
9 1 0.143532 0.352389 0.500511
71 1 0.248106 0.346235 0.499982
10 1 0.354991 0.368745 0.50388
45 1 0.815562 0.356143 0.500271
6 1 0.930837 0.404839 0.501403
1 1 0.80373 0.478491 0.497997
19 1 0.819789 0.628888 0.501887
28 1 0.705146 0.696329 0.498701
27 1 0.817365 0.765842 0.501424
55 1 0.704627 0.813452 0.502445
77 1 0.778575 0.847244 0.501877
18 1 0.738302 0.937953 0.49923
60 1 0.841395 0.0107176 0.500511
ITEM: TIMESTEP
1000
ITEM: NUMBER OF ATOMS
27
ITEM: BOX BOUNDS pp pp pp
-4.8265906478519192e+00 4.8265906478519192e+00
-4.8143047385259639e+00 4.8143047385259639e+00
-1.0000000000000001e-01 1.0000000000000001e-01
ITEM: ATOMS id type xs ys zs
16 1 0.406213 0.131608 0.501495
52 1 0.887927 0.103017 0.498299
7 1 0.971987 0.0175501 0.501385
34 1 0.0373778 0.141887 0.500404
15 1 0.165417 0.209795 0.499193
79 1 0.480746 0.198103 0.50134
42 1 0.535727 0.137076 0.500056
36 1 0.915452 0.18564 0.498537
17 1 0.0145122 0.280297 0.50011
48 1 0.27475 0.264828 0.498861
54 1 0.354408 0.234748 0.501007
44 1 0.445603 0.257073 0.49865
13 1 0.570403 0.254489 0.500656
46 1 0.885337 0.289409 0.502087
9 1 0.143539 0.354023 0.499049
71 1 0.248395 0.347307 0.500043
10 1 0.35569 0.369245 0.50411
45 1 0.81542 0.355307 0.499623
6 1 0.93101 0.40462 0.502649
1 1 0.803463 0.478121 0.500299
19 1 0.820281 0.628456 0.502886
28 1 0.704981 0.695641 0.49728
27 1 0.819125 0.766067 0.502084
55 1 0.705965 0.81317 0.503769
77 1 0.779674 0.847502 0.501179
18 1 0.738069 0.937739 0.498083
60 1 0.841182 0.0107364 0.500035
ITEM: TIMESTEP
1250
ITEM: NUMBER OF ATOMS
27
ITEM: BOX BOUNDS pp pp pp
-4.8253828467398945e+00 4.8253828467398945e+00
-4.8086883908312865e+00 4.8086883908312865e+00
-1.0000000000000001e-01 1.0000000000000001e-01
ITEM: ATOMS id type xs ys zs
16 1 0.405753 0.130727 0.500634
52 1 0.888889 0.102715 0.498293
7 1 0.973259 0.0170406 0.501834
34 1 0.0388617 0.141453 0.499931
15 1 0.16661 0.209816 0.500328
79 1 0.481201 0.197384 0.502196
42 1 0.535716 0.136167 0.50023
36 1 0.916243 0.185035 0.49716
17 1 0.0143465 0.280562 0.50155
48 1 0.275114 0.264611 0.497092
54 1 0.354781 0.235091 0.501191
44 1 0.446302 0.256425 0.500423
13 1 0.571562 0.253792 0.499532
46 1 0.88551 0.289204 0.50211
9 1 0.143918 0.354614 0.497933
71 1 0.248753 0.347288 0.500022
10 1 0.356079 0.369225 0.504255
45 1 0.816555 0.355746 0.497351
6 1 0.931039 0.405134 0.50356
1 1 0.803907 0.478004 0.499403
19 1 0.82024 0.628947 0.502794
28 1 0.705057 0.697123 0.50008
27 1 0.818529 0.766489 0.502872
55 1 0.70674 0.813895 0.503399
77 1 0.779874 0.848791 0.500754
18 1 0.737411 0.938833 0.498046
60 1 0.842193 0.0103981 0.500311
ITEM: TIMESTEP
1500
ITEM: NUMBER OF ATOMS
27
ITEM: BOX BOUNDS pp pp pp
-4.8241750456278689e+00 4.8241750456278689e+00
-4.7985882225856855e+00 4.7985882225856855e+00
-1.0000000000000001e-01 1.0000000000000001e-01
ITEM: ATOMS id type xs ys zs
16 1 0.406455 0.130874 0.50031
52 1 0.887774 0.101974 0.498901
7 1 0.973424 0.0169431 0.501789
34 1 0.0389047 0.141865 0.498767
15 1 0.167122 0.208134 0.498398
79 1 0.481476 0.197627 0.501725
42 1 0.536399 0.136743 0.499153
36 1 0.915686 0.184892 0.500551
17 1 0.0146757 0.280076 0.500792
48 1 0.27574 0.264247 0.497626
54 1 0.355551 0.234932 0.500525
44 1 0.44695 0.257058 0.497353
13 1 0.571883 0.254176 0.499232
46 1 0.884113 0.288711 0.501281
9 1 0.144481 0.353313 0.500236
71 1 0.249361 0.346731 0.500741
10 1 0.355945 0.369964 0.504695
45 1 0.815663 0.356099 0.498535
6 1 0.9305 0.404465 0.503806
1 1 0.803976 0.478811 0.501107
19 1 0.820731 0.629168 0.502859
28 1 0.705768 0.697206 0.498755
27 1 0.81888 0.76753 0.504606
55 1 0.705804 0.814248 0.502839
77 1 0.779454 0.84934 0.500093
18 1 0.736309 0.939221 0.498122
60 1 0.842022 0.00908433 0.501424
ITEM: TIMESTEP
1750
ITEM: NUMBER OF ATOMS
27
ITEM: BOX BOUNDS pp pp pp
-4.8229672445158442e+00 4.8229672445158442e+00
-4.7976396307163682e+00 4.7976396307163682e+00
-1.0000000000000001e-01 1.0000000000000001e-01
ITEM: ATOMS id type xs ys zs
16 1 0.408389 0.131145 0.499713
52 1 0.888446 0.101208 0.498338
7 1 0.974037 0.0165853 0.500498
34 1 0.0393009 0.141643 0.497724
15 1 0.167747 0.207785 0.499145
79 1 0.483122 0.197778 0.4996
42 1 0.537793 0.136852 0.498405
36 1 0.916669 0.184099 0.499428
17 1 0.0144803 0.280063 0.500271
48 1 0.276146 0.264524 0.497179
54 1 0.356173 0.235772 0.500405
44 1 0.44796 0.256778 0.497289
13 1 0.573147 0.254704 0.500414
46 1 0.883109 0.287884 0.501643
9 1 0.144638 0.353108 0.501607
71 1 0.249932 0.347148 0.500583
10 1 0.357215 0.370317 0.505299
45 1 0.814318 0.355508 0.49839
6 1 0.930123 0.403428 0.505721
1 1 0.803347 0.478393 0.502264
19 1 0.820804 0.629722 0.504312
28 1 0.704617 0.696076 0.498762
27 1 0.817448 0.767456 0.50615
55 1 0.707217 0.813375 0.502218
77 1 0.779546 0.85023 0.502578
18 1 0.735819 0.93964 0.497363
60 1 0.842853 0.00815456 0.499723
ITEM: TIMESTEP
2000
ITEM: NUMBER OF ATOMS
27
ITEM: BOX BOUNDS pp pp pp
-4.8217594434038196e+00 4.8217594434038196e+00
-4.7970717958166569e+00 4.7970717958166569e+00
-1.0000000000000001e-01 1.0000000000000001e-01
ITEM: ATOMS id type xs ys zs
16 1 0.40798 0.131701 0.499588
52 1 0.888232 0.101351 0.497525
7 1 0.973451 0.016771 0.500501
34 1 0.0388306 0.141255 0.497534
15 1 0.168008 0.206958 0.498706
79 1 0.48306 0.198182 0.49994
42 1 0.53781 0.137384 0.498703
36 1 0.916027 0.183989 0.498843
17 1 0.0148859 0.279227 0.499681
48 1 0.276383 0.263861 0.498365
54 1 0.356695 0.235556 0.498867
44 1 0.447959 0.257667 0.497394
13 1 0.572974 0.255024 0.501091
46 1 0.883228 0.28769 0.501125
9 1 0.145138 0.351582 0.502364
71 1 0.250222 0.346641 0.50215
10 1 0.357109 0.370446 0.503131
45 1 0.815231 0.354975 0.498552
6 1 0.930717 0.403633 0.50582
1 1 0.804237 0.478386 0.501846
19 1 0.820792 0.629656 0.503847
28 1 0.704663 0.696369 0.497681
27 1 0.817463 0.767526 0.506907
55 1 0.706489 0.81328 0.503014
77 1 0.779416 0.849862 0.500619
18 1 0.735141 0.938929 0.498419
60 1 0.842107 0.00869663 0.500353
ITEM: TIMESTEP
2250
ITEM: NUMBER OF ATOMS
27
ITEM: BOX BOUNDS pp pp pp
-4.8205516422917940e+00 4.8205516422917940e+00
-4.7903122178906337e+00 4.7903122178906337e+00
-1.0000000000000001e-01 1.0000000000000001e-01
ITEM: ATOMS id type xs ys zs
16 1 0.407529 0.132338 0.498546
52 1 0.888528 0.101202 0.498358
7 1 0.973576 0.0155566 0.499178
34 1 0.0388179 0.140675 0.496297
15 1 0.168349 0.206403 0.498313
79 1 0.482449 0.199595 0.499845
42 1 0.537278 0.137802 0.498456
36 1 0.916204 0.184209 0.498284
17 1 0.0143348 0.280135 0.499641
48 1 0.276238 0.264308 0.498016
54 1 0.355692 0.235479 0.498426
44 1 0.447016 0.258758 0.498443
13 1 0.572628 0.255927 0.501382
46 1 0.883383 0.288321 0.502684
9 1 0.145569 0.351486 0.502702
71 1 0.250633 0.346972 0.502471
10 1 0.357346 0.370124 0.502546
45 1 0.814262 0.355025 0.497243
6 1 0.929898 0.404358 0.505099
1 1 0.803324 0.478512 0.501669
19 1 0.821287 0.629656 0.501744
28 1 0.705064 0.696916 0.498582
27 1 0.818063 0.7681 0.508446
55 1 0.7038 0.814028 0.503814
77 1 0.776912 0.849258 0.500817
18 1 0.734894 0.939847 0.499353
60 1 0.842466 0.00782487 0.501832
ITEM: TIMESTEP
2500
ITEM: NUMBER OF ATOMS
27
ITEM: BOX BOUNDS pp pp pp
-4.8193438411797693e+00 4.8193438411797693e+00
-4.7895089107047806e+00 4.7895089107047806e+00
-1.0000000000000001e-01 1.0000000000000001e-01
ITEM: ATOMS id type xs ys zs
16 1 0.407365 0.131306 0.502512
52 1 0.890403 0.100805 0.498883
7 1 0.974091 0.0145394 0.499139
34 1 0.0392805 0.139917 0.499397
15 1 0.167528 0.206132 0.499913
79 1 0.481438 0.198958 0.500031
42 1 0.537128 0.138768 0.498378
36 1 0.916494 0.183992 0.498398
17 1 0.0145263 0.279028 0.499356
48 1 0.275083 0.26452 0.49867
54 1 0.354742 0.234648 0.496884
44 1 0.445694 0.257771 0.497938
13 1 0.570945 0.257167 0.498588
46 1 0.883384 0.287663 0.503095
9 1 0.144074 0.351573 0.502747
71 1 0.249069 0.347344 0.503313
10 1 0.356296 0.369427 0.502204
45 1 0.815496 0.355183 0.497996
6 1 0.930716 0.403838 0.505744
1 1 0.804474 0.478466 0.503057
19 1 0.821658 0.629558 0.501457
28 1 0.705001 0.695814 0.49808
27 1 0.818441 0.767286 0.508419
55 1 0.703778 0.813503 0.503807
77 1 0.77742 0.848571 0.50068
18 1 0.735804 0.939191 0.497855
60 1 0.842335 0.00861231 0.500158
ITEM: TIMESTEP
2750
ITEM: NUMBER OF ATOMS
27
ITEM: BOX BOUNDS pp pp pp
-4.8181360400677447e+00 4.8181360400677447e+00
-4.8121068357601304e+00 4.8121068357601304e+00
-1.0000000000000001e-01 1.0000000000000001e-01
ITEM: ATOMS id type xs ys zs
16 1 0.408014 0.131405 0.50147
52 1 0.887762 0.101071 0.497532
7 1 0.973632 0.0158387 0.499271
34 1 0.0385909 0.140755 0.499633
15 1 0.166343 0.206723 0.499068
79 1 0.481531 0.199529 0.502142
42 1 0.537749 0.139474 0.498501
36 1 0.915635 0.183315 0.496241
17 1 0.0141237 0.27847 0.500596
48 1 0.274728 0.263392 0.497533
54 1 0.354381 0.234335 0.497359
44 1 0.445775 0.257404 0.497893
13 1 0.570352 0.257287 0.499451
46 1 0.883673 0.287491 0.503748
9 1 0.144305 0.351698 0.501677
71 1 0.249497 0.346436 0.502849
10 1 0.356783 0.368897 0.503516
45 1 0.816476 0.355792 0.497995
6 1 0.931853 0.403206 0.508055
1 1 0.80466 0.478422 0.50243
19 1 0.820686 0.629429 0.500839
28 1 0.705071 0.696343 0.49905
27 1 0.818244 0.766639 0.508302
55 1 0.704001 0.812993 0.504955
77 1 0.777374 0.847548 0.501738
18 1 0.736638 0.938034 0.500535
60 1 0.842171 0.00808662 0.501558
ITEM: TIMESTEP
3000
ITEM: NUMBER OF ATOMS
27
ITEM: BOX BOUNDS pp pp pp
-4.8169282389557191e+00 4.8169282389557191e+00
-4.8109069407670910e+00 4.8109069407670910e+00
-1.0000000000000001e-01 1.0000000000000001e-01
ITEM: ATOMS id type xs ys zs
16 1 0.407043 0.131724 0.5004
52 1 0.88745 0.101096 0.497865
7 1 0.972545 0.0156338 0.498746
34 1 0.037894 0.140177 0.498221
15 1 0.16749 0.206916 0.500412
79 1 0.48101 0.199488 0.502837
42 1 0.536388 0.139188 0.496145
36 1 0.914824 0.183642 0.498947
17 1 0.0134517 0.278694 0.499925
48 1 0.274829 0.264744 0.49908
54 1 0.354136 0.234326 0.497989
44 1 0.445122 0.257958 0.499726
13 1 0.570356 0.257262 0.50057
46 1 0.882261 0.287444 0.50491
9 1 0.143865 0.350964 0.500962
71 1 0.249194 0.347091 0.504205
10 1 0.356701 0.368981 0.504581
45 1 0.814558 0.355322 0.498986
6 1 0.929998 0.403089 0.509378
1 1 0.804343 0.477974 0.5058
19 1 0.822151 0.629202 0.499437
28 1 0.70637 0.696679 0.497968
27 1 0.819314 0.767216 0.509586
55 1 0.702902 0.813519 0.50635
77 1 0.776939 0.846951 0.500823
18 1 0.736199 0.93774 0.502028
60 1 0.841253 0.00886329 0.502046
ITEM: TIMESTEP
3250
ITEM: NUMBER OF ATOMS
27
ITEM: BOX BOUNDS pp pp pp
-4.8157204378436944e+00 4.8157204378436944e+00
-4.8068104609181370e+00 4.8068104609181370e+00
-1.0000000000000001e-01 1.0000000000000001e-01
ITEM: ATOMS id type xs ys zs
16 1 0.406792 0.133197 0.501609
52 1 0.88717 0.101606 0.497185
7 1 0.971562 0.0166612 0.500462
34 1 0.038562 0.140071 0.49536
15 1 0.167553 0.206523 0.49808
79 1 0.48159 0.199796 0.505556
42 1 0.536917 0.139342 0.495452
36 1 0.915919 0.183373 0.497902
17 1 0.0142704 0.27873 0.500683
48 1 0.274905 0.264634 0.499844
54 1 0.354856 0.235976 0.496802
44 1 0.446475 0.259007 0.500451
13 1 0.571768 0.257295 0.500449
46 1 0.882782 0.287022 0.503661
9 1 0.143959 0.350822 0.501247
71 1 0.248907 0.347018 0.501412
10 1 0.355749 0.370219 0.504897
45 1 0.815478 0.355968 0.500401
6 1 0.930992 0.40292 0.51124
1 1 0.804541 0.479258 0.50509
19 1 0.823307 0.629361 0.499681
28 1 0.706543 0.695965 0.496806
27 1 0.819164 0.767465 0.509166
55 1 0.702194 0.812663 0.506065
77 1 0.775638 0.847355 0.498876
18 1 0.734585 0.93774 0.502748
60 1 0.840623 0.00864337 0.503013
ITEM: TIMESTEP
3500
ITEM: NUMBER OF ATOMS
27
ITEM: BOX BOUNDS pp pp pp
-4.8145126367316697e+00 4.8145126367316697e+00
-4.8009318330652313e+00 4.8009318330652313e+00
-1.0000000000000001e-01 1.0000000000000001e-01
ITEM: ATOMS id type xs ys zs
16 1 0.407487 0.132726 0.500728
52 1 0.887266 0.100728 0.49745
7 1 0.971891 0.0147711 0.500677
34 1 0.037817 0.139845 0.496511
15 1 0.167045 0.206861 0.497622
79 1 0.482118 0.199637 0.504697
42 1 0.537286 0.139412 0.496746
36 1 0.915448 0.183388 0.498632
17 1 0.0139398 0.278367 0.501462
48 1 0.275098 0.264856 0.498379
54 1 0.355429 0.236016 0.496529
44 1 0.446672 0.258779 0.501018
13 1 0.571915 0.257033 0.500568
46 1 0.883919 0.287649 0.502893
9 1 0.143463 0.351894 0.499947
71 1 0.248505 0.347354 0.500902
10 1 0.356184 0.369951 0.504339
45 1 0.815967 0.355456 0.500739
6 1 0.93206 0.403577 0.510703
1 1 0.805977 0.479238 0.504357
19 1 0.8237 0.629869 0.49906
28 1 0.707097 0.696148 0.497929
27 1 0.820246 0.767867 0.509741
55 1 0.701513 0.813145 0.505326
77 1 0.775415 0.847178 0.500851
18 1 0.734793 0.938247 0.502369
60 1 0.840741 0.00879685 0.502307
ITEM: TIMESTEP
3750
ITEM: NUMBER OF ATOMS
27
ITEM: BOX BOUNDS pp pp pp
-4.8133048356196451e+00 4.8133048356196451e+00
-4.7998963805381925e+00 4.7998963805381925e+00
-1.0000000000000001e-01 1.0000000000000001e-01
ITEM: ATOMS id type xs ys zs
16 1 0.408056 0.132115 0.501866
52 1 0.888083 0.101097 0.497916
7 1 0.972488 0.0150617 0.499702
34 1 0.0373816 0.1397 0.495525
15 1 0.166595 0.206246 0.495977
79 1 0.48221 0.200002 0.505082
42 1 0.537757 0.139209 0.496511
36 1 0.914959 0.184189 0.500026
17 1 0.0142885 0.278515 0.500133
48 1 0.275212 0.263202 0.498445
54 1 0.35563 0.235189 0.495747
44 1 0.446691 0.258848 0.500445
13 1 0.571632 0.257738 0.50053
46 1 0.882446 0.288057 0.503526
9 1 0.143507 0.352329 0.499216
71 1 0.248771 0.345801 0.498478
10 1 0.355631 0.368969 0.505034
45 1 0.815279 0.35671 0.50139
6 1 0.93142 0.403304 0.508555
1 1 0.804824 0.479671 0.503216
19 1 0.824359 0.630108 0.498863
28 1 0.707301 0.696262 0.49816
27 1 0.819961 0.767544 0.509662
55 1 0.702714 0.813626 0.506761
77 1 0.776931 0.847369 0.500657
18 1 0.735593 0.938276 0.501341
60 1 0.841068 0.00886738 0.502574
ITEM: TIMESTEP
4000
ITEM: NUMBER OF ATOMS
27
ITEM: BOX BOUNDS pp pp pp
-4.8120970345076195e+00 4.8120970345076195e+00
-4.8091134242013434e+00 4.8091134242013434e+00
-1.0000000000000001e-01 1.0000000000000001e-01
ITEM: ATOMS id type xs ys zs
16 1 0.408248 0.132333 0.501854
52 1 0.888118 0.101297 0.49876
7 1 0.972386 0.0149111 0.499213
34 1 0.0363126 0.140174 0.495746
15 1 0.166216 0.205896 0.495762
79 1 0.482017 0.200137 0.506282
42 1 0.538014 0.139978 0.496961
36 1 0.913986 0.184268 0.497561
17 1 0.0130637 0.278869 0.501995
48 1 0.274359 0.263846 0.497124
54 1 0.354566 0.235019 0.496481
44 1 0.446016 0.258518 0.502399
13 1 0.571482 0.257467 0.500189
46 1 0.882641 0.28846 0.506253
9 1 0.143787 0.35059 0.498
71 1 0.24877 0.346792 0.497022
10 1 0.355327 0.369308 0.505091
45 1 0.814477 0.355999 0.501098
6 1 0.930701 0.40374 0.509754
1 1 0.804323 0.479415 0.501375
19 1 0.82386 0.630467 0.499599
28 1 0.707103 0.696439 0.497055
27 1 0.819628 0.768117 0.507809
55 1 0.701664 0.813639 0.506462
77 1 0.775848 0.847402 0.500038
18 1 0.735965 0.938579 0.501253
60 1 0.841304 0.00847453 0.502857
ITEM: TIMESTEP
4250
ITEM: NUMBER OF ATOMS
27
ITEM: BOX BOUNDS pp pp pp
-4.8108892333955948e+00 4.8108892333955948e+00
-4.7864687966238009e+00 4.7864687966238009e+00
-1.0000000000000001e-01 1.0000000000000001e-01
ITEM: ATOMS id type xs ys zs
16 1 0.407238 0.13132 0.5024
52 1 0.887616 0.100955 0.497548
7 1 0.972959 0.0155591 0.50137
34 1 0.0366483 0.141582 0.494816
15 1 0.166201 0.20619 0.495136
79 1 0.481844 0.199346 0.505789
42 1 0.537546 0.139034 0.498062
36 1 0.913612 0.185023 0.497428
17 1 0.0125981 0.280035 0.501818
48 1 0.274676 0.26391 0.496782
54 1 0.354428 0.234729 0.494975
44 1 0.445617 0.258059 0.503712
13 1 0.571106 0.257434 0.500888
46 1 0.881977 0.289244 0.505264
9 1 0.143443 0.351589 0.498543
71 1 0.248801 0.346615 0.496056
10 1 0.35564 0.370071 0.507209
45 1 0.812944 0.356669 0.499063
6 1 0.929041 0.404028 0.509539
1 1 0.80281 0.480002 0.500223
19 1 0.8257 0.630193 0.499719
28 1 0.708572 0.696185 0.496982
27 1 0.820602 0.76876 0.506887
55 1 0.701626 0.814132 0.506679
77 1 0.775937 0.84809 0.498038
18 1 0.734743 0.938832 0.500679
60 1 0.841385 0.00753106 0.501892
ITEM: TIMESTEP
4500
ITEM: NUMBER OF ATOMS
27
ITEM: BOX BOUNDS pp pp pp
-4.8096814322835701e+00 4.8096814322835701e+00
-4.7976375104062576e+00 4.7976375104062576e+00
-1.0000000000000001e-01 1.0000000000000001e-01
ITEM: ATOMS id type xs ys zs
16 1 0.407564 0.131831 0.504428
52 1 0.888166 0.10053 0.497923
7 1 0.973141 0.0150896 0.50127
34 1 0.0367727 0.141235 0.495936
15 1 0.166976 0.205852 0.497654
79 1 0.482071 0.199465 0.505615
42 1 0.537679 0.139225 0.498201
36 1 0.913098 0.184452 0.497042
17 1 0.0125312 0.279635 0.500266
48 1 0.274955 0.264848 0.497334
54 1 0.355156 0.235424 0.49553
44 1 0.446347 0.258021 0.504023
13 1 0.572027 0.257208 0.501646
46 1 0.881236 0.288433 0.505979
9 1 0.143392 0.351226 0.495942
71 1 0.248584 0.347401 0.495194
10 1 0.356114 0.370254 0.505466
45 1 0.8135 0.357466 0.498401
6 1 0.929233 0.404483 0.510555
1 1 0.802479 0.480347 0.497593
19 1 0.825784 0.630374 0.500658
28 1 0.708624 0.695892 0.496725
27 1 0.821652 0.768306 0.508643
55 1 0.702259 0.813112 0.509346
77 1 0.776007 0.84677 0.497916
18 1 0.734679 0.93811 0.500722
60 1 0.841428 0.00802492 0.502748
ITEM: TIMESTEP
4750
ITEM: NUMBER OF ATOMS
27
ITEM: BOX BOUNDS pp pp pp
-4.8084736311715446e+00 4.8084736311715446e+00
-4.7896002466888365e+00 4.7896002466888365e+00
-1.0000000000000001e-01 1.0000000000000001e-01
ITEM: ATOMS id type xs ys zs
16 1 0.408082 0.13113 0.505622
52 1 0.887366 0.100808 0.497291
7 1 0.972547 0.0149304 0.501493
34 1 0.0368071 0.140233 0.496375
15 1 0.166766 0.204993 0.496317
79 1 0.482365 0.198842 0.503855
42 1 0.53853 0.138518 0.499407
36 1 0.913643 0.183938 0.497825
17 1 0.0123823 0.278954 0.498295
48 1 0.27463 0.263872 0.497147
54 1 0.354784 0.234117 0.496348
44 1 0.445922 0.257681 0.505711
13 1 0.571801 0.256763 0.502036
46 1 0.880484 0.287808 0.506669
9 1 0.143028 0.350093 0.493832
71 1 0.248696 0.346958 0.49415
10 1 0.355689 0.369074 0.504969
45 1 0.812465 0.356037 0.497482
6 1 0.928826 0.403559 0.508783
1 1 0.802289 0.480058 0.496707
19 1 0.82521 0.630151 0.500094
28 1 0.707374 0.6953 0.496359
27 1 0.820921 0.76742 0.508472
55 1 0.702047 0.812304 0.510836
77 1 0.776134 0.846441 0.497757
18 1 0.735535 0.937588 0.501443
60 1 0.841521 0.00761548 0.501103
ITEM: TIMESTEP
5000
ITEM: NUMBER OF ATOMS
27
ITEM: BOX BOUNDS pp pp pp
-4.8072658300595199e+00 4.8072658300595199e+00
-4.7994878627955559e+00 4.7994878627955559e+00
-1.0000000000000001e-01 1.0000000000000001e-01
ITEM: ATOMS id type xs ys zs
16 1 0.408217 0.131522 0.504268
52 1 0.887852 0.100141 0.494841
7 1 0.973248 0.0142753 0.499463
34 1 0.036424 0.140197 0.497272
15 1 0.167123 0.205747 0.49605
79 1 0.482359 0.199101 0.503753
42 1 0.538189 0.138565 0.499551
36 1 0.913375 0.18385 0.498048
17 1 0.0123991 0.278991 0.498003
48 1 0.275008 0.264311 0.498006
54 1 0.354995 0.234844 0.495783
44 1 0.446332 0.257724 0.506292
13 1 0.572476 0.256333 0.500967
46 1 0.879706 0.287782 0.509536
9 1 0.143067 0.350645 0.490944
71 1 0.248349 0.346498 0.496209
10 1 0.355923 0.370088 0.505129
45 1 0.811667 0.355932 0.498039
6 1 0.927954 0.403173 0.509919
1 1 0.802077 0.478787 0.495852
19 1 0.823982 0.628598 0.500104
28 1 0.707276 0.695096 0.49529
27 1 0.820305 0.766916 0.509484
55 1 0.701598 0.812514 0.510564
77 1 0.775935 0.846109 0.495337
18 1 0.735343 0.937395 0.502429
60 1 0.841704 0.00723055 0.500636
ITEM: TIMESTEP
5250
ITEM: NUMBER OF ATOMS
27
ITEM: BOX BOUNDS pp pp pp
-4.8060580289474952e+00 4.8060580289474952e+00
-4.7857992310296691e+00 4.7857992310296691e+00
-1.0000000000000001e-01 1.0000000000000001e-01
ITEM: ATOMS id type xs ys zs
16 1 0.407123 0.131198 0.503877
52 1 0.887622 0.0999944 0.495194
7 1 0.972804 0.0145383 0.499425
34 1 0.0366729 0.140421 0.496663
15 1 0.166842 0.205893 0.499314
79 1 0.482063 0.198765 0.505234
42 1 0.537068 0.137822 0.503858
36 1 0.913497 0.183929 0.497804
17 1 0.0122479 0.279324 0.498917
48 1 0.274997 0.263585 0.498106
54 1 0.355177 0.234814 0.493528
44 1 0.446822 0.25796 0.506535
13 1 0.572226 0.256372 0.500637
46 1 0.879988 0.287272 0.508086
9 1 0.143421 0.351292 0.491612
71 1 0.249338 0.346207 0.495353
10 1 0.356398 0.368803 0.506407
45 1 0.811606 0.355215 0.498917
6 1 0.927535 0.403606 0.511633
1 1 0.800455 0.478892 0.49676
19 1 0.82366 0.629459 0.500957
28 1 0.706407 0.69544 0.495994
27 1 0.819433 0.767589 0.508841
55 1 0.699575 0.813023 0.51103
77 1 0.773896 0.846693 0.495571
18 1 0.734587 0.937786 0.502899
60 1 0.841527 0.00731907 0.501829
ITEM: TIMESTEP
5500
ITEM: NUMBER OF ATOMS
27
ITEM: BOX BOUNDS pp pp pp
-4.8048502278354697e+00 4.8048502278354697e+00
-4.7888613867291783e+00 4.7888613867291783e+00
-1.0000000000000001e-01 1.0000000000000001e-01
ITEM: ATOMS id type xs ys zs
16 1 0.408696 0.129861 0.50333
52 1 0.886858 0.100624 0.495152
7 1 0.972601 0.0154787 0.500985
34 1 0.0365498 0.141195 0.495774
15 1 0.167831 0.204041 0.499399
79 1 0.482465 0.198009 0.506795
42 1 0.53919 0.137712 0.503557
36 1 0.913142 0.184701 0.495692
17 1 0.0126634 0.279924 0.497655
48 1 0.275477 0.263396 0.497188
54 1 0.355319 0.232671 0.494565
44 1 0.446116 0.256985 0.505846
13 1 0.572037 0.256144 0.500194
46 1 0.87791 0.287378 0.506297
9 1 0.14428 0.349381 0.490672
71 1 0.249573 0.346835 0.495092
10 1 0.357047 0.367879 0.507341
45 1 0.809784 0.355776 0.499199
6 1 0.926159 0.403006 0.509505
1 1 0.799412 0.478735 0.495806
19 1 0.821358 0.628493 0.500849
28 1 0.705512 0.695798 0.495654
27 1 0.818676 0.767484 0.50916
55 1 0.69773 0.813237 0.509068
77 1 0.772328 0.845833 0.49494
18 1 0.733965 0.938018 0.502537
60 1 0.840502 0.00760717 0.500895
ITEM: TIMESTEP
5750
ITEM: NUMBER OF ATOMS
27
ITEM: BOX BOUNDS pp pp pp
-4.8036424267234450e+00 4.8036424267234450e+00
-4.7928754189626703e+00 4.7928754189626703e+00
-1.0000000000000001e-01 1.0000000000000001e-01
ITEM: ATOMS id type xs ys zs
16 1 0.408685 0.13124 0.503814
52 1 0.886957 0.100584 0.495841
7 1 0.971894 0.0150957 0.501354
34 1 0.0361092 0.140956 0.496465
15 1 0.16696 0.204545 0.498692
79 1 0.482958 0.199133 0.50593
42 1 0.538774 0.138431 0.505486
36 1 0.912881 0.183956 0.496447
17 1 0.0114843 0.279227 0.496902
48 1 0.275053 0.263268 0.496856
54 1 0.355003 0.233436 0.493373
44 1 0.446667 0.257568 0.505536
13 1 0.572417 0.257156 0.501382
46 1 0.877035 0.286668 0.506766
9 1 0.143674 0.348646 0.490129
71 1 0.249326 0.346292 0.493281
10 1 0.35745 0.368137 0.507182
45 1 0.809084 0.355229 0.497833
6 1 0.924666 0.40256 0.510051
1 1 0.797817 0.478747 0.496031
19 1 0.821381 0.628675 0.499685
28 1 0.70494 0.695405 0.495484
27 1 0.818807 0.76639 0.509226
55 1 0.699034 0.812478 0.509858
77 1 0.773582 0.845628 0.495505
18 1 0.734036 0.936807 0.501029
60 1 0.840178 0.00757003 0.501519
ITEM: TIMESTEP
6000
ITEM: NUMBER OF ATOMS
27
ITEM: BOX BOUNDS pp pp pp
-4.8024346256114203e+00 4.8024346256114203e+00
-4.8022573377409667e+00 4.8022573377409667e+00
-1.0000000000000001e-01 1.0000000000000001e-01
ITEM: ATOMS id type xs ys zs
16 1 0.408278 0.130255 0.502222
52 1 0.885281 0.101006 0.495531
7 1 0.971661 0.016559 0.500871
34 1 0.036231 0.142015 0.496472
15 1 0.167052 0.204787 0.499276
79 1 0.482136 0.198215 0.506904
42 1 0.538022 0.138147 0.504375
36 1 0.912629 0.183949 0.497214
17 1 0.0107161 0.279503 0.497216
48 1 0.275224 0.263452 0.496683
54 1 0.355156 0.233236 0.492485
44 1 0.445997 0.257206 0.50732
13 1 0.571755 0.256951 0.500842
46 1 0.876138 0.286741 0.504499
9 1 0.14311 0.348668 0.488885
71 1 0.249197 0.346638 0.493436
10 1 0.357317 0.368131 0.507028
45 1 0.808214 0.355302 0.498179
6 1 0.924377 0.40226 0.510008
1 1 0.799355 0.47846 0.496858
19 1 0.820456 0.628328 0.500573
28 1 0.704552 0.695599 0.493824
27 1 0.818221 0.766217 0.508953
55 1 0.699374 0.812617 0.509639
77 1 0.773985 0.845399 0.495378
18 1 0.734324 0.937127 0.49982
60 1 0.840216 0.00764987 0.50154
ITEM: TIMESTEP
6250
ITEM: NUMBER OF ATOMS
27
ITEM: BOX BOUNDS pp pp pp
-4.8012268244993948e+00 4.8012268244993948e+00
-4.8058045827842735e+00 4.8058045827842735e+00
-1.0000000000000001e-01 1.0000000000000001e-01
ITEM: ATOMS id type xs ys zs
16 1 0.407573 0.131172 0.504214
52 1 0.885866 0.101812 0.495966
7 1 0.971288 0.0168527 0.50037
34 1 0.0357476 0.1419 0.495349
15 1 0.166442 0.205994 0.50204
79 1 0.481778 0.199049 0.50716
42 1 0.537988 0.138932 0.504148
36 1 0.912013 0.184833 0.498063
17 1 0.0102117 0.280422 0.497692
48 1 0.274194 0.264275 0.496795
54 1 0.353889 0.233951 0.493199
44 1 0.444984 0.256906 0.50808
13 1 0.570969 0.25694 0.500951
46 1 0.875872 0.287311 0.505922
9 1 0.142144 0.350089 0.491546
71 1 0.247926 0.34674 0.495834
10 1 0.355944 0.368752 0.509428
45 1 0.807139 0.35521 0.498701
6 1 0.923971 0.402991 0.511481
1 1 0.797245 0.478508 0.496177
19 1 0.820483 0.628042 0.500857
28 1 0.704248 0.695742 0.49442
27 1 0.817931 0.765848 0.507389
55 1 0.699382 0.812781 0.507805
77 1 0.774114 0.845391 0.495037
18 1 0.734766 0.937169 0.499899
60 1 0.839436 0.0096548 0.502669
ITEM: TIMESTEP
6500
ITEM: NUMBER OF ATOMS
27
ITEM: BOX BOUNDS pp pp pp
-4.8000190233873701e+00 4.8000190233873701e+00
-4.8053928641119406e+00 4.8053928641119406e+00
-1.0000000000000001e-01 1.0000000000000001e-01
ITEM: ATOMS id type xs ys zs
16 1 0.408855 0.132006 0.502946
52 1 0.885575 0.101726 0.495796
7 1 0.971602 0.0159504 0.499442
34 1 0.035289 0.141891 0.493841
15 1 0.165782 0.205238 0.502976
79 1 0.482845 0.199621 0.507709
42 1 0.53907 0.140029 0.504789
36 1 0.912014 0.184822 0.498822
17 1 0.0103618 0.280272 0.496663
48 1 0.274327 0.263821 0.498579
54 1 0.354239 0.233995 0.494214
44 1 0.44599 0.257359 0.50773
13 1 0.572202 0.258228 0.500623
46 1 0.874724 0.287141 0.506219
9 1 0.142821 0.34972 0.488672
71 1 0.248716 0.346542 0.496196
10 1 0.35595 0.368991 0.508676
45 1 0.806418 0.355056 0.499554
6 1 0.92259 0.402296 0.514118
1 1 0.796292 0.478051 0.496082
19 1 0.819689 0.628586 0.501328
28 1 0.703531 0.696921 0.493238
27 1 0.817481 0.767104 0.507321
55 1 0.699149 0.814067 0.508515
77 1 0.773996 0.846644 0.49494
18 1 0.734353 0.93827 0.499356
60 1 0.839848 0.0085839 0.502768
ITEM: TIMESTEP
6750
ITEM: NUMBER OF ATOMS
27
ITEM: BOX BOUNDS pp pp pp
-4.7988112222753454e+00 4.7988112222753454e+00
-4.7982371492996370e+00 4.7982371492996370e+00
-1.0000000000000001e-01 1.0000000000000001e-01
ITEM: ATOMS id type xs ys zs
16 1 0.409363 0.131086 0.503003
52 1 0.886106 0.101159 0.496038
7 1 0.971118 0.0154683 0.500624
34 1 0.0348724 0.141993 0.4937
15 1 0.16614 0.204138 0.502313
79 1 0.483185 0.199176 0.506672
42 1 0.539571 0.139157 0.50489
36 1 0.911456 0.184858 0.497109
17 1 0.0101662 0.280323 0.496233
48 1 0.274542 0.262911 0.498637
54 1 0.355006 0.233339 0.495513
44 1 0.446528 0.25749 0.507047
13 1 0.572421 0.257674 0.501063
46 1 0.874458 0.287084 0.50642
9 1 0.142815 0.349448 0.488233
71 1 0.248423 0.345788 0.495335
10 1 0.356286 0.368202 0.507544
45 1 0.806988 0.355756 0.499618
6 1 0.923214 0.40255 0.514221
1 1 0.797068 0.478609 0.495773
19 1 0.818881 0.627324 0.500901
28 1 0.702772 0.696342 0.493401
27 1 0.816531 0.766053 0.505542
55 1 0.699603 0.81377 0.507941
77 1 0.774521 0.846356 0.494893
18 1 0.734047 0.937583 0.499448
60 1 0.840032 0.00829012 0.502489
ITEM: TIMESTEP
7000
ITEM: NUMBER OF ATOMS
27
ITEM: BOX BOUNDS pp pp pp
-4.7976034211633198e+00 4.7976034211633198e+00
-4.8009333811813439e+00 4.8009333811813439e+00
-1.0000000000000001e-01 1.0000000000000001e-01
ITEM: ATOMS id type xs ys zs
16 1 0.409405 0.130471 0.50397
52 1 0.887872 0.10146 0.496514
7 1 0.972263 0.0147924 0.49756