LAMMPS (23 Jun 2022 - Update 4)
  using 1 OpenMP thread(s) per MPI task
# Compute elastic constant tensor for a crystal
#
# Written by Aidan Thompson (Sandia, athomps@sandia.gov)
#
#  This script uses the following three include files.
#
#   init.mod      (must be modified for different crystal structures)
# 	       	  Define units, deformation parameters and initial
#		  configuration of the atoms and simulation cell.
#
#
#   potential.mod    (must be modified for different pair styles)
# 		     Define pair style and other attributes
#		     not stored in restart file
#
#
#   displace.mod    (displace.mod should not need to be modified)
# 		    Perform positive and negative box displacements
# 		    in direction ${dir} and size ${up}.
# 		    It uses the resultant changes
#		    in stress to compute one
# 		    row of the elastic stiffness tensor
#
#		    Inputs variables:
#		    	   dir = the Voigt deformation component
#		    		    (1,2,3,4,5,6)
#		    Global constants:
#       	    	   up = the deformation magnitude (strain units)
#       		   cfac = conversion from LAMMPS pressure units to
#               	   output units for elastic constants
#
#
#  To run this on a different system, it should only be necessary to
#  modify the files init.mod and potential.mod. In order to calculate
#  the elastic constants correctly, care must be taken to specify
#  the correct units in init.mod (units, cfac and cunits). It is also
#  important to verify that the minimization of energy w.r.t atom
#  positions in the deformed cell is fully converged.
#  One indication of this is that the elastic constants are insensitive
#  to the choice of the variable ${up} in init.mod. Another is to check
#  the final max and two-norm forces reported in the log file. If you know
#  that minimization is not required, you can set maxiter = 0.0 in
#  init.mod.
#



variable dt equal 0.01
variable strain equal 0.05
variable srate equal 1e-4
variable M equal 1000 # averaging time for properties
variable strainsteps equal ${strain}/${dt}/${srate}
variable strainsteps equal 0.05/${dt}/${srate}
variable strainsteps equal 0.05/0.01/${srate}
variable strainsteps equal 0.05/0.01/0.0001


dimension 2
include init.mod
# NOTE: This script can be modified for different atomic structures,
# units, etc. See in.elastic for more info.
#

# Define the finite deformation size. Try several values of this
# variable to verify that results do not depend on it.
variable up equal 1.0e-1

# Define the amount of random jiggle for atoms
# This prevents atoms from staying on saddle points
variable atomjiggle equal 1.0e-6

# Uncomment one of these blocks, depending on what units
# you are using in LAMMPS and for output

# metal units, elastic constants in eV/A^3
#units		metal
#variable cfac equal 6.2414e-7
#variable cunits string eV/A^3

# Choose potential
# metal units, elastic constants in GPa
units		metal
atom_style	full
#pair_style      lj/cut 1.0
#pair_style      yukawa 1.0 2.0
#pair_modify     mix arithmetic
bond_style      harmonic
angle_style     harmonic
dihedral_style  zero
special_bonds   amber
variable cfac equal 1.0e-4
variable cunits string GPa
boundary	p p p

# Need to set mass to something, just to satisfy LAMMPS
#mass 1 1.0e-20
read_data network.lmp
Reading data file ...
  orthogonal box = (-4.831205 -4.831205 -0.1) to (4.831205 4.831205 0.1)
  1 by 1 by 1 MPI processor grid
WARNING: Atom style in data file differs from currently defined atom style (src/read_data.cpp:538)
  reading atoms ...
  27 atoms
WARNING: Bond style in data file differs from currently defined bond style (src/read_data.cpp:630)
  scanning bonds ...
  4 = max bonds/atom
  reading bonds ...
  50 bonds
Finding 1-2 1-3 1-4 neighbors ...
  special bond factors lj:    0        0        0.5     
  special bond factors coul:  0        0        0.8333333333333334
     6 = max # of 1-2 neighbors
    25 = max # of 1-3 neighbors
   112 = max # of 1-4 neighbors
    16 = max # of special neighbors
  special bonds CPU = 0.000 seconds
  read_data CPU = 0.003 seconds

# real units, elastic constants in GPa
#units		real
#variable cfac equal 1.01325e-4
#variable cunits string GPa

# Define minimization parameters
variable etol equal 0.0
variable ftol equal 5.0e-10
variable maxiter equal 100000
variable maxeval equal 20000
variable dmax equal 1.0e-2


include potential.mod
# NOTE: This script can be modified for different pair styles
# See in.elastic for more info.

# Setup neighbor style
neighbor 3.0 nsq
neigh_modify once no every 1 delay 0 check yes
comm_modify cutoff 2.0

# Setup minimization style
min_style	     cg
min_modify	     dmax ${dmax} line quadratic
min_modify	     dmax 0.01 line quadratic

timestep	0.001


# Setup output
thermo		500
thermo_style custom step temp pe ebond eangle edihed press pxx pyy pzz pxy pxz pyz lx ly lz vol
thermo_modify norm no


#change_box all triclinic
comm_modify mode single cutoff 10.0 vel yes
atom_modify sort 0 0



# Compute initial state

#dump rela all atom 1 traj_relax.lmpstrj
fix 3 all box/relax x 0 y 0 # xy 0  #MS comment: relax if the network is periodic
minimize ${etol} ${ftol} ${maxiter} ${maxeval}
minimize 0 ${ftol} ${maxiter} ${maxeval}
minimize 0 5e-10 ${maxiter} ${maxeval}
minimize 0 5e-10 100000 ${maxeval}
minimize 0 5e-10 100000 20000
Neighbor list info ...
  update every 1 steps, delay 0 steps, check yes
  max neighbors/atom: 2000, page size: 100000
  master list distance cutoff = 0
  ghost atom cutoff = 10
  0 neighbor lists, perpetual/occasional/extra = 0 0 0
WARNING: Inconsistent image flags (src/domain.cpp:819)
Per MPI rank memory allocation (min/avg/max) = 7.809 | 7.809 | 7.809 Mbytes
   Step          Temp          PotEng         E_bond        E_angle        E_dihed         Press           Pxx            Pyy            Pzz            Pxy            Pxz            Pyz             Lx             Ly             Lz           Volume    
         0   0              1.8658911e-11  1.8658911e-11  0              0             -0.042412979   -0.12414929     0.039323334    0             -0.012800483    0              0              9.66241        9.66241        0.2            93.362167    
        45   0              6.0174376e-15  6.0174376e-15  0              0              1.4121955e-07  5.4813506e-08  2.276256e-07   0              1.1585852e-06  0              0              9.6624089      9.6624103      0.2            93.36216     
Loop time of 0.00111563 on 1 procs for 45 steps with 27 atoms

49.9% CPU use with 1 MPI tasks x 1 OpenMP threads

Minimization stats:
  Stopping criterion = force tolerance
  Energy initial, next-to-last, final = 
    1.86589107175129e-11 6.01748886099734e-15 6.01743757867732e-15
  Force two-norm initial, final = 1.8289193e-05 2.8984559e-10
  Force max component initial, final = 7.2344382e-06 9.3984269e-11
  Final line search alpha, max atom move = 1 9.3984269e-11
  Iterations, force evaluations = 45 90

MPI task timing breakdown:
Section |  min time  |  avg time  |  max time  |%varavg| %total
---------------------------------------------------------------
Pair    | 0          | 0          | 0          |   0.0 |  0.00
Bond    | 0.00012704 | 0.00012704 | 0.00012704 |   0.0 | 11.39
Neigh   | 0          | 0          | 0          |   0.0 |  0.00
Comm    | 0.0003401  | 0.0003401  | 0.0003401  |   0.0 | 30.48
Output  | 0          | 0          | 0          |   0.0 |  0.00
Modify  | 0          | 0          | 0          |   0.0 |  0.00
Other   |            | 0.0006485  |            |       | 58.13

Nlocal:             27 ave          27 max          27 min
Histogram: 1 0 0 0 0 0 0 0 0 0
Nghost:            229 ave         229 max         229 min
Histogram: 1 0 0 0 0 0 0 0 0 0
Neighs:              0 ave           0 max           0 min
Histogram: 1 0 0 0 0 0 0 0 0 0

Total # of neighbors = 0
Ave neighs/atom = 0
Ave special neighs/atom = 11.259259
Neighbor list builds = 0
Dangerous builds = 0
#dump rela all atom 1 traj_relax.lmpstrj
thermo 100
unfix 3

fix 2d all enforce2d



#dump dump0 all xyz 1000000 cfg0.xyz
#dump_modify dump0 format line "%d %20.10g %20.10g %20.10g"
#minimize ${etol} ${ftol} ${maxiter} ${maxeval}

#undump rela

#write_restart restart.equil

# These formulas define the derivatives w.r.t. strain components
# Constants uses $, variables use v_


timestep        ${dt}
timestep        0.01
variable nsteps equal round(${strainsteps})
variable nsteps equal round(50000)

fix             4 all nve
fix             5 all langevin 0.1 0.1 1 904297
#fix		6 all press/berendsen y  0.0 0.0 1 x 0.0 0.0 10
fix             6 all nph y 0.0 0.0 10 ptemp 0.1 # x 0.0 0.0 10

# For PLUMED2
# fix 22 all plumed plumedfile plumed.dat outfile plumed.out

#fix             6 all nph x 0.0 0.0 10
fix     	9 all deform 1 x erate -${srate} units box remap x
fix     	9 all deform 1 x erate -0.0001 units box remap x

#fix     8 all deform 1 xy erate ${srate} units box remap x



#fix    10 all ave/time

dump 1 all atom 250 deform_dump.lammpstrj


#To avoid flying ice cube phenomenon:
#fix 21 all momentum 100 linear 1 1 1 angular


run  ${nsteps}
run  50000
WARNING: One or more atoms are time integrated more than once (src/modify.cpp:292)
WARNING: Inconsistent image flags (src/domain.cpp:819)
Per MPI rank memory allocation (min/avg/max) = 6.684 | 6.684 | 6.684 Mbytes
   Step          Temp          PotEng         E_bond        E_angle        E_dihed         Press           Pxx            Pyy            Pzz            Pxy            Pxz            Pyz             Lx             Ly             Lz           Volume    
        45   0              6.0174376e-15  6.0174376e-15  0              0              1.4121955e-07  5.4813506e-08  2.276256e-07   0              1.1585852e-06  0              0              9.6624089      9.6624103      0.2            93.36216     
       100   0.15361079     0.00016713066  0.00016713066  0              0              38.313602      24.465003      52.071047      0             -43.561107      0              0              9.6618775      9.6567072      0.2            93.301921    
       200   0.17074191     0.00033397944  0.00033397944  0              0             -258.88902     -467.63345     -50.243016      0             -94.720742      0              0              9.6609112      9.6593116      0.2            93.317752    
       300   0.22638227     0.0002128518   0.0002128518   0              0             -132.35777     -223.95352     -40.84387       0             -194.79566      0              0              9.659945       9.6523462      0.2            93.241133    
       400   0.22113769     0.00031070315  0.00031070315  0              0              168.04948      198.84759      137.16352      0              133.73645      0              0              9.6589787      9.6474889      0.2            93.18489     
       500   0.20225809     0.00037269937  0.00037269937  0              0             -127.74801     -147.16533     -108.41565      0              370.6496       0              0              9.6580125      9.6415         0.2            93.117727    
       600   0.19133221     0.00048464064  0.00048464064  0              0             -48.275881     -123.01836      26.390158      0             -27.762478      0              0              9.6570463      9.6479         0.2            93.170216    
       700   0.24328844     0.00032720835  0.00032720835  0              0              129.00619      205.11089      52.834432      0              190.63101      0              0              9.65608        9.6380665      0.2            93.065941    
       800   0.26882333     0.00028949113  0.00028949113  0              0              442.2905       859.11566      25.363587      0              489.40148      0              0              9.6551138      9.6486438      0.2            93.158754    
       900   0.16487326     0.00038697261  0.00038697261  0              0              116.32526      247.35234     -14.763624      0              129.18502      0              0              9.6541475      9.6413002      0.2            93.078535    
      1000   0.20875469     0.00033204882  0.00033204882  0              0              51.180885      55.044665      47.235831      0             -26.301856      0              0              9.6531813      9.6286095      0.2            92.946713    
      1100   0.1550231      0.00035011216  0.00035011216  0              0             -328.98336     -522.42595     -135.60813      0             -26.052155      0              0              9.6522151      9.6199538      0.2            92.853863    
      1200   0.23560992     0.00035542254  0.00035542254  0              0              272.60231      445.42786      99.690213      0              117.96634      0              0              9.6512488      9.6235576      0.2            92.879349    
      1300   0.14691706     0.00033542738  0.00033542738  0              0             -213.55646     -440.48865      13.267234      0             -29.801473      0              0              9.6502826      9.6082205      0.2            92.722043    
      1400   0.21120124     0.00033044125  0.00033044125  0              0             -141.94583     -94.992116     -188.98898      0             -87.447651      0              0              9.6493163      9.6032235      0.2            92.664542    
      1500   0.19356998     0.00028046944  0.00028046944  0              0              50.332017     -98.781572      199.35719      0             -9.6678997      0              0              9.6483501      9.5971764      0.2            92.596918    
      1600   0.1760741      0.00037976535  0.00037976535  0              0             -262.37697     -311.13989     -213.69523      0             -415.51245      0              0              9.6473839      9.6149666      0.2            92.759273    
      1700   0.26285188     0.00029984964  0.00029984964  0              0             -256.23636     -553.16152      40.592184      0             -101.6886       0              0              9.6464176      9.5997026      0.2            92.60274     
      1800   0.28483897     0.00035858384  0.00035858384  0              0             -172.5861      -513.43502      168.21261      0              245.97765      0              0              9.6454514      9.5829434      0.2            92.431815    
      1900   0.21889121     0.00031998418  0.00031998418  0              0             -269.1823      -237.21005     -301.24468      0             -466.42234      0              0              9.6444851      9.6031474      0.2            92.617412    
      2000   0.19886244     0.00033702801  0.00033702801  0              0              40.858015     -255.26606      336.90179      0             -538.45493      0              0              9.6435189      9.5941436      0.2            92.521305    
      2100   0.22359938     0.00023821429  0.00023821429  0              0             -312.50315     -387.27974     -237.80353      0             -47.862348      0              0              9.6425526      9.5930106      0.2            92.50111     
      2200   0.25325175     0.00036727633  0.00036727633  0              0              53.984235      179.3112      -71.43297       0             -182.36962      0              0              9.6415864      9.5880581      0.2            92.444091    
      2300   0.19752109     0.00033302592  0.00033302592  0              0              185.24836      85.473329      284.96015      0             -282.37822      0              0              9.6406202      9.5636063      0.2            92.199096    
      2400   0.24723913     0.00037450187  0.00037450187  0              0             -162.40014      115.20446     -440.0661       0              345.9516       0              0              9.6396539      9.598528       0.2            92.526488    
      2500   0.17919251     0.00031622602  0.00031622602  0              0              401.64623      436.29422      366.90111      0             -33.186271      0              0              9.6386877      9.5790178      0.2            92.329161    
      2600   0.2014125      0.0004914595   0.0004914595   0              0              250.90786      604.78318     -103.05592      0              115.43329      0              0              9.6377214      9.5948899      0.2            92.472876    
      2700   0.23364793     0.00035247486  0.00035247486  0              0             -106.08242      23.900681     -236.16416      0             -11.4948        0              0              9.6367552      9.6183859      0.2            92.69003     
      2800   0.21396962     0.00033763902  0.00033763902  0              0              503.53824      726.65056      280.30961      0              262.89911      0              0              9.635789       9.6246105      0.2            92.740716    
      2900   0.15009568     0.00034363808  0.00034363808  0              0             -301.30036     -361.08428     -241.62284      0             -317.42224      0              0              9.6348227      9.6117768      0.2            92.607766    
      3000   0.23642985     0.00026500511  0.00026500511  0              0              199.60708      353.3513       45.798787      0             -150.76601      0              0              9.6338565      9.6218139      0.2            92.695174    
      3100   0.23522524     0.0002926307   0.0002926307   0              0              520.01601      774.30197      265.63864      0              348.98693      0              0              9.6328902      9.6024455      0.2            92.499303    
      3200   0.23285794     0.00034109348  0.00034109348  0              0              259.63411      949.41658     -430.2157       0              180.1479       0              0              9.631924       9.6220537      0.2            92.67889     
      3300   0.23205        0.00032899749  0.00032899749  0              0              313.79842      133.71022      493.79458      0             -27.794951      0              0              9.6309578      9.6028351      0.2            92.484499    
      3400   0.22316222     0.00021967889  0.00021967889  0              0             -359.44691     -510.62752     -208.35672      0             -256.67302      0              0              9.6299915      9.6054696      0.2            92.500591    
      3500   0.1654969      0.00034041376  0.00034041376  0              0              9.4022214      142.15154     -123.44095      0             -346.41349      0              0              9.6290253      9.6018637      0.2            92.456588    
      3600   0.16161362     0.0003561006   0.0003561006   0              0              267.70503      117.91621      417.42122      0              27.440894      0              0              9.628059       9.5946841      0.2            92.378185    
      3700   0.19290549     0.00038797076  0.00038797076  0              0             -324.1886      -26.317815     -622.15068      0             -121.29976      0              0              9.6270928      9.6171546      0.2            92.58524     
      3800   0.20841043     0.00042517499  0.00042517499  0              0              617.63785      716.61935      518.58254      0              149.92871      0              0              9.6261266      9.5926927      0.2            92.340474    
      3900   0.27134583     0.00037512845  0.00037512845  0              0             -128.18735     -89.392967     -167.06774      0              354.65263      0              0              9.6251603      9.6194537      0.2            92.588784    
      4000   0.20869815     0.00031854111  0.00031854111  0              0              82.267885      597.83207     -433.38699      0              36.144138      0              0              9.6241941      9.6182268      0.2            92.567682    
      4100   0.19657391     0.00044003933  0.00044003933  0              0              364.84224     -14.675306      744.26139      0             -440.91327      0              0              9.6232278      9.5797304      0.2            92.187929    
      4200   0.2458922      0.00028171791  0.00028171791  0              0             -350.86086     -94.45861      -607.36889      0             -28.902736      0              0              9.6222616      9.5997403      0.2            92.371212    
      4300   0.16829977     0.00044678539  0.00044678539  0              0              48.239053     -110.01023      206.38206      0             -160.54313      0              0              9.6212953      9.56788        0.2            92.0554      
      4400   0.17426026     0.00032395407  0.00032395407  0              0              532.86376      763.86202      301.78671      0             -310.73126      0              0              9.6203291      9.5633071      0.2            92.002161    
      4500   0.19357196     0.00034572294  0.00034572294  0              0             -705.27653     -807.01817     -603.61721      0             -242.72714      0              0              9.6193629      9.595275       0.2            92.300432    
      4600   0.17394464     0.00025261564  0.00025261564  0              0              463.05502      193.33679      732.67214      0             -149.67287      0              0              9.6183966      9.5818472      0.2            92.162007    
      4700   0.17429931     0.00036334575  0.00036334575  0              0             -428.87077     -444.20661     -413.61519      0             -105.50777      0              0              9.6174304      9.6003946      0.2            92.331127    
      4800   0.20805701     0.00036720868  0.00036720868  0              0             -49.95491      -59.848674     -40.128128      0             -147.33229      0              0              9.6164641      9.5932567      0.2            92.253209    
      4900   0.13296776     0.00030228672  0.00030228672  0              0              155.77952     -21.298248      332.76633      0             -20.92484       0              0              9.6154979      9.6124643      0.2            92.42863     
      5000   0.2377517      0.00022692123  0.00022692123  0              0             -509.3593      -477.94453     -540.85881      0             -33.025702      0              0              9.6145317      9.5989757      0.2            92.289656    
      5100   0.21231367     0.00044313472  0.00044313472  0              0              645.0946       890.29951      399.78823      0              172.29766      0              0              9.6135654      9.58188        0.2            92.11603     
      5200   0.18434861     0.00038071902  0.00038071902  0              0             -87.012352     -135.97039     -38.176983      0             -491.76114      0              0              9.6125992      9.5786476      0.2            92.0757      
      5300   0.20543007     0.00032366019  0.00032366019  0              0             -96.3062        4.7311696     -197.4281       0             -37.87077       0              0              9.6116329      9.5826571      0.2            92.104982    
      5400   0.27650631     0.00033673522  0.00033673522  0              0              142.66318     -119.96483      405.20077      0             -340.34227      0              0              9.6106667      9.5668906      0.2            91.944196    
      5500   0.1465738      0.00045436995  0.00045436995  0              0             -327.3716      -229.69704     -425.12761      0              276.90534      0              0              9.6097005      9.5777228      0.2            92.039047    
      5600   0.19263859     0.0003461829   0.0003461829   0              0             -44.862334     -467.55628      377.76731      0             -151.44898      0              0              9.6087342      9.5649281      0.2            91.906852    
      5700   0.18457321     0.00037674243  0.00037674243  0              0             -201.9299      -222.56431     -181.36138      0              201.36421      0              0              9.607768       9.5963756      0.2            92.19975     
      5800   0.20954084     0.00027106751  0.00027106751  0              0             -431.88474     -734.21526     -129.62989      0             -224.02712      0              0              9.6068017      9.5927438      0.2            92.155588    
      5900   0.17286172     0.0003890193   0.0003890193   0              0             -216.58138     -722.71694      289.47182      0              193.20144      0              0              9.6058355      9.5935142      0.2            92.153719    
      6000   0.1752334      0.00035631072  0.00035631072  0              0             -83.139022      204.04571     -370.42289      0             -81.080493      0              0              9.6048693      9.6045147      0.2            92.250108    
      6100   0.17362335     0.00046879069  0.00046879069  0              0              179.13484      137.93311      220.25439      0             -84.340261      0              0              9.603903       9.6134755      0.2            92.326886    
      6200   0.16704156     0.00033052569  0.00033052569  0              0             -97.85183      -95.144268     -100.63321      0             -147.37877      0              0              9.6029368      9.6066698      0.2            92.252243    
      6300   0.22970586     0.00032492923  0.00032492923  0              0             -58.895974     -50.470299     -67.403943      0              362.80904      0              0              9.6019705      9.6159459      0.2            92.332029    
      6400   0.15782054     0.00036375893  0.00036375893  0              0              69.290521     -13.327757      151.84903      0              410.79937      0              0              9.6010043      9.598166       0.2            92.152033    
      6500   0.2848944      0.0003702315   0.0003702315   0              0             -112.60411     -13.494322     -211.78101      0              181.27117      0              0              9.600038       9.6107857      0.2            92.263909    
      6600   0.30465085     0.00038865197  0.00038865197  0              0             -362.12041     -881.6563       157.34861      0             -293.84938      0              0              9.5990718      9.5938541      0.2            92.092095    
      6700   0.20796049     0.00038356438  0.00038356438  0              0             -212.71123     -353.74111     -71.732073      0             -121.7219       0              0              9.5981056      9.5923933      0.2            92.068804    
      6800   0.26077137     0.00046446113  0.00046446113  0              0              74.862741      238.57302     -88.917706      0              232.44395      0              0              9.5971393      9.6077482      0.2            92.206898    
      6900   0.22920604     0.00045141255  0.00045141255  0              0             -92.693293     -375.12647      189.65037      0             -33.692461      0              0              9.5961731      9.5906999      0.2            92.034016    
      7000   0.22198142     0.00033035234  0.00033035234  0              0             -243.69442     -285.44687     -202.03169      0             -77.947998      0              0              9.5952068      9.6018668      0.2            92.131898    
      7100   0.20012802     0.00026689168  0.00026689168  0              0             -104.49369     -292.06666      83.004775      0             -45.45298       0              0              9.5942406      9.6128085      0.2            92.227598    
      7200   0.18617718     0.00036753973  0.00036753973  0              0              175.53835      177.05219      173.9389       0             -316.9284       0              0              9.5932744      9.6066101      0.2            92.158846    
      7300   0.21241749     0.00043835019  0.00043835019  0              0             -158.11616     -85.804843     -230.51265      0              168.92998      0              0              9.5923081      9.6174212      0.2            92.253268    
      7400   0.23831855     0.00039961116  0.00039961116  0              0              333.16405      472.14306      194.10849      0             -283.45556      0              0              9.5913419      9.6179537      0.2            92.249082    
      7500   0.24121825     0.00031743962  0.00031743962  0              0              40.267348      103.32689     -22.868732      0             -261.27343      0              0              9.5903756      9.6202855      0.2            92.262152    
      7600   0.21822422     0.00026638495  0.00026638495  0              0              21.455007      285.05425     -242.22029      0             -361.50928      0              0              9.5894094      9.6335952      0.2            92.380488    
      7700   0.21265847     0.00032093054  0.00032093054  0              0             -77.021889     -455.11094      301.00011      0             -60.043065      0              0              9.5884432      9.6340417      0.2            92.375462    
      7800   0.19200025     0.00046905824  0.00046905824  0              0              28.745608      148.43997     -91.019533      0             -210.97035      0              0              9.5874769      9.6426555      0.2            92.448737    
      7900   0.25457286     0.00030065041  0.00030065041  0              0             -213.52611     -382.04404     -45.082406      0             -122.19815      0              0              9.5865107      9.6281227      0.2            92.300101    
      8000   0.2201416      0.00041611625  0.00041611625  0              0              156.49265      41.233717      271.64823      0             -417.97048      0              0              9.5855444      9.5931733      0.2            91.955789    
      8100   0.17590733     0.00036068917  0.00036068917  0              0             -14.403522      309.25823     -338.13978      0              302.43456      0              0              9.5845782      9.6018138      0.2            92.029335    
      8200   0.24171035     0.00030340275  0.00030340275  0              0              159.49858     -13.71927       332.63841      0              81.459726      0              0              9.583612       9.5956782      0.2            91.961256    
      8300   0.18572335     0.00031833179  0.00031833179  0              0             -227.06622     -408.53018     -45.690105      0             -6.1970172      0              0              9.5826457      9.5956802      0.2            91.952004    
      8400   0.26545239     0.0004902013   0.0004902013   0              0             -231.94414     -299.96319     -164.0165       0             -272.22621      0              0              9.5816795      9.5978448      0.2            91.963472    
      8500   0.2297779      0.00025520188  0.00025520188  0              0              214.33985      70.265811      358.33267      0             -98.400184      0              0              9.5807132      9.575604       0.2            91.741115    
      8600   0.25570898     0.00039570208  0.00039570208  0              0             -521.36295     -594.17545     -448.62614      0              248.73827      0              0              9.579747       9.5864438      0.2            91.835706    
      8700   0.22249914     0.00023863191  0.00023863191  0              0              272.04108      257.86842      286.12236      0             -34.516611      0              0              9.5787807      9.5861765      0.2            91.823883    
      8800   0.1968572      0.00036263659  0.00036263659  0              0             -162.97483     -257.27806     -68.777574      0             -419.21344      0              0              9.5778145      9.6015685      0.2            91.962042    
      8900   0.18912386     0.00031446075  0.00031446075  0              0              6.8411534      218.92204     -205.31993      0              257.54059      0              0              9.5768483      9.6223257      0.2            92.151553    
      9000   0.24125479     0.00034186903  0.00034186903  0              0              391.44666      376.49116      406.31707      0              107.93083      0              0              9.575882       9.6305949      0.2            92.22144     
      9100   0.2585293      0.00048733426  0.00048733426  0              0              18.176044      507.53243     -471.24305      0              326.63979      0              0              9.5749158      9.6468275      0.2            92.367561    
      9200   0.29967251     0.00040368785  0.00040368785  0              0             -35.932326     -468.49421      396.54355      0              399.38763      0              0              9.5739495      9.6343869      0.2            92.239134    
      9300   0.25536544     0.00041433919  0.00041433919  0              0             -289.26409     -291.70873     -286.90342      0             -309.70923      0              0              9.5729833      9.6361664      0.2            92.24686     
      9400   0.21856716     0.00027279304  0.00027279304  0              0             -24.654123     -58.205697      8.8177441      0             -20.746564      0              0              9.5720171      9.6092356      0.2            91.979767    
      9500   0.13289046     0.00034896151  0.00034896151  0              0              40.188655     -146.80096      227.10126      0              293.3123       0              0              9.5710508      9.6025506      0.2            91.9065      
      9600   0.21682837     0.00030796472  0.00030796472  0              0             -68.925081      302.88643     -440.79443      0              160.41722      0              0              9.5700846      9.5966383      0.2            91.84064     
      9700   0.22811275     0.00038458512  0.00038458512  0              0              540.88284      557.19455      524.50312      0              84.821188      0              0              9.5691183      9.581089       0.2            91.682575    
      9800   0.23458097     0.00046336661  0.00046336661  0              0             -402.03399     -339.09196     -465.05485      0             -47.829566      0              0              9.5681521      9.6097146      0.2            91.947211    
      9900   0.19962479     0.00042591168  0.00042591168  0              0             -321.13934     -869.83021      227.47232      0             -223.71802      0              0              9.5671859      9.611281       0.2            91.952912    
     10000   0.24748687     0.00026438413  0.00026438413  0              0              116.56269      46.269658      186.77386      0             -122.50886      0              0              9.5662196      9.6001601      0.2            91.83724     
     10100   0.13495066     0.00043960318  0.00043960318  0              0             -130.74698      216.19691     -477.77821      0             -44.762149      0              0              9.5652534      9.6232921      0.2            92.049227    
     10200   0.26469274     0.00041891838  0.00041891838  0              0              677.97044      845.63753      510.2401       0              487.80497      0              0              9.5642871      9.6031618      0.2            91.847396    
     10300   0.31551203     0.00034231986  0.00034231986  0              0             -175.02413      97.316607     -447.4423       0             -88.290719      0              0              9.5633209      9.6048521      0.2            91.854283    
     10400   0.22096633     0.00035117335  0.00035117335  0              0              98.447653     -33.244728      230.04858      0             -437.08972      0              0              9.5623547      9.5934241      0.2            91.735724    
     10500   0.26021714     0.00036567602  0.00036567602  0              0              464.28933      826.35679      102.1512       0             -192.25031      0              0              9.5613884      9.6031592      0.2            91.819535    
     10600   0.18201355     0.00033024844  0.00033024844  0              0             -277.91358     -154.76607     -401.18272      0             -403.78793      0              0              9.5604222      9.5952435      0.2            91.734579    
     10700   0.15325048     0.00053675037  0.00053675037  0              0              479.57895      340.63516      618.43758      0              445.63703      0              0              9.5594559      9.5854865      0.2            91.632036    
     10800   0.22958255     0.00062413351  0.00062413351  0              0             -750.14006     -896.53716     -603.82375      0             -55.50433       0              0              9.5584897      9.5933862      0.2            91.698283    
     10900   0.18890281     0.00045726893  0.00045726893  0              0              143.57604     -12.428663      299.51277      0              739.18571      0              0              9.5575234      9.6005317      0.2            91.757306    
     11000   0.25046014     0.00044376239  0.00044376239  0              0              243.38804      411.81152      74.881043      0              214.25906      0              0              9.5565572      9.5841927      0.2            91.591885    
     11100   0.22382766     0.00017567714  0.00017567714  0              0             -162.76572      51.470516     -377.09423      0             -262.49614      0              0              9.555591       9.578031       0.2            91.523747    
     11200   0.24319735     0.0003863247   0.0003863247   0              0              295.94613     -2.7437585      594.53546      0              271.8827       0              0              9.5546247      9.5669565      0.2            91.408679    
     11300   0.16751296     0.00024194111  0.00024194111  0              0             -192.36062      165.78576     -550.60202      0             -8.5071196      0              0              9.5536585      9.5901214      0.2            91.620745    
     11400   0.32373371     0.00037673993  0.00037673993  0              0              243.47466      25.381423      461.47834      0              134.75806      0              0              9.5526922      9.583709       0.2            91.550223    
     11500   0.25256288     0.00036862182  0.00036862182  0              0             -325.77389     -405.62217     -246.00803      0             -155.44879      0              0              9.551726       9.5918444      0.2            91.61867     
     11600   0.23147027     0.00038292494  0.00038292494  0              0              24.785         21.42209       28.049667      0             -292.77076      0              0              9.5507598      9.5752293      0.2            91.450715    
     11700   0.18043515     0.00053891901  0.00053891901  0              0              649.93766      1033.8936      265.91674      0             -169.1672       0              0              9.5497935      9.5676326      0.2            91.368916    
     11800   0.11855628     0.00036020984  0.00036020984  0              0             -98.00307       156.78764     -352.89536      0              148.67094      0              0              9.5488273      9.5778392      0.2            91.457132    
     11900   0.18193166     0.00046468868  0.00046468868  0              0              455.81927      482.32147      429.25094      0              167.72988      0              0              9.547861       9.5664033      0.2            91.338689    
     12000   0.25449269     0.00034853185  0.00034853185  0              0             -143.50658      21.147467     -308.25011      0             -274.45773      0              0              9.5468948      9.5686816      0.2            91.351197    
     12100   0.1993349      0.00048326421  0.00048326421  0              0             -111.01676     -426.40547      204.27653      0             -134.10544      0              0              9.5459286      9.5656282      0.2            91.312803    
     12200   0.25111312     0.00040426232  0.00040426232  0              0             -24.267674     -197.83363      149.21878      0             -501.12298      0              0              9.5449623      9.5715881      0.2            91.360448    
     12300   0.19139602     0.00046239002  0.00046239002  0              0              13.551928      428.30266     -401.2543       0              360.32886      0              0              9.5439961      9.5836465      0.2            91.466285    
     12400   0.29139322     0.00038850805  0.00038850805  0              0              319.93006      46.233031      593.51127      0             -345.86047      0              0              9.5430298      9.5570798      0.2            91.203498    
     12500   0.18823803     0.0004603257   0.0004603257   0              0             -296.38933     -103.41934     -489.41786      0             -5.4650043      0              0              9.5420636      9.5884069      0.2            91.493189    
     12600   0.240009       0.00038636131  0.00038636131  0              0              314.53059      342.26613      286.73347      0              130.05087      0              0              9.5410974      9.5524386      0.2            91.140747    
     12700   0.21163732     0.00040379417  0.00040379417  0              0             -279.18823     -579.69767      21.240611      0             -6.9141587      0              0              9.5401311      9.5622431      0.2            91.225053    
     12800   0.16989019     0.0003233766   0.0003233766   0              0             -128.19994     -60.239455     -196.24023      0             -251.62543      0              0              9.5391649      9.5559546      0.2            91.155827    
     12900   0.17482355     0.00043891306  0.00043891306  0              0              391.94605      467.32351      316.50772      0             -154.65594      0              0              9.5381986      9.5505038      0.2            91.094603    
     13000   0.18029368     0.00032701602  0.00032701602  0              0             -7.2814722      384.64173     -399.30206      0              37.081846      0              0              9.5372324      9.5737156      0.2            91.30675     
     13100   0.15775835     0.00035767451  0.00035767451  0              0              315.46719      385.62229      245.23373      0              196.25239      0              0              9.5362661      9.5673502      0.2            91.236798    
     13200   0.26661788     0.00029788408  0.00029788408  0              0              112.86417      203.81724      21.824073      0              40.491905      0              0              9.5352999      9.5688842      0.2            91.242181    
     13300   0.20464418     0.0002726497   0.0002726497   0              0             -69.647539      21.840695     -161.20605      0             -66.499024      0              0              9.5343337      9.5660464      0.2            91.205879    
     13400   0.24818395     0.00045885528  0.00045885528  0              0              324.92826      321.74802      328.03634      0             -258.00944      0              0              9.5333674      9.5642222      0.2            91.179244    
     13500   0.13819596     0.00046814538  0.00046814538  0              0             -322.90107     -215.3772      -430.50967      0             -45.097044      0              0              9.5324012      9.5550707      0.2            91.082767    
     13600   0.16269579     0.00052938252  0.00052938252  0              0              560.24422      771.40796      348.99913      0             -128.33007      0              0              9.5314349      9.5407278      0.2            90.936826    
     13700   0.22001032     0.00035060634  0.00035060634  0              0             -188.41547     -163.47889     -213.41723      0              337.17258      0              0              9.5304687      9.5455582      0.2            90.973644    
     13800   0.22850312     0.00044342157  0.00044342157  0              0              208.49022      423.42453     -6.5113655      0             -29.185275      0              0              9.5295025      9.5460842      0.2            90.969433    
     13900   0.24047517     0.00042262757  0.00042262757  0              0              58.815145     -120.78219      238.31067      0             -303.59376      0              0              9.5285362      9.5252355      0.2            90.761552    
     14000   0.23817308     0.00040467387  0.00040467387  0              0             -462.16427     -595.6955      -328.71918      0              377.4898       0              0              9.52757        9.5505105      0.2            90.993158    
     14100   0.18510934     0.0003912312   0.0003912312   0              0              319.17304      261.75099      376.5236       0              285.65978      0              0              9.5266037      9.5513566      0.2            90.991989    
     14200   0.18818864     0.00025943168  0.00025943168  0              0              5.1534254      283.6375      -273.4067       0              554.6662       0              0              9.5256375      9.5783912      0.2            91.240283    
     14300   0.25626116     0.00037734772  0.00037734772  0              0              222.72379      346.63577      98.729022      0             -110.97094      0              0              9.5246713      9.5794876      0.2            91.24147     
     14400   0.15815986     0.00040445699  0.00040445699  0              0             -63.533865     -249.60167      122.43485      0              46.288224      0              0              9.523705       9.5872755      0.2            91.306383    
     14500   0.20429227     0.00052893566  0.00052893566  0              0             -406.8082      -511.90966     -301.79659      0              285.99967      0              0              9.5227388      9.5957271      0.2            91.377603    
     14600   0.31813734     0.00034786066  0.00034786066  0              0              282.15458      237.26085      326.97686      0             -154.41791      0              0              9.5217725      9.589692       0.2            91.310866    
     14700   0.22786053     0.00042448026  0.00042448026  0              0              58.159706      322.19899     -205.95681      0             -333.20218      0              0              9.5208063      9.5958005      0.2            91.359758    
     14800   0.22646348     0.00031896582  0.00031896582  0              0              250.90677      573.75253     -72.036657      0              83.126097      0              0              9.5198401      9.5704842      0.2            91.109478    
     14900   0.19280045     0.0003804609   0.0003804609   0              0              154.66856      43.825043      265.44514      0              63.766427      0              0              9.5188738      9.5735357      0.2            91.129278    
     15000   0.15241693     0.0003653011   0.0003653011   0              0             -223.63244      32.442838     -479.80499      0              115.45999      0              0              9.5179076      9.5734882      0.2            91.119576    
     15100   0.19658066     0.00042842518  0.00042842518  0              0              346.83605      147.57946      546.03233      0              97.306646      0              0              9.5169413      9.5521911      0.2            90.907642    
     15200   0.28088396     0.00031410762  0.00031410762  0              0             -300.28454     -275.44236     -325.20962      0             -170.58475      0              0              9.5159751      9.5791334      0.2            91.154795    
     15300   0.22540466     0.00031226523  0.00031226523  0              0              203.24193      504.83674     -98.421315      0              190.03118      0              0              9.5150088      9.5957932      0.2            91.304058    
     15400   0.13995431     0.00023997089  0.00023997089  0              0              612.34022      653.01836      571.59773      0              155.77979      0              0              9.5140426      9.5966475      0.2            91.302913    
     15500   0.23918011     0.00045631203  0.00045631203  0              0             -599.38906     -334.08914     -864.75407      0             -370.78627      0              0              9.5130764      9.6364147      0.2            91.671949    
     15600   0.25126331     0.0003387172   0.0003387172   0              0              327.34915     -32.045792      686.6541       0             -244.02989      0              0              9.5121101      9.6084333      0.2            91.396475    
     15700   0.18869704     0.00041129198  0.00041129198  0              0             -166.85292     -229.48663     -104.3196       0             -297.27577      0              0              9.5111439      9.6043585      0.2            91.348436    
     15800   0.14095736     0.00029642896  0.00029642896  0              0             -467.41522     -338.21754     -596.70555      0              465.53965      0              0              9.5101776      9.6238239      0.2            91.524275    
     15900   0.29490026     0.00040663117  0.00040663117  0              0              451.39581     -31.685178      934.38957      0             -489.58609      0              0              9.5092114      9.5990578      0.2            91.27947     
     16000   0.24669111     0.00044090435  0.00044090435  0              0             -466.39625      49.802857     -982.66367      0              551.72615      0              0              9.5082452      9.6352747      0.2            91.614554    
     16100   0.17324639     0.00046382544  0.00046382544  0              0              417.48305      237.08243      597.82539      0              368.71071      0              0              9.5072789      9.599885       0.2            91.268784    
     16200   0.26932949     0.00035759701  0.00035759701  0              0              107.72476      300.76603     -85.372702      0             -99.392952      0              0              9.5063127      9.614351       0.2            91.397026    
     16300   0.17523909     0.00026671033  0.00026671033  0              0             -377.04765     -314.08235     -440.09127      0              67.351639      0              0              9.5053464      9.6020486      0.2            91.270799    
     16400   0.12423459     0.00039026343  0.00039026343  0              0              332.38013      127.56927      537.10577      0              224.68713      0              0              9.5043802      9.5915963      0.2            91.162178    
     16500   0.28887529     0.00034205238  0.00034205238  0              0             -273.98037      44.792074     -592.81636      0              32.12675       0              0              9.503414       9.6182337      0.2            91.406057    
     16600   0.22099301     0.00048884481  0.00048884481  0              0              65.053691     -252.01124      382.06502      0             -164.01104      0              0              9.5024477      9.6135322      0.2            91.352087    
     16700   0.2310911      0.00047014059  0.00047014059  0              0             -552.80567     -918.83571     -186.87141      0             -416.84763      0              0              9.5014815      9.6331095      0.2            91.528811    
     16800   0.2352448      0.00039358325  0.00039358325  0              0             -237.58626     -362.55473     -112.68983      0             -461.80046      0              0              9.5005152      9.6273737      0.2            91.465011    
     16900   0.17779934     0.00022137951  0.00022137951  0              0              257.29542      160.82083      353.6671       0             -224.78979      0              0              9.499549       9.6060833      0.2            91.253459    
     17000   0.21612464     0.00032837418  0.00032837418  0              0             -521.87384     -552.06578     -491.77717      0              377.08061      0              0              9.4985828      9.6113575      0.2            91.294275    
     17100   0.20683785     0.00044099695  0.00044099695  0              0              81.377485     -99.716932      262.39345      0              442.07961      0              0              9.4976165      9.6140417      0.2            91.310481    
     17200   0.22605017     0.00027092135  0.00027092135  0              0             -208.87821     -419.75818      1.9116263      0              18.058142      0              0              9.4966503      9.6226471      0.2            91.382914    
     17300   0.18005398     0.0003065534   0.0003065534   0              0              202.87903      588.03675     -182.35762      0              107.77651      0              0              9.495684       9.6362565      0.2            91.502847    
     17400   0.18214279     0.00050440684  0.00050440684  0              0              165.01593      73.067734      256.86419      0             -69.621942      0              0              9.4947178      9.6360257      0.2            91.491345    
     17500   0.24994914     0.00042175108  0.00042175108  0              0             -19.602384      35.226269     -74.520239      0              24.123901      0              0              9.4937515      9.6273361      0.2            91.399537    
     17600   0.24675617     0.00040985376  0.00040985376  0              0             -16.727476      133.76979     -167.29801      0              204.53044      0              0              9.4927853      9.6250185      0.2            91.368234    
     17700   0.20142068     0.00046070402  0.00046070402  0              0             -43.698196     -283.83429      196.36896      0              97.033534      0              0              9.4918191      9.6348815      0.2            91.452551    
     17800   0.20021235     0.00043271434  0.00043271434  0              0             -5.8749663      192.41652     -204.25203      0              190.41929      0              0              9.4908528      9.6269138      0.2            91.367622    
     17900   0.19619509     0.00041171131  0.00041171131  0              0              352.2985       578.6561       125.88129      0              589.57039      0              0              9.4898866      9.6178315      0.2            91.27213     
     18000   0.18083023     0.00040970082  0.00040970082  0              0              286.00574      494.16833      77.771292      0             -228.40046      0              0              9.4889203      9.6167201      0.2            91.252291    
     18100   0.26232535     0.00042157544  0.00042157544  0              0             -77.78064       48.572503     -204.21944      0              12.249613      0              0              9.4879541      9.5968608      0.2            91.054575    
     18200   0.262613       0.0004025117   0.0004025117   0              0              1.1191366     -173.09264      175.23279      0              276.5459       0              0              9.4869879      9.5811417      0.2            90.896175    
     18300   0.25034321     0.00040615011  0.00040615011  0              0              81.120122      119.10067      43.041508      0              242.1974       0              0              9.4860216      9.5816754      0.2            90.89198     
     18400   0.29899451     0.0003752569   0.0003752569   0              0             -151.22594     -207.6915      -94.829914      0             -41.418459      0              0              9.4850554      9.5826441      0.2            90.89191     
     18500   0.18515348     0.00042192271  0.00042192271  0              0             -61.924317     -235.03271      111.08541      0              392.01256      0              0              9.4840891      9.5901987      0.2            90.954299    
     18600   0.2402664      0.0002962468   0.0002962468   0              0             -28.995223      62.59045      -120.65837      0              306.90322      0              0              9.4831229      9.6009863      0.2            91.047333    
     18700   0.2759746      0.00037570385  0.00037570385  0              0              5.7703358      14.685432     -3.2391415      0             -220.48724      0              0              9.4821567      9.5970674      0.2            91.000896    
     18800   0.2553483      0.00031470459  0.00031470459  0              0              181.85889      272.89617      90.722961      0             -748.56908      0              0              9.4811904      9.5962866      0.2            90.98422     
     18900   0.238398       0.000274874    0.000274874    0              0             -279.44257     -373.38399     -185.58651      0              112.9007       0              0              9.4802242      9.6068689      0.2            91.075271    
     19000   0.16708954     0.00042435534  0.00042435534  0              0             -51.284863     -247.79611      145.16173      0              304.47175      0              0              9.4792579      9.6126193      0.2            91.120498    
     19100   0.17935748     0.00043539212  0.00043539212  0              0             -459.39312     -916.53003     -2.3305139      0             -511.50787      0              0              9.4782917      9.6077313      0.2            91.06488     
     19200   0.24568425     0.00045436194  0.00045436194  0              0              29.575105      281.85584     -222.79344      0              49.805853      0              0              9.4773255      9.6010594      0.2            90.992364    
     19300   0.24106733     0.00040426795  0.00040426795  0              0             -21.611969     -307.77388      264.4585       0              115.43564      0              0              9.4763592      9.5961492      0.2            90.936557    
     19400   0.19410761     0.00058151611  0.00058151611  0              0             -610.19943     -986.50815     -233.982        0              45.771221      0              0              9.475393       9.6060846      0.2            91.021427    
     19500   0.16946453     0.00040914185  0.00040914185  0              0             -219.22726     -427.56538     -10.990747      0             -97.704744      0              0              9.4744267      9.5986908      0.2            90.942093    
     19600   0.20456805     0.00042472186  0.00042472186  0              0              100.86485      67.186606      134.44788      0              91.421174      0              0              9.4734605      9.5731646      0.2            90.690997    
     19700   0.16671689     0.00033661971  0.00033661971  0              0             -559.51053     -839.37677     -279.70423      0             -221.01604      0              0              9.4724942      9.5798007      0.2            90.744607    
     19800   0.23373203     0.00037931335  0.00037931335  0              0             -284.25969     -863.83529      295.26632      0              229.65525      0              0              9.471528       9.5813918      0.2            90.750421    
     19900   0.16739086     0.00027131424  0.00027131424  0              0              81.625768      256.6823      -93.565998      0             -330.43092      0              0              9.4705618      9.5930682      0.2            90.851745    
     20000   0.22801151     0.00029310619  0.00029310619  0              0             -99.174502     -4.9854614     -193.44227      0             -399.67133      0              0              9.4695955      9.5792886      0.2            90.711988    
     20100   0.23212416     0.00034040224  0.00034040224  0              0              171.8027      -35.766275      379.26277      0             -66.842014      0              0              9.4686293      9.5798809      0.2            90.70834     
     20200   0.12219143     0.00038009608  0.00038009608  0              0             -398.25256     -331.9454      -464.64935      0             -93.353785      0              0              9.467663       9.5854599      0.2            90.751904    
     20300   0.14609465     0.00047461822  0.00047461822  0              0              375.84108      497.44688      254.14425      0             -422.59901      0              0              9.4666968      9.5663608      0.2            90.561837    
     20400   0.21041502     0.00043699435  0.00043699435  0              0              172.32358      298.6745       45.9106        0              285.15302      0              0              9.4657306      9.5623276      0.2            90.514416    
     20500   0.23885156     0.00042132995  0.00042132995  0              0             -300.61396     -153.04116     -448.3036       0             -737.79264      0              0              9.4647643      9.5779729      0.2            90.653256    
     20600   0.24794819     0.00035199555  0.00035199555  0              0              734.68163      881.64583      587.6454       0             -358.95903      0              0              9.4637981      9.5545399      0.2            90.422237    
     20700   0.19347574     0.0003445655   0.0003445655   0              0             -176.46157      132.88112     -485.90644      0              493.83462      0              0              9.4628318      9.5632872      0.2            90.495778    
     20800   0.221407       0.00029606897  0.00029606897  0              0              222.55956      136.47299      308.56477      0              438.99031      0              0              9.4618656      9.5536583      0.2            90.395431    
     20900   0.17640154     0.00029562346  0.00029562346  0              0              479.14592      860.39452      97.808486      0              191.46267      0              0              9.4608994      9.5580477      0.2            90.427728    
     21000   0.2467476      0.00041009647  0.00041009647  0              0             -367.78494     -300.52979     -435.13373      0             -301.7203       0              0              9.4599331      9.5460572      0.2            90.305063    
     21100   0.2929238      0.00038721691  0.00038721691  0              0              69.163469     -509.43863      647.68473      0             -315.3081       0              0              9.4589669      9.5469672      0.2            90.304446    
     21200   0.18819375     0.00033473083  0.00033473083  0              0              16.875472      628.48        -594.80536      0             -48.470061      0              0              9.4580006      9.5637066      0.2            90.453543    
     21300   0.28308955     0.00027696766  0.00027696766  0              0              332.64461      289.34281      375.86829      0             -74.87343       0              0              9.4570344      9.5416126      0.2            90.235358    
     21400   0.2032771      0.00049480229  0.00049480229  0              0             -158.62303     -318.21289      0.88251951     0             -600.6083       0              0              9.4560682      9.5432307      0.2            90.241439    
     21500   0.18028978     0.00034212586  0.00034212586  0              0             -601.86621     -787.79387     -416.00463      0             -111.7038       0              0              9.4551019      9.5560588      0.2            90.35351     
     21600   0.21347009     0.00065595894  0.00065595894  0              0              369.84642      157.95126      581.67626      0             -251.38423      0              0              9.4541357      9.5272419      0.2            90.071838    
     21700   0.18955289     0.00045222507  0.00045222507  0              0             -562.90653     -630.00035     -495.89282      0              38.764318      0              0              9.4531694      9.5303009      0.2            90.091549    
     21800   0.23941999     0.00042060307  0.00042060307  0              0              139.60475     -117.09794      396.22733      0             -325.92         0              0              9.4522032      9.5128016      0.2            89.916934    
     21900   0.19186201     0.00039732913  0.00039732913  0              0              29.473626      227.58354     -168.69538      0             -143.58056      0              0              9.4512369      9.5313255      0.2            90.082816    
     22000   0.18066883     0.00032957472  0.00032957472  0              0              78.622262      218.06177     -60.892379      0              210.9913       0              0              9.4502707      9.5450313      0.2            90.20313     
     22100   0.20656174     0.00035419612  0.00035419612  0              0              244.23184      135.69534      352.68367      0              215.60497      0              0              9.4493045      9.542828       0.2            90.173087    
     22200   0.19592412     0.00036975721  0.00036975721  0              0             -414.01595     -477.81886     -350.3068       0              145.1167       0              0              9.4483382      9.5582026      0.2            90.309131    
     22300   0.23610984     0.00044805601  0.00044805601  0              0             -17.101446     -407.7021       373.42087      0              132.1744       0              0              9.447372       9.5377123      0.2            90.106316    
     22400   0.169632       0.00067097504  0.00067097504  0              0              181.65098      636.73983     -273.50658      0             -327.57778      0              0              9.4464057      9.5548084      0.2            90.258597    
     22500   0.19803622     0.00042936905  0.00042936905  0              0             -285.25565     -627.28536      56.70415       0             -171.1994       0              0              9.4454395      9.5366785      0.2            90.07812     
     22600   0.15108705     0.00042100847  0.00042100847  0              0             -0.56533561    -187.32951      186.13286      0              390.78766      0              0              9.4444733      9.5469653      0.2            90.166058    
     22700   0.22842705     0.00030162248  0.00030162248  0              0             -310.38061     -272.59364     -348.26918      0              269.8082       0              0              9.443507       9.5560488      0.2            90.242614    
     22800   0.20330969     0.00033644368  0.00033644368  0              0              356.99831      382.41505      331.49075      0              274.99936      0              0              9.4425408      9.554406       0.2            90.217868    
     22900   0.2012249      0.00037716469  0.00037716469  0              0             -41.852903      170.17221     -253.97447      0             -397.30453      0              0              9.4415745      9.5516212      0.2            90.182343    
     23000   0.21993227     0.00034758666  0.00034758666  0              0              219.76379      361.62244      77.83978       0             -144.30259      0              0              9.4406083      9.5766091      0.2            90.409016    
     23100   0.23955176     0.00033021418  0.00033021418  0              0              425.76843      730.88735      120.55086      0              157.84906      0              0              9.4396421      9.5787959      0.2            90.420405    
     23200   0.24174832     0.00034126728  0.00034126728  0              0             -212.38545     -6.2570281     -418.5865       0              333.81868      0              0              9.4386758      9.5842982      0.2            90.463084    
     23300   0.21865892     0.00039638471  0.00039638471  0              0              387.87244      267.59784      508.05864      0              48.033604      0              0              9.4377096      9.5688542      0.2            90.308067    
     23400   0.20796228     0.00019797766  0.00019797766  0              0             -401.12695     -410.57138     -391.78539      0              58.992802      0              0              9.4367433      9.5840495      0.2            90.442215    
     23500   0.14361392     0.00037278317  0.00037278317  0              0              187.79186      344.5049       31.045667      0              184.30148      0              0              9.4357771      9.5805876      0.2            90.400289    
     23600   0.18317851     0.0003110048   0.0003110048   0              0              342.81673      542.76921      142.80213      0              260.14659      0              0              9.4348109      9.5695127      0.2            90.286542    
     23700   0.17785024     0.00031060624  0.00031060624  0              0              21.06105       379.67333     -337.62367      0              184.4456       0              0              9.4338446      9.5729291      0.2            90.309526    
     23800   0.1550753      0.00045129775  0.00045129775  0              0              278.09042      244.33279      311.78349      0              149.67007      0              0              9.4328784      9.5707902      0.2            90.2801      
     23900   0.20175206     0.00032751649  0.00032751649  0              0             -71.642648      116.54584     -259.9015       0             -242.24314      0              0              9.4319121      9.5921498      0.2            90.472314    
     24000   0.23943547     0.00034403912  0.00034403912  0              0              410.92748      639.61844      182.18775      0              570.75128      0              0              9.4309459      9.5900446      0.2            90.443191    
     24100   0.18337799     0.00042866428  0.00042866428  0              0              131.84225      226.17823      37.441652      0             -38.967039      0              0              9.4299797      9.5914485      0.2            90.447164    
     24200   0.24182839     0.0003631518   0.0003631518   0              0              152.06391      406.36067     -102.30861      0              448.24127      0              0              9.4290134      9.6051842      0.2            90.567411    
     24300   0.26572469     0.00051716283  0.00051716283  0              0              503.06635      692.86881      313.17109      0             -105.16566      0              0              9.4280472      9.5906289      0.2            90.420901    
     24400   0.24947728     0.00036653368  0.00036653368  0              0             -240.26609     -65.990887     -414.61499      0             -200.95008      0              0              9.4270809      9.6099712      0.2            90.593976    
     24500   0.15963877     0.00037669493  0.00037669493  0              0              546.07896      689.86525      402.21779      0              319.777        0              0              9.4261147      9.6035398      0.2            90.524068    
     24600   0.2165883      0.00033200041  0.00033200041  0              0             -346.35441     -424.30258     -268.47425      0             -197.18837      0              0              9.4251484      9.6038515      0.2            90.517726    
     24700   0.21659233     0.00039654965  0.00039654965  0              0              317.19637      416.44693      217.85524      0              411.36946      0              0              9.4241822      9.5976208      0.2            90.449727    
     24800   0.2141764      0.00035231376  0.00035231376  0              0              57.681075      218.59614     -103.31687      0              39.128511      0              0              9.423216       9.6048292      0.2            90.50838     
     24900   0.2053538      0.00042113081  0.00042113081  0              0             -138.19942     -268.94824     -7.5159102      0             -19.208064      0              0              9.4222497      9.5909422      0.2            90.368253    
     25000   0.19579726     0.00052138978  0.00052138978  0              0             -138.81479     -512.53016      234.82335      0              60.608548      0              0              9.4212835      9.6013754      0.2            90.45728     
     25100   0.18835808     0.0005046415   0.0005046415   0              0             -258.67135     -242.26914     -275.16681      0              263.97861      0              0              9.4203172      9.593304       0.2            90.371967    
     25200   0.21725315     0.00028832665  0.00028832665  0              0              400.28458      591.21872      209.24506      0              230.61941      0              0              9.419351       9.5958154      0.2            90.386354    
     25300   0.15647704     0.00024891634  0.00024891634  0              0              221.82444      528.50393     -84.932286      0              333.77914      0              0              9.4183848      9.574689       0.2            90.178105    
     25400   0.16683926     0.00037095631  0.00037095631  0              0             -85.283095     -306.65322      136.01328      0             -142.31145      0              0              9.4174185      9.5908841      0.2            90.32137     
     25500   0.2171268      0.00047657292  0.00047657292  0              0             -187.19155     -307.22608     -67.234494      0             -140.79231      0              0              9.4164523      9.5942908      0.2            90.344181    
     25600   0.22172943     0.00042825541  0.00042825541  0              0              317.76151      644.34126     -8.8956047      0             -97.672158      0              0              9.415486       9.59526        0.2            90.344036    
     25700   0.20014294     0.0004267756   0.0004267756   0              0              271.35848      419.87165      122.75752      0             -215.25759      0              0              9.4145198      9.590393       0.2            90.288945    
     25800   0.27610056     0.00040343439  0.00040343439  0              0              177.57694      493.73008     -138.64629      0             -178.75946      0              0              9.4135536      9.5757925      0.2            90.142235    
     25900   0.24143428     0.00045643375  0.00045643375  0              0             -246.46068     -539.40759      46.427855      0             -162.08459      0              0              9.4125873      9.5618199      0.2            90.001465    
     26000   0.28995954     0.0003085588   0.0003085588   0              0             -184.05359     -281.08238     -87.086613      0              41.378894      0              0              9.4116211      9.5744518      0.2            90.111112    
     26100   0.23179449     0.00038206904  0.00038206904  0              0              269.33997      522.14815      16.453063      0              66.680989      0              0              9.4106548      9.5541187      0.2            89.910513    
     26200   0.19493306     0.00042731551  0.00042731551  0              0             -169.11993     -430.60319      92.266291      0             -141.39418      0              0              9.4096886      9.5558324      0.2            89.917407    
     26300   0.25324227     0.00038302518  0.00038302518  0              0              136.48923      373.36328     -100.45775      0              248.6207       0              0              9.4087224      9.5528344      0.2            89.879967    
     26400   0.24868362     0.00027695968  0.00027695968  0              0             -203.74041     -555.40427      147.84687      0              497.48735      0              0              9.4077561      9.5506772      0.2            89.850442    
     26500   0.17318197     0.00028366434  0.00028366434  0              0              105.67857      365.73188     -154.47158      0              269.39619      0              0              9.4067899      9.5568886      0.2            89.899642    
     26600   0.18213036     0.00029208908  0.00029208908  0              0              152.62906      172.99807      132.15878      0              396.88472      0              0              9.4058236      9.5489743      0.2            89.815968    
     26700   0.22947485     0.00032797649  0.00032797649  0              0              0.9472725      68.159582     -66.333106      0             -63.79979       0              0              9.4048574      9.531927       0.2            89.646414    
     26800   0.25644971     0.0003248571   0.0003248571   0              0             -125.39007     -150.29876     -100.58031      0             -57.691971      0              0              9.4038911      9.5383903      0.2            89.697984    
     26900   0.26291231     0.00029297853  0.00029297853  0              0              153.24445      112.75576      193.6735       0             -276.3265       0              0              9.4029249      9.5449471      0.2            89.750421    
     27000   0.17658391     0.00035341822  0.00035341822  0              0              155.97551      594.06654     -282.19327      0              222.63128      0              0              9.4019587      9.5399165      0.2            89.693901    
     27100   0.19088202     0.00049435962  0.00049435962  0              0              107.28005     -61.871308      276.36543      0             -214.96366      0              0              9.4009924      9.5455614      0.2            89.73775     
     27200   0.2400268      0.00034050347  0.00034050347  0              0             -151.12224     -159.05768     -143.25347      0             -228.67227      0              0              9.4000262      9.5568977      0.2            89.835088    
     27300   0.15022775     0.00036108035  0.00036108035  0              0              108.80392      203.94332      13.585533      0              1.8461227      0              0              9.3990599      9.5397369      0.2            89.664559    
     27400   0.24033349     0.00034809755  0.00034809755  0              0             -5.647141      -181.57774      170.21103      0             -277.24237      0              0              9.3980937      9.5539756      0.2            89.789157    
     27500   0.20061067     0.00030207356  0.00030207356  0              0             -133.25         121.57616     -388.15134      0              98.300878      0              0              9.3971275      9.5581685      0.2            89.819327    
     27600   0.19984571     0.00023133335  0.00023133335  0              0              373.12372      288.53624      457.61671      0              173.77132      0              0              9.3961612      9.5731751      0.2            89.951097    
     27700   0.25332662     0.00037845619  0.00037845619  0              0             -573.67167     -802.49328     -344.93679      0             -255.61086      0              0              9.395195       9.5840211      0.2            90.043747    
     27800   0.20782328     0.00037503381  0.00037503381  0              0             -209.25603     -451.11371      32.493303      0              20.423832      0              0              9.3942287      9.5750062      0.2            89.949799    
[...]
     42800   0.21745047     0.00047079689  0.00047079689  0              0              92.279455      249.74283     -65.270227      0             -454.51517      0              0              9.2492926      9.7869233      0.2            90.522117    
     42900   0.17298762     0.00042322325  0.00042322325  0              0             -139.58093     -749.66727      470.41655      0             -69.530258      0              0              9.2483264      9.7723492      0.2            90.377875    
     43000   0.23595145     0.00030729747  0.00030729747  0              0             -515.23511     -440.34401     -590.21492      0              346.85785      0              0              9.2473601      9.8012147      0.2            90.635362    
     43100   0.24237032     0.00030799924  0.00030799924  0              0              400.92477      248.34731      553.41444      0              232.32064      0              0              9.2463939      9.7830069      0.2            90.457535    
     43200   0.24165697     0.00039670563  0.00039670563  0              0             -408.27341     -398.50366     -418.12848      0              243.2777       0              0              9.2454276      9.7939645      0.2            90.54939     
     43300   0.1827538      0.00036945326  0.00036945326  0              0              53.099181     -14.037551      120.1584       0             -617.06451      0              0              9.2444614      9.7890348      0.2            90.494354    
     43400   0.16735961     0.00038012496  0.00038012496  0              0              76.374596     -31.772661      184.4258       0              344.4942       0              0              9.2434952      9.7873076      0.2            90.46893     
     43500   0.20681519     0.00037977591  0.00037977591  0              0              77.81156       566.27726     -410.72841      0             -193.09025      0              0              9.2425289      9.7967681      0.2            90.546912    
     43600   0.16410009     0.00031838637  0.00031838637  0              0              519.59181      522.43081      516.66506      0             -169.18479      0              0              9.2415627      9.7956987      0.2            90.527564    
     43700   0.1701319      0.00042062523  0.00042062523  0              0             -439.30766     -292.63518     -586.05794      0             -363.29808      0              0              9.2405964      9.7946118      0.2            90.508055    
     43800   0.17765985     0.00032447367  0.00032447367  0              0              134.5853      -44.173923      313.27745      0             -171.91722      0              0              9.2396302      9.7737218      0.2            90.305575    
     43900   0.15219577     0.0003401467   0.0003401467   0              0             -18.085864      39.326126     -75.586678      0             -562.3214       0              0              9.238664       9.776587       0.2            90.322602    
     44000   0.20539536     0.00039289173  0.00039289173  0              0              107.36729      468.1265      -253.46599      0              267.89813      0              0              9.2376977      9.7952122      0.2            90.485209    
     44100   0.20131549     0.00033647026  0.00033647026  0              0              415.26501      376.0204       454.43018      0             -515.64006      0              0              9.2367315      9.7947234      0.2            90.47123     
     44200   0.25325429     0.00028659746  0.00028659746  0              0             -136.43183      274.52358     -547.44884      0              114.27263      0              0              9.2357652      9.8050009      0.2            90.556687    
     44300   0.21041339     0.00032013044  0.00032013044  0              0              511.12964      608.41292      413.79604      0              174.44194      0              0              9.234799       9.7937825      0.2            90.443613    
     44400   0.19253437     0.00030986731  0.00030986731  0              0             -172.47404     -17.280118     -327.72027      0              159.47486      0              0              9.2338327      9.7924205      0.2            90.421573    
     44500   0.18679743     0.0004956883   0.0004956883   0              0              171.66262      313.8059       29.447315      0             -15.331667      0              0              9.2328665      9.7810688      0.2            90.307303    
     44600   0.21834823     0.00033508412  0.00033508412  0              0              377.07497      638.41727      115.65258      0              70.970156      0              0              9.2319003      9.7853125      0.2            90.337029    
     44700   0.29258315     0.00034856798  0.00034856798  0              0             -441.74215     -535.58108     -347.99612      0             -353.30812      0              0              9.230934       9.796508       0.2            90.430919    
     44800   0.23119962     0.00054649309  0.00054649309  0              0              560.71412      738.52371      382.81322      0             -238.26305      0              0              9.2299678      9.7710369      0.2            90.186356    
     44900   0.17534226     0.00036763836  0.00036763836  0              0             -174.8955       10.927044     -360.81185      0             -84.449407      0              0              9.2290015      9.7757594      0.2            90.220499    
     45000   0.23906372     0.0003907377   0.0003907377   0              0              32.227291     -189.8266       254.19169      0             -87.06473       0              0              9.2280353      9.7771596      0.2            90.223974    
     45100   0.15679664     0.00034837606  0.00034837606  0              0             -165.41323     -332.54218      1.6433982      0             -171.88269      0              0              9.2270691      9.7888929      0.2            90.322791    
     45200   0.14199228     0.0004830444   0.0004830444   0              0             -349.67123     -430.81132     -268.6358       0              129.48141      0              0              9.2261028      9.7977148      0.2            90.394724    
     45300   0.22141441     0.00039464946  0.00039464946  0              0              246.98571      51.527421      442.33484      0             -282.17661      0              0              9.2251366      9.7898099      0.2            90.312333    
     45400   0.18241565     0.00037466641  0.00037466641  0              0             -320.41385     -150.18258     -490.73434      0              226.71461      0              0              9.2241703      9.8016244      0.2            90.411853    
     45500   0.16759184     0.00040565922  0.00040565922  0              0              320.65813      346.50061      294.72917      0             -20.859492      0              0              9.2232041      9.782511       0.2            90.226096    
     45600   0.18431952     0.00049885707  0.00049885707  0              0             -267.07928     -540.54873      6.306689       0             -128.53575      0              0              9.2222379      9.7832176      0.2            90.22316     
     45700   0.23339065     0.00041248942  0.00041248942  0              0             -301.08287     -436.26623     -165.97244      0              169.90148      0              0              9.2212716      9.7895643      0.2            90.272232    
     45800   0.28121558     0.00028512375  0.00028512375  0              0             -17.603113     -380.79094      345.5144       0             -253.16066      0              0              9.2203054      9.7619518      0.2            90.008177    
     45900   0.19099443     0.00040225544  0.00040225544  0              0             -376.94403     -335.32457     -418.64673      0             -74.011136      0              0              9.2193391      9.7773332      0.2            90.140551    
     46000   0.25347009     0.00040471555  0.00040471555  0              0              54.91749      -140.76247      250.54235      0             -121.795        0              0              9.2183729      9.7648332      0.2            90.015873    
     46100   0.2928086      0.00019491993  0.00019491993  0              0             -296.65821     -572.31106     -21.111711      0              121.2123       0              0              9.2174067      9.7945702      0.2            90.280537    
     46200   0.23988515     0.00037596675  0.00037596675  0              0              240.31929      725.06507     -244.50745      0              166.79353      0              0              9.2164404      9.8180907      0.2            90.487848    
     46300   0.27056172     0.00046352926  0.00046352926  0              0              300.66573      174.35742      426.89629      0             -166.12076      0              0              9.2154742      9.7944736      0.2            90.260718    
     46400   0.2700067      0.00058576325  0.00058576325  0              0             -213.09626      18.153465     -444.4379       0              127.8808       0              0              9.2145079      9.8130457      0.2            90.422388    
     46500   0.22202974     0.000391482    0.000391482    0              0              365.69799      589.38406      141.92177      0              322.0537       0              0              9.2135417      9.8067392      0.2            90.354801    
     46600   0.24295044     0.0002656327   0.0002656327   0              0              351.80182      416.94695      286.58136      0              33.096319      0              0              9.2125755      9.8054332      0.2            90.333293    
     46700   0.21032004     0.00026686034  0.00026686034  0              0             -268.15042      3.3954909     -539.76954      0              285.84381      0              0              9.2116092      9.8068983      0.2            90.337314    
     46800   0.17809968     0.00023987795  0.00023987795  0              0              392.85104      268.54028      517.08286      0             -8.2271297      0              0              9.210643       9.7858596      0.2            90.134059    
     46900   0.17673274     0.00030496059  0.00030496059  0              0             -448.84326     -716.4836      -181.30121      0             -160.43148      0              0              9.2096767      9.7932715      0.2            90.192864    
     47000   0.16528201     0.00041287471  0.00041287471  0              0             -256.00366     -331.9822      -180.11635      0              352.00017      0              0              9.2087105      9.79978        0.2            90.243337    
     47100   0.19737572     0.00031734767  0.00031734767  0              0              292.9976       48.811911      537.11542      0             -124.06978      0              0              9.2077442      9.8026952      0.2            90.26071     
     47200   0.16213433     0.00046545148  0.00046545148  0              0             -351.39047     -190.81827     -512.02303      0             -129.69239      0              0              9.206778       9.8033567      0.2            90.257328    
     47300   0.24589296     0.00043637678  0.00043637678  0              0             -186.96876     -522.03301      147.99697      0              155.6543       0              0              9.2058118      9.7908449      0.2            90.132675    
     47400   0.18336684     0.00043043715  0.00043043715  0              0              132.13807     -39.277833      303.45815      0             -161.72291      0              0              9.2048455      9.8020757      0.2            90.226593    
     47500   0.30208688     0.00033042563  0.00033042563  0              0             -534.55658     -436.27899     -632.92659      0             -180.53986      0              0              9.2038793      9.8248791      0.2            90.427001    
     47600   0.25607944     0.00039688259  0.00039688259  0              0              315.08799     -11.000579      641.09843      0              205.84118      0              0              9.202913       9.7990703      0.2            90.179991    
     47700   0.25984911     0.00023375227  0.00023375227  0              0             -131.32302      106.24869     -368.98507      0              66.539064      0              0              9.2019468      9.81454        0.2            90.312875    
     47800   0.24058285     0.00048259509  0.00048259509  0              0             -13.20897       51.646228     -78.137673      0              189.85823      0              0              9.2009806      9.8043459      0.2            90.209596    
     47900   0.23546966     0.00046763908  0.00046763908  0              0              707.55185      953.56284      461.45453      0              508.40573      0              0              9.2000143      9.7923105      0.2            90.089397    
     48000   0.25659307     0.00044545182  0.00044545182  0              0             -564.21643     -531.46932     -597.06439      0              508.06121      0              0              9.1990481      9.8123088      0.2            90.2639      
     48100   0.18936189     0.00050054647  0.00050054647  0              0              213.51824     -21.271725      448.23579      0              4.0655966      0              0              9.1980818      9.8003461      0.2            90.144385    
     48200   0.23623981     0.00040695357  0.00040695357  0              0             -44.018775     -159.29197      71.169255      0              41.046686      0              0              9.1971156      9.7886474      0.2            90.027322    
     48300   0.2630026      0.00045150429  0.00045150429  0              0             -208.07048      119.91568     -536.1493       0              185.63064      0              0              9.1961494      9.8054816      0.2            90.172673    
     48400   0.19630693     0.0004619356   0.0004619356   0              0              544.08223      374.18989      713.88368      0              391.93057      0              0              9.1951831      9.7964008      0.2            90.079699    
     48500   0.17254787     0.00037774701  0.00037774701  0              0              167.6524       590.45242     -255.22887      0              183.14867      0              0              9.1942169      9.809013       0.2            90.186193    
     48600   0.18222407     0.00048778628  0.00048778628  0              0              210.06068      592.05751     -172.01518      0              302.3298       0              0              9.1932506      9.8197296      0.2            90.275235    
     48700   0.23642652     0.00038064359  0.00038064359  0              0              38.773348     -427.48709      504.92801      0             -50.289837      0              0              9.1922844      9.802762       0.2            90.109776    
     48800   0.18513293     0.00038512452  0.00038512452  0              0             -107.86255      353.51354     -569.30902      0             -456.56258      0              0              9.1913182      9.8263878      0.2            90.317457    
     48900   0.2081097      0.00044103068  0.00044103068  0              0              369.14208      630.92729      107.27877      0              389.46764      0              0              9.1903519      9.8155288      0.2            90.208164    
     49000   0.18884367     0.00045570401  0.00045570401  0              0              190.85633      125.03181      256.60565      0              205.54514      0              0              9.1893857      9.8196761      0.2            90.23679     
     49100   0.2128487      0.00047449435  0.00047449435  0              0              20.634727      477.85044     -436.65948      0              125.23408      0              0              9.1884194      9.8383933      0.2            90.399284    
     49200   0.15347323     0.00041205092  0.00041205092  0              0              256.06837      241.87954      270.16482      0              459.1608       0              0              9.1874532      9.8269711      0.2            90.284837    
     49300   0.16929008     0.00038613143  0.00038613143  0              0              203.12891      288.68355      117.49047      0              407.72762      0              0              9.1864869      9.8163908      0.2            90.178146    
     49400   0.26047648     0.00035084466  0.00035084466  0              0             -441.25689     -543.96206     -338.6424       0              75.474779      0              0              9.1855207      9.8123629      0.2            90.131663    
     49500   0.2780931      0.00038605698  0.00038605698  0              0              428.16883      547.1922       309.07489      0              293.36465      0              0              9.1845545      9.8045703      0.2            90.05061     
     49600   0.25336355     0.00043255965  0.00043255965  0              0             -518.55765     -995.43005     -41.750766      0             -244.37624      0              0              9.1835882      9.8258138      0.2            90.236228    
     49700   0.16397357     0.00034629233  0.00034629233  0              0              47.998545      358.05295     -262.14493      0              263.07066      0              0              9.182622       9.8367329      0.2            90.327       
     49800   0.18492877     0.00048442604  0.00048442604  0              0              306.13223      147.74106      464.42431      0              167.37669      0              0              9.1816557      9.8172468      0.2            90.13858     
     49900   0.18877601     0.00041194167  0.00041194167  0              0             -85.742237      118.08616     -289.69148      0              336.98638      0              0              9.1806895      9.837221       0.2            90.312471    
     50000   0.19050411     0.00042229515  0.00042229515  0              0              261.80669      496.41848      27.116296      0              340.56749      0              0              9.1797233      9.804848       0.2            90.005791    
     50045   0.17462344     0.0003595723   0.0003595723   0              0              359.74963      633.628        85.800635      0             -183.23753      0              0              9.1792885      9.797587       0.2            89.934877    
Loop time of 0.601825 on 1 procs for 50000 steps with 27 atoms

Performance: 71781.653 ns/day, 0.000 hours/ns, 83080.617 timesteps/s
100.0% CPU use with 1 MPI tasks x 1 OpenMP threads

MPI task timing breakdown:
Section |  min time  |  avg time  |  max time  |%varavg| %total
---------------------------------------------------------------
Pair    | 0          | 0          | 0          |   0.0 |  0.00
Bond    | 0.070795   | 0.070795   | 0.070795   |   0.0 | 11.76
Neigh   | 0          | 0          | 0          |   0.0 |  0.00
Comm    | 0.18999    | 0.18999    | 0.18999    |   0.0 | 31.57
Output  | 0.0048152  | 0.0048152  | 0.0048152  |   0.0 |  0.80
Modify  | 0.3173     | 0.3173     | 0.3173     |   0.0 | 52.72
Other   |            | 0.01893    |            |       |  3.15

Nlocal:             27 ave          27 max          27 min
Histogram: 1 0 0 0 0 0 0 0 0 0
Nghost:            229 ave         229 max         229 min
Histogram: 1 0 0 0 0 0 0 0 0 0
Neighs:              0 ave           0 max           0 min
Histogram: 1 0 0 0 0 0 0 0 0 0

Total # of neighbors = 0
Ave neighs/atom = 0
Ave special neighs/atom = 11.259259
Neighbor list builds = 0
Dangerous builds = 0


Total wall time: 0:00:00
