LAMMPS data file via write_data, version 23 Jun 2022, timestep = 10000

80 atoms
4 atom types

-4.827153829082137 4.827153829082137 xlo xhi
-4.827153829082137 4.827153829082137 ylo yhi
-0.1 0.1 zlo zhi

Atoms # sphere

48 3 1 1 -4.093018592957342 -4.3035660928599455 0 1 1 0
62 4 0.7 2.915451895043732 4.772823348337907 -4.236704073130591 0 -1 0 0
26 2 1.3 0.4551661356395083 -2.568513757419205 -3.973653372598516 0 0 0 0
56 3 1 1 -1.549811023258263 -3.9516779602968226 0 0 0 0
7 1 1.6 0.2441406249999999 -0.47984808759407027 -4.4293491836428975 0 0 0 0
64 4 0.7 2.915451895043732 0.5916928291860435 -4.52598198232349 0 0 0 0
1 1 1.6 0.2441406249999999 1.815598439459274 -4.695415084496881 0 0 1 0
77 4 0.7 2.915451895043732 2.834331269474128 -3.9710800001774804 0 0 1 0
50 3 1 1 2.164224959789408 -3.528993522956637 0 0 1 0
80 4 0.7 2.915451895043732 3.390023936921285 -4.148808224535685 0 -1 0 0
52 3 1 1 4.215437183269527 -4.332626695504421 0 0 1 0
17 1 1.6 0.2441406249999999 -3.8027324482675544 -3.3415904182744978 0 0 0 0
58 3 1 1 -2.7257945247067425 -2.7417728877359036 0 0 0 0
65 4 0.7 2.915451895043732 -0.907509846191382 -3.5347343979534047 0 0 0 0
24 2 1.3 0.4551661356395083 -1.8257187148449106 -3.0101717793736205 0 0 0 0
72 4 0.7 2.915451895043732 0.19505933935934117 -3.182333180846972 0 0 1 0
36 2 1.3 0.4551661356395083 1.0588422721849682 -3.532789189318252 0 0 1 0
32 2 1.3 0.4551661356395083 3.2702311387342675 -3.3072373679774394 0 0 0 0
53 3 1 1 4.574652465056166 -3.488685883199272 0 0 0 0
57 3 1 1 -2.9490446119691627 -1.6261332677034694 0 1 0 0
44 3 1 1 -2.164623361110935 -2.0597163055785987 0 1 1 0
51 3 1 1 -1.2959742820962323 -2.0663434617956264 0 0 0 0
23 2 1.3 0.4551661356395083 -0.6537756435343152 -2.807715622237484 0 0 0 0
28 2 1.3 0.4551661356395083 0.6683783116660704 -2.448504107229287 0 0 0 0
5 1 1.6 0.2441406249999999 2.1307915636925543 -2.4277891560056455 0 0 0 0
61 4 0.7 2.915451895043732 3.35328900450045 -2.3344380438090955 0 -1 1 0
67 4 0.7 2.915451895043732 3.2013914680666513 -1.7155019264178897 0 -1 0 0
74 4 0.7 2.915451895043732 3.9893709925131304 -2.675168558642644 0 -1 0 0
60 3 1 1 4.022681657575493 -1.8615599942224725 0 -1 0 0
35 2 1.3 0.4551661356395083 -4.715281496243774 -2.4497181699886696 0 0 1 0
9 1 1.6 0.2441406249999999 -3.953021274539755 -1.2560181148209781 0 0 0 0
55 3 1 1 -2.868948382776538 -0.7826398612810319 0 0 0 0
20 1 1.6 0.2441406249999999 -1.7754149343715837 -0.9432791696082767 0 0 1 0
6 1 1.6 0.2441406249999999 -0.21428078862198507 -1.4038077264390196 0 0 0 0
29 2 1.3 0.4551661356395083 1.3299852836091342 -1.444369969370991 0 0 0 0
37 2 1.3 0.4551661356395083 2.4546462478284505 -1.203747979733028 0 0 0 0
34 2 1.3 0.4551661356395083 3.6495069050629194 -0.8244159788722136 0 0 0 0
73 4 0.7 2.915451895043732 4.422633077074888 -1.3245095997587337 0 -1 1 0
47 3 1 1 4.699966290641866 -0.3738405936108711 0 0 0 0
33 2 1.3 0.4551661356395083 -3.8452308832273387 -0.014876954065022652 0 1 0 0
14 1 1.6 0.2441406249999999 -2.5649392402097466 0.42276627770868824 0 0 0 0
12 1 1.6 0.2441406249999999 -0.9626961194403592 0.4557696598170411 0 0 0 0
54 3 1 1 -0.03823963811868669 -0.2774454882511268 0 -1 0 0
40 2 1.3 0.4551661356395083 1.0021909808711769 -0.10468595630627764 0 0 0 0
31 2 1.3 0.4551661356395083 2.264504150517963 -0.2427153665893611 0 0 0 0
21 2 1.3 0.4551661356395083 3.2057852222414205 0.26166459405363884 0 0 0 0
63 4 0.7 2.915451895043732 4.185444207618161 0.7529294716826316 0 0 0 0
78 4 0.7 2.915451895043732 4.099818544468032 0.04760763473336471 0 0 0 0
68 4 0.7 2.915451895043732 -3.6391943464819976 0.9064868872600957 0 0 0 0
42 3 1 1 -3.1322993011609914 1.5145559902470165 0 0 0 0
69 4 0.7 2.915451895043732 -1.7369899477876527 1.2350796334106482 0 1 0 0
2 1 1.6 0.2441406249999999 0.3528046559903233 1.1769082589770905 0 0 0 0
8 1 1.6 0.2441406249999999 1.8667446708435538 1.057909950533607 0 0 0 0
75 4 0.7 2.915451895043732 3.1394348381310406 1.0578158511003997 0 0 0 0
70 4 0.7 2.915451895043732 3.873561157417898 1.2621273334379683 0 0 0 0
22 2 1.3 0.4551661356395083 -4.645955907367846 0.6785359521278309 0 0 0 0
30 2 1.3 0.4551661356395083 -4.276552014766635 1.7604370623392924 0 0 0 0
46 3 1 1 -3.3672580538915526 2.476284704624913 0 0 0 0
15 1 1.6 0.2441406249999999 -2.259853128895561 2.1667480704346405 0 1 0 0
38 2 1.3 0.4551661356395083 -0.9069255941383134 1.8160411862368573 0 0 0 0
79 4 0.7 2.915451895043732 1.1614813120190002 2.337002948771734 0 0 -1 0
45 3 1 1 2.0355642772238136 2.2403907015163345 0 0 0 0
19 1 1.6 0.2441406249999999 3.233954212888703 2.1996142031271013 0 0 0 0
76 4 0.7 2.915451895043732 4.533380727616823 1.5489078598377093 0 0 -1 0
59 3 1 1 4.414592627219266 2.265165052368941 0 0 0 0
13 1 1.6 0.2441406249999999 -4.344950842922182 3.2086311384656163 0 0 0 0
49 3 1 1 -3.0551405894712644 3.2627853044347574 0 1 -1 0
43 3 1 1 -2.156486611802895 3.3518493601645947 0 0 0 0
41 3 1 1 -1.2686526480212006 2.7399022173117533 0 0 0 0
4 1 1.6 0.2441406249999999 0.04844497306620976 2.667745799245729 0 1 0 0
66 4 0.7 2.915451895043732 1.1664426132845769 3.0517797944650376 0 0 0 0
18 1 1.6 0.2441406249999999 2.1660782870611524 3.4363039015004357 0 0 0 0
16 1 1.6 0.2441406249999999 3.905405939075351 3.4182558883163647 0 -1 0 0
25 2 1.3 0.4551661356395083 -4.662063136202011 4.516748945385734 0 0 -1 0
3 1 1.6 0.2441406249999999 -3.3238473508912114 4.339919240034961 0 0 -1 0
11 1 1.6 0.2441406249999999 -1.8477201824908418 4.546466643840292 0 0 -1 0
27 2 1.3 0.4551661356395083 -0.7262039265095277 3.872238607649056 0 0 0 0
10 1 1.6 0.2441406249999999 0.7379070578831 3.9089573795303902 0 0 -1 0
39 2 1.3 0.4551661356395083 3.1354305718388584 4.481299656000697 0 0 0 0
71 4 0.7 2.915451895043732 4.07787124800004 4.507335834575999 0 0 0 0

Velocities

48 0.07975196800675256 0.06323197681228901 0 0 0 0
62 0.05388761266737855 0.05297625607616092 0 0 0 0
26 0.0769357429953721 0.07481688173127553 0 0 0 0
56 -0.10925136231420161 -0.0013760490705451405 0 0 0 0
7 0.04833818956304624 -0.1541540279790137 0 0 0 0
64 -0.012157592527991675 -0.0743158995764605 0 0 0 0
1 -0.062114909700948844 -0.07214461480501462 0 0 0 0
77 -0.09521751897960752 0.13711601588966948 0 0 0 0
50 0.19833130525206755 0.09094683833416045 0 0 0 0
80 0.14493273040740698 0.019845363250078872 0 0 0 0
52 -0.016993423432169814 -0.0926877831025475 0 0 0 0
17 0.15450533775819042 0.012663595220437075 0 0 0 0
58 -0.1981231244285574 0.10674513894010033 0 0 0 0
65 0.3514646166556095 -0.025258791344889734 0 0 0 0
24 -0.011982100071420473 0.20220530074473791 0 0 0 0
72 -0.012907977152705377 -0.15343800543424502 0 0 0 0
36 -0.003132380005071369 0.035141511534913135 0 0 0 0
32 -0.22458949848971657 0.039709677338888555 0 0 0 0
53 0.07498837321224054 0.10868304723531212 0 0 0 0
57 -0.018508391276867663 0.0065012640162642335 0 0 0 0
44 -0.0007302821728000337 -0.06409730779079442 0 0 0 0
51 -0.019772346974270334 -0.23992346651591362 0 0 0 0
23 -0.06039923551967812 0.0828390897567731 0 0 0 0
28 -0.0032679620592770686 -0.01033351766065907 0 0 0 0
5 -0.06181600333397348 0.03029381393780968 0 0 0 0
61 -0.21797142739368014 0.08164449590744993 0 0 0 0
67 -0.024844031411466717 -0.10464451034284361 0 0 0 0
74 -0.07739173576386622 -0.0066324384619147626 0 0 0 0
60 -0.06685685738621323 -0.0532242470158366 0 0 0 0
35 -0.07747812846484255 0.06152126863147712 0 0 0 0
9 -0.07155143055731342 -0.14669808280700428 0 0 0 0
55 -0.11647143191952379 0.11355863247371135 0 0 0 0
20 0.10530092664428942 -0.09761583002480796 0 0 0 0
6 0.1393286086806473 0.1936923278254612 0 0 0 0
29 0.20627330779417377 0.015726898001739716 0 0 0 0
37 -0.020912533060104675 -0.08843454372639291 0 0 0 0
34 -0.24871674227888005 -0.0014824950794384542 0 0 0 0
73 0.033731803709304016 -0.11698833616038092 0 0 0 0
47 0.046225559640091785 -0.11139579316430112 0 0 0 0
33 -0.005911911449335508 0.028164114951847365 0 0 0 0
14 0.022780749699270665 0.11859526029200919 0 0 0 0
12 0.04124547005791775 0.19177494087313854 0 0 0 0
54 -0.1814770622218927 -0.048429005296233965 0 0 0 0
40 -0.0643444950800833 0.10478832447519017 0 0 0 0
31 -0.04998816605642956 0.00428219229367134 0 0 0 0
21 -0.059767527992668476 0.05477220987611905 0 0 0 0
63 0.01632436230131574 0.21978073291106603 0 0 0 0
78 0.07477186700094746 0.025816460415062085 0 0 0 0
68 0.036986759671345196 -0.13054492513515556 0 0 0 0
42 0.025390709724530062 -0.08528757263684124 0 0 0 0
69 0.06839864757666202 0.17126168613537218 0 0 0 0
2 0.05447052126624795 -0.03549643308461452 0 0 0 0
8 -0.06684391539735586 0.0838283422264419 0 0 0 0
75 -0.0970802362109584 0.03668782719426141 0 0 0 0
70 -0.13495607675755156 0.07906859770487136 0 0 0 0
22 0.3269050661325432 0.19150743639228915 0 0 0 0
30 -0.09236894508191526 0.06411735914955445 0 0 0 0
46 -0.16868082649129934 -0.04363428281884628 0 0 0 0
15 0.009784384302643568 -0.15219155864816988 0 0 0 0
38 -0.1552356824104997 0.0647139715442449 0 0 0 0
79 -0.005549753008637956 0.018463999025775862 0 0 0 0
45 -0.22028778622706252 -0.02005103913196705 0 0 0 0
19 0.08261464380267222 -0.08953900870995991 0 0 0 0
76 -0.06639539973459326 0.009665593368146968 0 0 0 0
59 0.14389108515249643 0.14795179903149466 0 0 0 0
13 -0.010028297644060226 -0.002309910522472124 0 0 0 0
49 -0.029617449278790252 -0.11885078853833429 0 0 0 0
43 0.04590336563328939 -0.03647322957539941 0 0 0 0
41 0.18430936429445757 -0.16697514378946782 0 0 0 0
4 -0.03401577593188464 0.025097159671588265 0 0 0 0
66 -0.0032544271824217455 -0.25771270473449154 0 0 0 0
18 -0.017220105904733593 -0.07908315771106024 0 0 0 0
16 0.013143696980146287 0.04859854288440726 0 0 0 0
25 0.04039246174698865 -0.006018830769196666 0 0 0 0
3 -0.08832571855461761 0.020411268508384917 0 0 0 0
11 0.14123334612051452 -0.04226215296842539 0 0 0 0
27 0.06321632036279799 -0.19006313489152088 0 0 0 0
10 -0.006014903069680543 -0.06897804605544387 0 0 0 0
39 0.18674319054480742 0.0069521195202174755 0 0 0 0
71 0.09802079300345166 -0.057412667023269644 0 0 0 0
