LAMMPS data file.

     70 atoms
    160 bonds
      0 angles
      0 dihedrals
      0 impropers
      1 atom types
    160 bond types
      0 angle types
      0 dihedral types
      0 improper types
  -4.827154   4.827154 xlo xhi
  -4.827154   4.827154 ylo yhi
  -0.100000   0.100000 zlo zhi

Masses # ['atom_id', 'mass']

1 10000.0

Atoms # ['atomID', 'moleculeID', 'atomType', 'charge', 'x', 'y', 'z']

     48      1      1   0.000000  -4.093019  -4.303566   0.000000
     62      1      1   0.000000   4.772823  -4.236704   0.000000
     26      1      1   0.000000  -2.568514  -3.973653   0.000000
     56      1      1   0.000000  -1.549811  -3.951678   0.000000
      7      1      1   0.000000  -0.479848  -4.429349   0.000000
      1      1      1   0.000000   1.815598  -4.695415   0.000000
     77      1      1   0.000000   2.834331  -3.971080   0.000000
     50      1      1   0.000000   2.164225  -3.528994   0.000000
     80      1      1   0.000000   3.390024  -4.148808   0.000000
     52      1      1   0.000000   4.215437  -4.332627   0.000000
     17      1      1   0.000000  -3.802732  -3.341590   0.000000
     58      1      1   0.000000  -2.725795  -2.741773   0.000000
     65      1      1   0.000000  -0.907510  -3.534734   0.000000
     24      1      1   0.000000  -1.825719  -3.010172   0.000000
     72      1      1   0.000000   0.195059  -3.182333   0.000000
     36      1      1   0.000000   1.058842  -3.532789   0.000000
     32      1      1   0.000000   3.270231  -3.307237   0.000000
     53      1      1   0.000000   4.574652  -3.488686   0.000000
     57      1      1   0.000000  -2.949045  -1.626133   0.000000
     44      1      1   0.000000  -2.164623  -2.059716   0.000000
     51      1      1   0.000000  -1.295974  -2.066343   0.000000
     23      1      1   0.000000  -0.653776  -2.807716   0.000000
     28      1      1   0.000000   0.668378  -2.448504   0.000000
      5      1      1   0.000000   2.130792  -2.427789   0.000000
     61      1      1   0.000000   3.353289  -2.334438   0.000000
     67      1      1   0.000000   3.201391  -1.715502   0.000000
     74      1      1   0.000000   3.989371  -2.675169   0.000000
     60      1      1   0.000000   4.022682  -1.861560   0.000000
     35      1      1   0.000000  -4.715281  -2.449718   0.000000
      9      1      1   0.000000  -3.953021  -1.256018   0.000000
     55      1      1   0.000000  -2.868948  -0.782640   0.000000
     20      1      1   0.000000  -1.775415  -0.943279   0.000000
      6      1      1   0.000000  -0.214281  -1.403808   0.000000
     29      1      1   0.000000   1.329985  -1.444370   0.000000
     37      1      1   0.000000   2.454646  -1.203748   0.000000
     34      1      1   0.000000   3.649507  -0.824416   0.000000
     47      1      1   0.000000   4.699966  -0.373841   0.000000
     33      1      1   0.000000  -3.845231  -0.014877   0.000000
     14      1      1   0.000000  -2.564939   0.422766   0.000000
     12      1      1   0.000000  -0.962696   0.455770   0.000000
     54      1      1   0.000000  -0.038240  -0.277445   0.000000
     40      1      1   0.000000   1.002191  -0.104686   0.000000
     31      1      1   0.000000   2.264504  -0.242715   0.000000
     21      1      1   0.000000   3.205785   0.261665   0.000000
     78      1      1   0.000000   4.099819   0.047608   0.000000
     42      1      1   0.000000  -3.132299   1.514556   0.000000
      2      1      1   0.000000   0.352805   1.176908   0.000000
      8      1      1   0.000000   1.866745   1.057910   0.000000
     22      1      1   0.000000  -4.645956   0.678536   0.000000
     30      1      1   0.000000  -4.276552   1.760437   0.000000
     46      1      1   0.000000  -3.367258   2.476285   0.000000
     15      1      1   0.000000  -2.259853   2.166748   0.000000
     38      1      1   0.000000  -0.906926   1.816041   0.000000
     45      1      1   0.000000   2.035564   2.240391   0.000000
     19      1      1   0.000000   3.233954   2.199614   0.000000
     76      1      1   0.000000   4.533381   1.548908   0.000000
     59      1      1   0.000000   4.414593   2.265165   0.000000
     13      1      1   0.000000  -4.344951   3.208631   0.000000
     49      1      1   0.000000  -3.055141   3.262785   0.000000
     43      1      1   0.000000  -2.156487   3.351849   0.000000
      4      1      1   0.000000   0.048445   2.667746   0.000000
     18      1      1   0.000000   2.166078   3.436304   0.000000
     16      1      1   0.000000   3.905406   3.418256   0.000000
     25      1      1   0.000000  -4.662063   4.516749   0.000000
      3      1      1   0.000000  -3.323847   4.339919   0.000000
     11      1      1   0.000000  -1.847720   4.546467   0.000000
     27      1      1   0.000000  -0.726204   3.872239   0.000000
     10      1      1   0.000000   0.737907   3.908957   0.000000
     39      1      1   0.000000   3.135431   4.481300   0.000000
     71      1      1   0.000000   4.077871   4.507336   0.000000

Bond Coeffs # ['bondID', 'bondCoeff', 'd']

      1   1.020275   0.990014
      2   1.311414   0.873233
      3   0.670145   1.221562
      4   0.516546   1.391379
      5   0.701527   1.193927
      6   0.701527   1.193927
      7   1.897047   0.726041
      8   0.756339   1.149852
      9   2.937879   0.583422
     10   0.539535   1.361414
     11   0.853649   1.082331
     12   1.488759   0.819573
     13   1.585551   0.794164
     14   0.444329   1.500194
     15   1.041951   0.979662
     16   1.183270   0.919302
     17   0.475750   1.449808
     18   0.695506   1.199083
     19   0.823880   1.101712
     20   1.038200   0.981430
     21   0.546246   1.353026
     22   0.714643   1.182921
     23   0.540588   1.360088
     24   0.519648   1.387220
     25   0.583982   1.308580
     26   0.623769   1.266159
     27   0.811411   1.110145
     28   2.462116   0.637303
     29   1.466099   0.825883
     30   1.466099   0.825883
     31   0.765129   1.143228
     32   1.188677   0.917209
     33   1.049678   0.976050
     34   1.049678   0.976050
     35   0.620160   1.269837
     36   0.726501   1.173226
     37   0.619814   1.270191
     38   1.597065   0.791296
     39   1.597065   0.791296
     40   0.619814   1.270191
     41   0.876878   1.067899
     42   0.553733   1.343847
     43   0.553733   1.343847
     44   0.656837   1.233875
     45   0.520075   1.386650
     46   0.845714   1.087398
     47   0.845714   1.087398
     48   0.610451   1.279896
     49   0.484452   1.436728
     50   0.501150   1.412590
     51   1.551632   0.802797
     52   1.705342   0.765763
     53   0.785901   1.128018
     54   1.195933   0.914422
     55   0.963170   1.018940
     56   1.195933   0.914422
     57   0.715203   1.182457
     58   1.163217   0.927192
     59   1.163217   0.927192
     60   0.891280   1.059237
     61   0.621498   1.268469
     62   0.450123   1.490508
     63   0.818407   1.105389
     64   1.325214   0.868674
     65   0.690969   1.203014
     66   0.600044   1.290947
     67   1.005185   0.997417
     68   0.507601   1.403585
     69   0.433618   1.518610
     70   0.507601   1.403585
     71   1.669999   0.773824
     72   1.508140   0.814290
     73   1.125021   0.942800
     74   1.049057   0.976339
     75   0.675657   1.216569
     76   0.752935   1.152448
     77   3.126168   0.565580
     78   0.674728   1.217407
     79   0.629370   1.260512
     80   0.496041   1.419847
     81   1.244848   0.896276
     82   1.090901   0.957430
     83   0.728337   1.171747
     84   1.437090   0.834177
     85   0.498514   1.416319
     86   0.496273   1.419514
     87   0.496273   1.419514
     88   1.039445   0.980842
     89   0.487595   1.432091
     90   0.990429   1.004820
     91   1.383907   0.850054
     92   0.842803   1.089274
     93   1.161630   0.927825
     94   0.799140   1.118635
     95   0.799140   1.118635
     96   0.824931   1.101010
     97   0.824931   1.101010
     98   0.769419   1.140036
     99   0.706994   1.189302
    100   0.755994   1.150114
    101   1.398413   0.845634
    102   0.580409   1.312602
    103   1.319760   0.870467
    104   1.319760   0.870467
    105   0.431922   1.521588
    106   0.822477   1.102651
    107   0.428922   1.526901
    108   0.428922   1.526901
    109   0.982104   1.009070
    110   0.843442   1.088861
    111   0.843442   1.088861
    112   0.534623   1.367654
    113   1.281864   0.883241
    114   1.133563   0.939241
    115   0.476399   1.448821
    116   0.700888   1.194471
    117   0.658078   1.232711
    118   1.150827   0.932170
    119   0.670629   1.221121
    120   0.823095   1.102237
    121   0.548820   1.349848
    122   0.441739   1.504587
    123   0.441739   1.504587
    124   0.691559   1.202501
    125   0.636300   1.253629
    126   0.981012   1.009631
    127   0.818585   1.105269
    128   0.981012   1.009631
    129   0.430577   1.523964
    130   0.401699   1.577792
    131   1.017144   0.991537
    132   0.644309   1.245813
    133   1.017144   0.991537
    134   1.686519   0.770024
    135   0.482683   1.439358
    136   0.831533   1.096630
    137   0.831533   1.096630
    138   0.765414   1.143015
    139   0.528949   1.374970
    140   0.528949   1.374970
    141   1.396647   0.846168
    142   1.017056   0.991580
    143   1.220226   0.905274
    144   0.647071   1.243151
    145   0.718275   1.179926
    146   0.660545   1.230407
    147   1.859441   0.733346
    148   0.873397   1.070025
    149   0.614182   1.276002
    150   1.226224   0.903057
    151   0.706639   1.189601
    152   0.715351   1.182335
    153   0.621734   1.268229
    154   0.551958   1.346006
    155   0.441877   1.504352
    156   1.392958   0.847288
    157   0.492208   1.425363
    158   0.511926   1.397644
    159   0.899004   1.054676
    160   1.038897   0.981101

Bonds # ['ID', 'type', 'atom1', 'atom2']

         1         1        42        46
         2         2        72        28
         3         3        46        13
         4         4        19        16
         5         5        56        11
         6         6        11        56
         7         7        76        59
         8         8        46        15
         9         9        77        80
        10        10        12        38
        11        11        24        51
        12        12        61        60
        13        13        77        32
        14        14        12         2
        15        15        37        31
        16        16        21        78
        17        17        30        13
        18        18        45        19
        19        19        50         5
        20        20        34        78
        21        21        33        14
        22        22         9        55
        23        23        31         8
        24        24         1        36
        25        25        11        27
        26        26         5        37
        27        27        49         3
        28        28        61        67
        29        29        52        71
        30        30        71        52
        31        31        22        30
        32        32        52        53
        33        33        35        74
        34        34        74        35
        35        35        40        31
        36        36        34        21
        37        37        48         3
        38        38        48        62
        39        39        62        48
        40        40         3        48
        41        41        31        21
        42        42        26        11
        43        43        11        26
        44        44        43        11
        45        45        26        17
        46        46        30        59
        47        47        59        30
        48        48        38         4
        49        49        40         2
        50        50         2        38
        51        51        77        50
        52        52        56        65
        53        53        50        32
        54        54        25        71
        55        55        26        56
        56        56        71        25
        57        57        19        59
        58        58        62        25
        59        59        25        62
        60        60        33        22
        61        61        51         6
        62        62         3        11
        63        63        50        36
        64        64        44        51
        65        65        45        18
        66        66        13        49
        67        67        67        34
        68        68         1        39
        69        69         2         8
        70        70        39         1
        71        71        62        53
        72        72        74        60
        73        73        39        71
        74        74        32        61
        75        75        26        24
        76        76        36        28
        77        77        62        52
        78        78         1        50
        79        79        59        16
        80        80         4        10
        81        81        57        44
        82        82        32        74
        83        83        56         7
        84        84        67        60
        85        85        35         9
        86        86        13        16
        87        87        16        13
        88        88        51        23
        89        89         4        27
        90        90        48        17
        91        91        80        32
        92        92        42        15
        93        93        72        23
        94        94        52        25
        95        95        25        52
        96        96        53        35
        97        97        35        53
        98        98         6        54
        99        99        24        23
       100       100        29        37
       101       101        80        52
       102       102        16        39
       103       103        30        76
       104       104        76        30
       105       105         2         4
       106       106        16        71
       107       107         7        11
       108       108        11         7
       109       109        24        44
       110       110        60        35
       111       111        35        60
       112       112        28         6
       113       113        58        44
       114       114        58        24
       115       115        40         8
       116       116         8        45
       117       117        17        58
       118       118        72        36
       119       119        51        20
       120       120        60        34
       121       121        25         3
       122       122         1        10
       123       123        10         1
       124       124        28        29
       125       125        37        34
       126       126        48        25
       127       127        55        20
       128       128        25        48
       129       129        13         3
       130       130        20        14
       131       131        22        76
       132       132         9        33
       133       133        76        22
       134       134        65        23
       135       135        32         5
       136       136        47        22
       137       137        22        47
       138       138        34        47
       139       139         7        27
       140       140        27         7
       141       141        46        49
       142       142         7        65
       143       143        67        37
       144       144        55        14
       145       145        12        54
       146       146        14        42
       147       147        47        78
       148       148        57         9
       149       149        17        35
       150       150        49        43
       151       151        15        43
       152       152        44        20
       153       153         5        29
       154       154        13        25
       155       155        18        10
       156       156        57        55
       157       157        18        39
       158       158        15        38
       159       159        54        40
       160       160        56        24
