ITEM: TIMESTEP
0
ITEM: NUMBER OF ATOMS
80
ITEM: BOX BOUNDS pp pp pp
-1.0000000000000000e+01 1.0000000000000000e+01
-1.0000000000000000e+01 1.0000000000000000e+01
-1.0000000000000001e-01 1.0000000000000001e-01
ITEM: ATOMS id type xs ys zs
67 4 0.0277884 0.039423 0.5
3 1 0.280956 0.0209763 0.5
76 4 0.696201 0.0445131 0.5
25 2 0.195697 0.0734115 0.5
74 4 0.196769 0.0947928 0.5
56 3 0.366044 0.0950271 0.5
65 4 0.567446 0.0629767 0.5
10 1 0.625518 0.0730595 0.5
23 2 0.695726 0.0742013 0.5
49 3 0.773552 0.0938947 0.5
17 1 0.36325 0.137751 0.5
64 4 0.444467 0.150474 0.5
7 1 0.657829 0.133654 0.5
9 1 0.0439797 0.167338 0.5
11 1 0.229024 0.202973 0.5
79 4 0.565373 0.231016 0.5
32 2 0.801109 0.241601 0.5
80 4 0.0227445 0.26679 0.5
22 2 0.236765 0.304012 0.5
28 2 0.561272 0.301654 0.5
60 3 0.549669 0.281813 0.5
19 1 0.688838 0.307181 0.5
8 1 0.287342 0.363403 0.5
24 2 0.335595 0.338649 0.5
38 2 0.482023 0.358237 0.5
58 3 0.531705 0.359114 0.5
51 3 0.813016 0.360352 0.5
53 3 0.832948 0.358994 0.5
63 4 0.964143 0.353515 0.5
42 3 0.00525933 0.393511 0.5
12 1 0.559432 0.380882 0.5
37 2 0.676051 0.383584 0.5
29 2 0.889654 0.410947 0.5
26 2 0.540041 0.463333 0.5
55 3 0.373148 0.490211 0.5
62 4 0.47037 0.51579 0.5
5 1 0.8467 0.486173 0.5
69 4 0.872762 0.506373 0.5
33 2 0.996757 0.498088 0.5
57 3 0.617692 0.548819 0.5
70 4 0.703015 0.577409 0.5
4 1 0.84831 0.538644 0.5
30 2 0.1849 0.610533 0.5
14 1 0.378391 0.623785 0.5
6 1 0.602107 0.613169 0.5
34 2 0.697662 0.602001 0.5
31 2 0.801964 0.601994 0.5
1 1 0.609428 0.658548 0.5
39 2 0.739612 0.65119 0.5
48 3 0.77079 0.669218 0.5
46 3 0.199958 0.696938 0.5
45 3 0.303072 0.73379 0.5
75 4 0.379588 0.730956 0.5
2 1 0.461637 0.725441 0.5
68 4 0.451758 0.698096 0.5
72 4 0.791677 0.715197 0.5
20 1 0.613717 0.737898 0.5
50 3 0.580698 0.788642 0.5
54 3 0.056631 0.797425 0.5
41 3 0.189314 0.803465 0.5
18 1 0.35716 0.795294 0.5
13 1 0.380486 0.830488 0.5
27 2 0.544761 0.806031 0.5
35 2 0.0635952 0.843947 0.5
52 3 0.253457 0.851895 0.5
40 2 0.937221 0.870302 0.5
15 1 0.993446 0.847531 0.5
78 4 0.47938 0.934207 0.5
43 3 0.546968 0.899336 0.5
71 4 0.580707 0.942547 0.5
44 3 0.89837 0.902759 0.5
61 4 0.0502154 0.969865 0.5
73 4 0.0858561 0.984273 0.5
16 1 0.224606 0.958739 0.5
66 4 0.513652 0.957427 0.5
59 3 0.533168 0.950396 0.5
21 2 0.714283 0.949867 0.5
47 3 0.760454 0.957889 0.5
77 4 0.750875 0.963799 0.5
36 2 0.98673 0.96643 0.5
ITEM: TIMESTEP
10
ITEM: NUMBER OF ATOMS
80
ITEM: BOX BOUNDS pp pp pp
-9.2471529126456993e+00 9.2471529126456993e+00
-9.2471529126456993e+00 9.2471529126456993e+00
-1.0000000000000001e-01 1.0000000000000001e-01
ITEM: ATOMS id type xs ys zs
67 4 0.0277884 0.039423 0.5
3 1 0.280956 0.0209765 0.5
76 4 0.696202 0.0444369 0.5
25 2 0.195691 0.0733053 0.5
74 4 0.196774 0.094899 0.5
56 3 0.366049 0.0949434 0.5
65 4 0.567445 0.0629766 0.5
10 1 0.625485 0.0730195 0.5
23 2 0.695743 0.0742685 0.5
49 3 0.773552 0.0938947 0.5
17 1 0.363244 0.137834 0.5
64 4 0.444467 0.150474 0.5
7 1 0.657844 0.133703 0.5
9 1 0.0439797 0.167338 0.5
11 1 0.229024 0.202973 0.5
79 4 0.565373 0.231016 0.5
32 2 0.801109 0.241601 0.5
80 4 0.0227445 0.26679 0.5
22 2 0.236765 0.304012 0.5
28 2 0.561337 0.301765 0.5
60 3 0.549604 0.281703 0.5
19 1 0.688838 0.307181 0.5
8 1 0.28728 0.363435 0.5
24 2 0.335657 0.338617 0.5
38 2 0.481992 0.358236 0.5
58 3 0.531648 0.359046 0.5
51 3 0.812905 0.36036 0.5
53 3 0.833059 0.358987 0.5
63 4 0.964143 0.353515 0.5
42 3 0.00525933 0.393511 0.5
12 1 0.55952 0.380951 0.5
37 2 0.676051 0.383584 0.5
29 2 0.889654 0.410947 0.5
26 2 0.540041 0.463333 0.5
55 3 0.373148 0.490211 0.5
62 4 0.47037 0.51579 0.5
5 1 0.846624 0.486013 0.5
69 4 0.872873 0.506378 0.5
33 2 0.996757 0.498088 0.5
57 3 0.617692 0.548818 0.5
70 4 0.703035 0.577318 0.5
4 1 0.848274 0.5388 0.5
30 2 0.1849 0.610533 0.5
14 1 0.378391 0.623785 0.5
6 1 0.602086 0.613044 0.5
34 2 0.697639 0.602088 0.5
31 2 0.801964 0.601994 0.5
1 1 0.609448 0.658668 0.5
39 2 0.739545 0.651153 0.5
48 3 0.77086 0.669259 0.5
46 3 0.199958 0.696938 0.5
45 3 0.303072 0.73379 0.5
75 4 0.379588 0.730956 0.5
2 1 0.461673 0.725541 0.5
68 4 0.451722 0.697996 0.5
72 4 0.791677 0.715197 0.5
20 1 0.613728 0.737888 0.5
50 3 0.580747 0.788629 0.5
54 3 0.056625 0.797385 0.5
41 3 0.189314 0.803465 0.5
18 1 0.357082 0.795176 0.5
13 1 0.380564 0.830606 0.5
27 2 0.544701 0.806061 0.5
35 2 0.0636132 0.843987 0.5
52 3 0.253457 0.851895 0.5
40 2 0.937199 0.870301 0.5
15 1 0.993477 0.847514 0.5
78 4 0.47938 0.934207 0.5
43 3 0.546968 0.899335 0.5
71 4 0.580707 0.942547 0.5
44 3 0.898348 0.902777 0.5
61 4 0.0502154 0.969865 0.5
73 4 0.0858561 0.984273 0.5
16 1 0.224606 0.958739 0.5
66 4 0.513576 0.957454 0.5
59 3 0.533244 0.950368 0.5
21 2 0.714203 0.949844 0.5
47 3 0.760594 0.957835 0.5
77 4 0.750816 0.963875 0.5
36 2 0.98673 0.96643 0.5
ITEM: TIMESTEP
20
ITEM: NUMBER OF ATOMS
80
ITEM: BOX BOUNDS pp pp pp
-8.3210095787006981e+00 8.3210095787006981e+00
-8.3210095787006981e+00 8.3210095787006981e+00
-1.0000000000000001e-01 1.0000000000000001e-01
ITEM: ATOMS id type xs ys zs
67 4 0.0277884 0.039423 0.5
3 1 0.280972 0.0209944 0.5
76 4 0.696206 0.0441553 0.5
25 2 0.195672 0.0729235 0.5
74 4 0.196793 0.0952808 0.5
56 3 0.36607 0.0946295 0.5
65 4 0.567419 0.062972 0.5
10 1 0.625343 0.0728526 0.5
23 2 0.695856 0.0744886 0.5
49 3 0.773552 0.0938947 0.5
17 1 0.363224 0.138148 0.5
64 4 0.444467 0.150474 0.5
7 1 0.657895 0.133936 0.5
9 1 0.0439797 0.167338 0.5
11 1 0.229024 0.202973 0.5
79 4 0.565373 0.231016 0.5
32 2 0.801109 0.241601 0.5
80 4 0.0227445 0.26679 0.5
22 2 0.236756 0.304002 0.5
28 2 0.56157 0.30215 0.5
60 3 0.549372 0.281306 0.5
19 1 0.688841 0.307166 0.5
8 1 0.287046 0.363569 0.5
24 2 0.335899 0.338493 0.5
38 2 0.481852 0.358233 0.5
58 3 0.531463 0.358799 0.5
51 3 0.812506 0.360387 0.5
53 3 0.833458 0.358959 0.5
63 4 0.964143 0.353515 0.5
42 3 0.00525933 0.393511 0.5
12 1 0.559844 0.381212 0.5
37 2 0.676048 0.383599 0.5
29 2 0.889654 0.410947 0.5
26 2 0.540041 0.463333 0.5
55 3 0.373148 0.490211 0.5
62 4 0.47037 0.51579 0.5
5 1 0.846345 0.485418 0.5
69 4 0.873288 0.506389 0.5
33 2 0.996757 0.498088 0.5
57 3 0.6177 0.548784 0.5
70 4 0.703107 0.576989 0.5
4 1 0.848144 0.539374 0.5
30 2 0.1849 0.610533 0.5
14 1 0.378391 0.623785 0.5
6 1 0.602004 0.612614 0.5
34 2 0.697535 0.602378 0.5
31 2 0.801957 0.602004 0.5
1 1 0.609519 0.659068 0.5
39 2 0.739317 0.65104 0.5
48 3 0.771121 0.66941 0.5
46 3 0.199958 0.696938 0.5
45 3 0.303072 0.73379 0.5
75 4 0.379588 0.730956 0.5
2 1 0.461804 0.725903 0.5
68 4 0.451591 0.697634 0.5
72 4 0.791677 0.715197 0.5
20 1 0.613785 0.737868 0.5
50 3 0.580921 0.788602 0.5
54 3 0.0566002 0.79722 0.5
41 3 0.189314 0.803465 0.5
18 1 0.356798 0.794747 0.5
13 1 0.380848 0.831035 0.5
27 2 0.544473 0.806171 0.5
35 2 0.0637156 0.844148 0.5
52 3 0.253457 0.851895 0.5
40 2 0.937114 0.870295 0.5
15 1 0.99358 0.847445 0.5
78 4 0.47938 0.934207 0.5
43 3 0.546972 0.899323 0.5
71 4 0.580709 0.942547 0.5
44 3 0.898254 0.902856 0.5
61 4 0.0502121 0.969864 0.5
73 4 0.0858594 0.984274 0.5
16 1 0.22459 0.958721 0.5
66 4 0.5133 0.957554 0.5
59 3 0.533516 0.950282 0.5
21 2 0.713882 0.949756 0.5
47 3 0.761107 0.957649 0.5
77 4 0.750624 0.96415 0.5
36 2 0.98673 0.96643 0.5
ITEM: TIMESTEP
30
ITEM: NUMBER OF ATOMS
80
ITEM: BOX BOUNDS pp pp pp
-7.6296935075302610e+00 7.6296935075302610e+00
-7.6296935075302610e+00 7.6296935075302610e+00
-1.0000000000000001e-01 1.0000000000000001e-01
ITEM: ATOMS id type xs ys zs
67 4 0.0277884 0.039423 0.5
3 1 0.281052 0.0210829 0.5
76 4 0.696214 0.0435925 0.5
25 2 0.195635 0.0721804 0.5
74 4 0.196831 0.0960239 0.5
56 3 0.366111 0.0939927 0.5
65 4 0.567311 0.0629536 0.5
10 1 0.62503 0.0724836 0.5
23 2 0.69618 0.074876 0.5
49 3 0.773552 0.0938947 0.5
17 1 0.363182 0.138785 0.5
64 4 0.444467 0.150474 0.5
7 1 0.657984 0.134499 0.5
9 1 0.0439797 0.167338 0.5
11 1 0.229024 0.202973 0.5
79 4 0.565374 0.231014 0.5
32 2 0.801109 0.241601 0.5
80 4 0.0227445 0.26679 0.5
22 2 0.236703 0.303938 0.5
28 2 0.562041 0.302814 0.5
60 3 0.548921 0.280538 0.5
19 1 0.688856 0.307078 0.5
8 1 0.286593 0.363893 0.5
24 2 0.336406 0.338233 0.5
38 2 0.481497 0.358215 0.5
58 3 0.53112 0.358341 0.5
51 3 0.811732 0.36044 0.5
53 3 0.834232 0.358907 0.5
63 4 0.964143 0.353515 0.5
42 3 0.00525933 0.393511 0.5
12 1 0.560526 0.381771 0.5
37 2 0.676033 0.383687 0.5
29 2 0.889661 0.410935 0.5
26 2 0.540035 0.463356 0.5
55 3 0.373148 0.490211 0.5
62 4 0.47037 0.51579 0.5
5 1 0.845785 0.484235 0.5
69 4 0.874121 0.506399 0.5
33 2 0.996757 0.498088 0.5
57 3 0.617732 0.548654 0.5
70 4 0.703248 0.576343 0.5
4 1 0.847915 0.540492 0.5
30 2 0.1849 0.610533 0.5
14 1 0.378391 0.623785 0.5
6 1 0.601823 0.611822 0.5
34 2 0.697286 0.6029 0.5
31 2 0.80191 0.602069 0.5
1 1 0.609657 0.659786 0.5
39 2 0.738896 0.650865 0.5
48 3 0.771641 0.669704 0.5
46 3 0.199958 0.696938 0.5
45 3 0.303071 0.733788 0.5
75 4 0.379593 0.730943 0.5
2 1 0.462061 0.726616 0.5
68 4 0.451334 0.696921 0.5
72 4 0.791681 0.715206 0.5
20 1 0.613934 0.73786 0.5
50 3 0.581253 0.788588 0.5
54 3 0.0565479 0.796859 0.5
41 3 0.189314 0.803465 0.5
18 1 0.356234 0.793916 0.5
13 1 0.381409 0.831881 0.5
27 2 0.544004 0.806397 0.5
35 2 0.0639895 0.844496 0.5
52 3 0.253457 0.851895 0.5
40 2 0.936934 0.870272 0.5
15 1 0.993757 0.847296 0.5
78 4 0.479372 0.934202 0.5
43 3 0.54699 0.899254 0.5
71 4 0.580734 0.942543 0.5
44 3 0.898034 0.90304 0.5
61 4 0.0501838 0.969852 0.5
73 4 0.085888 0.984286 0.5
16 1 0.22451 0.958633 0.5
66 4 0.512764 0.957754 0.5
59 3 0.534014 0.950159 0.5
21 2 0.713195 0.949568 0.5
47 3 0.76213 0.957296 0.5
77 4 0.750288 0.964691 0.5
36 2 0.986729 0.96643 0.5
ITEM: TIMESTEP
40
ITEM: NUMBER OF ATOMS
80
ITEM: BOX BOUNDS pp pp pp
-7.1383049557794678e+00 7.1383049557794678e+00
-7.1383049557794678e+00 7.1383049557794678e+00
-1.0000000000000001e-01 1.0000000000000001e-01
ITEM: ATOMS id type xs ys zs
67 4 0.0277884 0.039423 0.5
3 1 0.281247 0.0212973 0.5
76 4 0.696225 0.0426826 0.5
25 2 0.195576 0.0710064 0.5
74 4 0.19689 0.0971981 0.5
56 3 0.366179 0.0929534 0.5
65 4 0.567063 0.062912 0.5
10 1 0.624492 0.0718431 0.5
23 2 0.696829 0.0754373 0.5
49 3 0.773552 0.0938947 0.5
17 1 0.363114 0.139824 0.5
64 4 0.444467 0.150474 0.5
7 1 0.658112 0.13553 0.5
9 1 0.0439797 0.167338 0.5
11 1 0.229024 0.202973 0.5
79 4 0.565383 0.230988 0.5
32 2 0.801109 0.241601 0.5
80 4 0.0227445 0.26679 0.5
22 2 0.23656 0.303769 0.5
28 2 0.562821 0.303712 0.5
60 3 0.548201 0.279351 0.5
19 1 0.688894 0.306851 0.5
8 1 0.285889 0.364498 0.5
24 2 0.337252 0.337798 0.5
38 2 0.480807 0.358168 0.5
58 3 0.530593 0.357662 0.5
51 3 0.810513 0.360523 0.5
53 3 0.835447 0.35882 0.5
63 4 0.964142 0.353514 0.5
42 3 0.00525999 0.393512 0.5
12 1 0.561701 0.382709 0.5
37 2 0.675995 0.383915 0.5
29 2 0.889709 0.410865 0.5
26 2 0.540009 0.463458 0.5
55 3 0.373148 0.490211 0.5
62 4 0.47037 0.51579 0.5
5 1 0.844852 0.482379 0.5
69 4 0.875467 0.5064 0.5
33 2 0.996757 0.498088 0.5
57 3 0.617806 0.54836 0.5
70 4 0.703475 0.575313 0.5
4 1 0.847594 0.542236 0.5
30 2 0.1849 0.610533 0.5
14 1 0.378391 0.623785 0.5
6 1 0.601503 0.610631 0.5
34 2 0.696835 0.603663 0.5
31 2 0.801813 0.602215 0.5
1 1 0.609875 0.660838 0.5
39 2 0.738239 0.650666 0.5
48 3 0.772467 0.670156 0.5
46 3 0.199958 0.696938 0.5
45 3 0.303045 0.733759 0.5
75 4 0.379619 0.730872 0.5
2 1 0.462471 0.727752 0.5
68 4 0.450923 0.695786 0.5
72 4 0.791703 0.715256 0.5
20 1 0.614217 0.737893 0.5
50 3 0.581767 0.788616 0.5
54 3 0.0564819 0.79622 0.5
41 3 0.189314 0.803465 0.5
18 1 0.355336 0.792663 0.5
13 1 0.382306 0.833233 0.5
27 2 0.54323 0.80677 0.5
35 2 0.0645212 0.845093 0.5
52 3 0.253457 0.851895 0.5
40 2 0.936633 0.870223 0.5
15 1 0.993988 0.847056 0.5
78 4 0.479333 0.934175 0.5
43 3 0.547029 0.899076 0.5
71 4 0.58083 0.942535 0.5
44 3 0.897639 0.903371 0.5
61 4 0.0501164 0.96982 0.5
73 4 0.0859711 0.984319 0.5
16 1 0.224316 0.958418 0.5
66 4 0.511939 0.958091 0.5
59 3 0.534744 0.950036 0.5
21 2 0.712032 0.949247 0.5
47 3 0.763773 0.956752 0.5
77 4 0.749808 0.965556 0.5
36 2 0.986714 0.966429 0.5
ITEM: TIMESTEP
50
ITEM: NUMBER OF ATOMS
80
ITEM: BOX BOUNDS pp pp pp
-6.7969549825609850e+00 6.7969549825609850e+00
-6.7969549825609850e+00 6.7969549825609850e+00
-1.0000000000000001e-01 1.0000000000000001e-01
ITEM: ATOMS id type xs ys zs
67 4 0.0277884 0.039423 0.5
3 1 0.281613 0.0216736 0.5
76 4 0.696252 0.0413848 0.5
25 2 0.195477 0.0693833 0.5
74 4 0.196971 0.098831 0.5
56 3 0.366276 0.0914704 0.5
65 4 0.566625 0.0628407 0.5
10 1 0.623683 0.070892 0.5
23 2 0.697874 0.0761614 0.5
49 3 0.773566 0.0938979 0.5
17 1 0.363016 0.141307 0.5
64 4 0.444468 0.150474 0.5
7 1 0.658272 0.137123 0.5
9 1 0.0439797 0.167338 0.5
11 1 0.229023 0.202965 0.5
79 4 0.565412 0.230903 0.5
32 2 0.801109 0.241601 0.5
80 4 0.0227445 0.26679 0.5
22 2 0.236296 0.303456 0.5
28 2 0.563956 0.304771 0.5
60 3 0.54718 0.277753 0.5
19 1 0.688964 0.306429 0.5
8 1 0.284925 0.365451 0.5
24 2 0.338481 0.337165 0.5
38 2 0.479695 0.358082 0.5
58 3 0.52987 0.356777 0.5
51 3 0.808821 0.360638 0.5
53 3 0.837108 0.358674 0.5
63 4 0.964131 0.353503 0.5
42 3 0.00527172 0.393523 0.5
12 1 0.563454 0.384065 0.5
37 2 0.675925 0.384336 0.5
29 2 0.889856 0.410708 0.5
26 2 0.539947 0.463697 0.5
55 3 0.373148 0.490211 0.5
62 4 0.47037 0.51579 0.5
5 1 0.843488 0.47984 0.5
69 4 0.877368 0.506387 0.5
33 2 0.996757 0.498088 0.5
57 3 0.617936 0.547844 0.5
70 4 0.703797 0.573869 0.5
4 1 0.847211 0.544618 0.5
30 2 0.1849 0.610533 0.5
14 1 0.378391 0.623785 0.5
6 1 0.600981 0.609048 0.5
34 2 0.69617 0.60465 0.5
31 2 0.80167 0.602438 0.5
1 1 0.610176 0.662204 0.5
39 2 0.737315 0.650498 0.5
48 3 0.773603 0.670784 0.5
46 3 0.199958 0.696938 0.5
45 3 0.302959 0.733661 0.5
75 4 0.379686 0.730698 0.5
2 1 0.463046 0.729341 0.5
68 4 0.450349 0.694196 0.5
72 4 0.791757 0.715382 0.5
20 1 0.614682 0.73798 0.5
50 3 0.582472 0.788718 0.5
54 3 0.0564296 0.795236 0.5
41 3 0.189314 0.803465 0.5
18 1 0.354098 0.791038 0.5
13 1 0.383564 0.835131 0.5
27 2 0.542101 0.807318 0.5
35 2 0.065377 0.845977 0.5
52 3 0.253457 0.851895 0.5
40 2 0.936191 0.870138 0.5
15 1 0.99423 0.846733 0.5
78 4 0.479227 0.934104 0.5
43 3 0.547084 0.898728 0.5
71 4 0.581047 0.942536 0.5
44 3 0.897036 0.903879 0.5
61 4 0.0500184 0.969758 0.5
73 4 0.0861332 0.984385 0.5
16 1 0.223966 0.958032 0.5
66 4 0.510823 0.958591 0.5
59 3 0.535695 0.949955 0.5
21 2 0.710336 0.948776 0.5
47 3 0.766079 0.956004 0.5
77 4 0.749198 0.966775 0.5
36 2 0.98665 0.966426 0.5
ITEM: TIMESTEP
60
ITEM: NUMBER OF ATOMS
80
ITEM: BOX BOUNDS pp pp pp
-6.5480767510950555e+00 6.5480767510950555e+00
-6.5480767510950555e+00 6.5480767510950555e+00
-1.0000000000000001e-01 1.0000000000000001e-01
ITEM: ATOMS id type xs ys zs
67 4 0.0277884 0.039423 0.5
3 1 0.282215 0.0222239 0.5
76 4 0.696309 0.039677 0.5
25 2 0.195302 0.0673272 0.5
74 4 0.197077 0.100925 0.5
56 3 0.366403 0.0895282 0.5
65 4 0.565958 0.0627363 0.5
10 1 0.62258 0.0696103 0.5
23 2 0.69934 0.0770294 0.5
49 3 0.773628 0.0939125 0.5
17 1 0.362869 0.143247 0.5
64 4 0.444488 0.150476 0.5
7 1 0.658457 0.139334 0.5
9 1 0.0439797 0.167338 0.5
11 1 0.22902 0.202914 0.5
79 4 0.565477 0.230729 0.5
32 2 0.801109 0.241601 0.5
80 4 0.0227445 0.26679 0.5
22 2 0.235889 0.303001 0.5
28 2 0.565482 0.305919 0.5
60 3 0.545836 0.275771 0.5
19 1 0.689074 0.305776 0.5
8 1 0.283706 0.366801 0.5
24 2 0.340111 0.336321 0.5
38 2 0.478108 0.357956 0.5
58 3 0.52895 0.355702 0.5
51 3 0.806654 0.360786 0.5
53 3 0.839187 0.35844 0.5
63 4 0.964092 0.353465 0.5
42 3 0.00531044 0.393561 0.5
12 1 0.56583 0.385853 0.5
37 2 0.675815 0.38499 0.5
29 2 0.890162 0.410452 0.5
26 2 0.539831 0.46412 0.5
55 3 0.373148 0.490211 0.5
62 4 0.47037 0.51579 0.5
5 1 0.841651 0.476652 0.5
69 4 0.879833 0.506354 0.5
33 2 0.996757 0.498088 0.5
57 3 0.618141 0.547061 0.5
70 4 0.70422 0.572006 0.5
4 1 0.846803 0.547607 0.5
30 2 0.1849 0.610533 0.5
14 1 0.378391 0.623785 0.5
6 1 0.600192 0.607098 0.5
34 2 0.695309 0.605819 0.5
31 2 0.801485 0.602732 0.5
1 1 0.610545 0.663856 0.5
39 2 0.736116 0.650411 0.5
48 3 0.775042 0.671594 0.5
46 3 0.199958 0.696938 0.5
45 3 0.302775 0.733455 0.5
75 4 0.379802 0.730383 0.5
2 1 0.463795 0.731391 0.5
68 4 0.449609 0.692146 0.5
72 4 0.791855 0.715614 0.5
20 1 0.615374 0.738129 0.5
50 3 0.583365 0.788923 0.5
54 3 0.0564128 0.793864 0.5
41 3 0.189314 0.803465 0.5
18 1 0.352527 0.789107 0.5
13 1 0.385193 0.837583 0.5
27 2 0.540578 0.808066 0.5
35 2 0.0666041 0.84717 0.5
52 3 0.253457 0.851895 0.5
40 2 0.935594 0.870009 0.5
15 1 0.994452 0.846334 0.5
78 4 0.479021 0.93397 0.5
43 3 0.547145 0.898162 0.5
71 4 0.581431 0.942557 0.5
44 3 0.8962 0.904587 0.5
61 4 0.0499005 0.96966 0.5
73 4 0.0863926 0.98449 0.5
16 1 0.223433 0.957444 0.5
66 4 0.509426 0.959271 0.5
59 3 0.536853 0.949954 0.5
21 2 0.708087 0.948143 0.5
47 3 0.76905 0.955051 0.5
77 4 0.748476 0.96836 0.5
36 2 0.986508 0.966418 0.5
ITEM: TIMESTEP
70
ITEM: NUMBER OF ATOMS
80
ITEM: BOX BOUNDS pp pp pp
-6.3713427772455260e+00 6.3713427772455260e+00
-6.3713427772455260e+00 6.3713427772455260e+00
-1.0000000000000001e-01 1.0000000000000001e-01
ITEM: ATOMS id type xs ys zs
67 4 0.0277884 0.039423 0.5
3 1 0.283102 0.0229513 0.5
76 4 0.696401 0.0375588 0.5
25 2 0.19502 0.0648729 0.5
74 4 0.197205 0.103462 0.5
56 3 0.36656 0.0871351 0.5
65 4 0.565029 0.0625987 0.5
10 1 0.621188 0.0679927 0.5
23 2 0.701224 0.0780209 0.5
49 3 0.773774 0.0939461 0.5
17 1 0.36265 0.145635 0.5
64 4 0.44455 0.150482 0.5
7 1 0.658656 0.142182 0.5
9 1 0.0439797 0.167338 0.5
11 1 0.229011 0.202787 0.5
79 4 0.56559 0.230433 0.5
32 2 0.801109 0.241601 0.5
80 4 0.0227445 0.26679 0.5
22 2 0.235328 0.302413 0.5
28 2 0.567419 0.307094 0.5
60 3 0.544157 0.273451 0.5
19 1 0.689226 0.304867 0.5
8 1 0.282247 0.368573 0.5
24 2 0.342141 0.335264 0.5
38 2 0.47603 0.357792 0.5
58 3 0.527838 0.354461 0.5
51 3 0.804033 0.360967 0.5
53 3 0.841641 0.358093 0.5
63 4 0.964013 0.353389 0.5
42 3 0.00538901 0.393637 0.5
12 1 0.568828 0.38806 0.5
37 2 0.675673 0.385899 0.5
29 2 0.890682 0.410091 0.5
26 2 0.539644 0.464759 0.5
55 3 0.373148 0.490211 0.5
62 4 0.47037 0.51579 0.5
5 1 0.839326 0.472881 0.5
69 4 0.882838 0.506298 0.5
33 2 0.996757 0.498088 0.5
57 3 0.618433 0.545978 0.5
70 4 0.704746 0.569734 0.5
4 1 0.846415 0.551135 0.5
30 2 0.184899 0.61053 0.5
14 1 0.378391 0.623785 0.5
6 1 0.599084 0.604817 0.5
34 2 0.694286 0.607114 0.5
31 2 0.80125 0.603091 0.5
1 1 0.610953 0.665762 0.5
39 2 0.734646 0.650449 0.5
48 3 0.776768 0.67258 0.5
46 3 0.199959 0.696942 0.5
45 3 0.302463 0.733105 0.5
75 4 0.379969 0.729899 0.5
2 1 0.46472 0.733873 0.5
68 4 0.448707 0.689652 0.5
72 4 0.792004 0.715979 0.5
20 1 0.616325 0.73835 0.5
50 3 0.584435 0.789259 0.5
54 3 0.0564475 0.792084 0.5
41 3 0.189314 0.803465 0.5
18 1 0.350645 0.786949 0.5
13 1 0.387183 0.840574 0.5
27 2 0.538658 0.809033 0.5
35 2 0.0682305 0.848679 0.5
52 3 0.253457 0.851895 0.5
40 2 0.934835 0.869832 0.5
15 1 0.99463 0.845862 0.5
78 4 0.478692 0.933754 0.5
43 3 0.547205 0.897346 0.5
71 4 0.582017 0.942606 0.5
44 3 0.89512 0.905507 0.5
61 4 0.0497734 0.969523 0.5
73 4 0.0867613 0.984639 0.5
16 1 0.2227 0.956634 0.5
66 4 0.507769 0.960141 0.5
59 3 0.538193 0.950066 0.5
21 2 0.705305 0.947349 0.5
47 3 0.772645 0.953901 0.5
77 4 0.747663 0.970305 0.5
36 2 0.986267 0.966405 0.5
ITEM: TIMESTEP
80
ITEM: NUMBER OF ATOMS
80
ITEM: BOX BOUNDS pp pp pp
-6.2577299140475331e+00 6.2577299140475331e+00
-6.2577299140475331e+00 6.2577299140475331e+00
-1.0000000000000001e-01 1.0000000000000001e-01
ITEM: ATOMS id type xs ys zs
67 4 0.0277884 0.039423 0.5
3 1 0.284302 0.0238494 0.5
76 4 0.696525 0.0350553 0.5
25 2 0.194604 0.0620879 0.5
74 4 0.197355 0.106397 0.5
56 3 0.366744 0.084327 0.5
65 4 0.563822 0.0624322 0.5
10 1 0.619544 0.0660519 0.5
23 2 0.70349 0.0791116 0.5
49 3 0.774036 0.0940052 0.5
17 1 0.362345 0.148434 0.5
64 4 0.444671 0.150491 0.5
7 1 0.658855 0.145643 0.5
9 1 0.0439797 0.167338 0.5
11 1 0.228995 0.202557 0.5
79 4 0.565766 0.229995 0.5
32 2 0.801109 0.241601 0.5
80 4 0.0227445 0.26679 0.5
22 2 0.234614 0.301708 0.5
28 2 0.569768 0.308238 0.5
60 3 0.542144 0.270853 0.5
19 1 0.689422 0.303697 0.5
8 1 0.280574 0.370769 0.5
24 2 0.344542 0.334003 0.5
38 2 0.473479 0.357604 0.5
58 3 0.526547 0.353079 0.5
51 3 0.801005 0.361177 0.5
53 3 0.844404 0.357613 0.5
63 4 0.963886 0.353265 0.5
42 3 0.0055161 0.393761 0.5
12 1 0.572373 0.390646 0.5
37 2 0.675536 0.387067 0.5
29 2 0.891462 0.409632 0.5
26 2 0.539369 0.465636 0.5
55 3 0.373148 0.490211 0.5
62 4 0.47037 0.51579 0.5
5 1 0.836521 0.468631 0.5
69 4 0.886323 0.506212 0.5
33 2 0.996757 0.498088 0.5
57 3 0.618826 0.544578 0.5
70 4 0.705371 0.567088 0.5
4 1 0.846103 0.555095 0.5
30 2 0.184896 0.610509 0.5
14 1 0.378391 0.623785 0.5
6 1 0.597623 0.602257 0.5
34 2 0.693134 0.608474 0.5
31 2 0.800951 0.603513 0.5
1 1 0.611371 0.667873 0.5
39 2 0.732931 0.650652 0.5
48 3 0.778754 0.673724 0.5
46 3 0.199962 0.696962 0.5
45 3 0.301998 0.732583 0.5
75 4 0.380191 0.729229 0.5
2 1 0.465789 0.736716 0.5
68 4 0.447661 0.686756 0.5
72 4 0.792208 0.716497 0.5
20 1 0.617549 0.738661 0.5
50 3 0.585658 0.789747 0.5
54 3 0.0565433 0.789907 0.5
41 3 0.189314 0.803465 0.5
18 1 0.34849 0.784657 0.5
13 1 0.389506 0.844056 0.5
27 2 0.536383 0.81023 0.5
35 2 0.0702599 0.850492 0.5
52 3 0.253457 0.851895 0.5
40 2 0.933912 0.869602 0.5
15 1 0.99475 0.84532 0.5
78 4 0.478234 0.933446 0.5
43 3 0.547257 0.896278 0.5
71 4 0.582823 0.942684 0.5
44 3 0.893797 0.906643 0.5
61 4 0.0496472 0.969346 0.5
73 4 0.0872443 0.984835 0.5
16 1 0.221767 0.955586 0.5
66 4 0.505886 0.961201 0.5
59 3 0.539677 0.950315 0.5
21 2 0.702049 0.946401 0.5
47 3 0.776782 0.95257 0.5
77 4 0.746782 0.972583 0.5
36 2 0.98591 0.966387 0.5
ITEM: TIMESTEP
90
ITEM: NUMBER OF ATOMS
80
ITEM: BOX BOUNDS pp pp pp
-6.1992426084373351e+00 6.1992426084373351e+00
-6.1992426084373351e+00 6.1992426084373351e+00
-1.0000000000000001e-01 1.0000000000000001e-01
ITEM: ATOMS id type xs ys zs
67 4 0.0277884 0.039423 0.5
3 1 0.285806 0.0248959 0.5
76 4 0.696672 0.0322168 0.5
25 2 0.194033 0.0590681 0.5
74 4 0.197525 0.109659 0.5
56 3 0.366963 0.0811735 0.5
65 4 0.562331 0.062245 0.5
10 1 0.617716 0.0638201 0.5
23 2 0.706073 0.0802736 0.5
49 3 0.774439 0.0940942 0.5
17 1 0.361946 0.151583 0.5
64 4 0.444862 0.150502 0.5
7 1 0.659042 0.14965 0.5
9 1 0.0439797 0.167338 0.5
11 1 0.228973 0.202207 0.5
79 4 0.566019 0.22941 0.5
32 2 0.801109 0.241601 0.5
80 4 0.0227445 0.26679 0.5
22 2 0.233761 0.300908 0.5
28 2 0.572504 0.309299 0.5
60 3 0.539815 0.268054 0.5
19 1 0.689658 0.30228 0.5
8 1 0.278727 0.373361 0.5
24 2 0.347264 0.332562 0.5
38 2 0.470514 0.357407 0.5
58 3 0.525106 0.351588 0.5
51 3 0.79764 0.361414 0.5
53 3 0.847396 0.356986 0.5
63 4 0.963707 0.353091 0.5
42 3 0.00569549 0.393935 0.5
12 1 0.576348 0.393545 0.5
37 2 0.675447 0.38848 0.5
29 2 0.892531 0.409094 0.5
26 2 0.538992 0.466752 0.5
55 3 0.373148 0.490211 0.5
62 4 0.47037 0.51579 0.5
5 1 0.833276 0.464036 0.5
69 4 0.890195 0.506095 0.5
33 2 0.996757 0.498088 0.5
57 3 0.619333 0.542862 0.5
70 4 0.706086 0.564124 0.5
4 1 0.845922 0.559349 0.5
30 2 0.184887 0.61046 0.5
14 1 0.378391 0.623784 0.5
6 1 0.595793 0.599478 0.5
34 2 0.69188 0.609834 0.5
31 2 0.800567 0.603994 0.5
1 1 0.611769 0.670125 0.5
39 2 0.731016 0.651049 0.5
48 3 0.780961 0.674994 0.5
46 3 0.199971 0.697011 0.5
45 3 0.301362 0.731871 0.5
75 4 0.380474 0.728368 0.5
2 1 0.46696 0.739822 0.5
68 4 0.446494 0.683527 0.5
72 4 0.792465 0.717184 0.5
20 1 0.619042 0.739081 0.5
50 3 0.587002 0.790403 0.5
54 3 0.0567039 0.787371 0.5
41 3 0.189314 0.803465 0.5
18 1 0.34611 0.78233 0.5
13 1 0.392113 0.847954 0.5
27 2 0.533821 0.811631 0.5
35 2 0.0726694 0.852576 0.5
52 3 0.253457 0.851895 0.5
40 2 0.932828 0.86932 0.5
15 1 0.994814 0.844711 0.5
78 4 0.477653 0.933039 0.5
43 3 0.5473 0.89499 0.5
71 4 0.583857 0.942787 0.5
44 3 0.892248 0.907986 0.5
61 4 0.0495309 0.969128 0.5
73 4 0.0878386 0.985077 0.5
16 1 0.220653 0.954289 0.5
66 4 0.503817 0.962443 0.5
59 3 0.541255 0.950713 0.5
21 2 0.698417 0.945319 0.5
47 3 0.781335 0.951089 0.5
77 4 0.745861 0.975146 0.5
36 2 0.985432 0.966363 0.5
ITEM: TIMESTEP
100
ITEM: NUMBER OF ATOMS
80
ITEM: BOX BOUNDS pp pp pp
-6.1851223188484807e+00 6.1851223188484807e+00
-6.1851223188484807e+00 6.1851223188484807e+00
-1.0000000000000001e-01 1.0000000000000001e-01
ITEM: ATOMS id type xs ys zs
67 4 0.0277884 0.039423 0.5
3 1 0.28757 0.0260521 0.5
76 4 0.696827 0.0291112 0.5
25 2 0.193305 0.0559111 0.5
74 4 0.19771 0.113166 0.5
56 3 0.367235 0.0777714 0.5
65 4 0.560565 0.0620485 0.5
10 1 0.61579 0.0613456 0.5
23 2 0.708883 0.0814772 0.5
49 3 0.775002 0.0942157 0.5
17 1 0.361458 0.155006 0.5
64 4 0.445122 0.150513 0.5
7 1 0.659204 0.154101 0.5
9 1 0.0439797 0.167338 0.5
11 1 0.228944 0.201728 0.5
79 4 0.566359 0.22869 0.5
32 2 0.801109 0.241601 0.5
80 4 0.0227445 0.26679 0.5
22 2 0.232789 0.300038 0.5
28 2 0.575582 0.310235 0.5
60 3 0.537203 0.265129 0.5
19 1 0.689933 0.300646 0.5
8 1 0.276754 0.376299 0.5
24 2 0.350237 0.330973 0.5
38 2 0.467222 0.357225 0.5
58 3 0.523551 0.350016 0.5
51 3 0.794025 0.361673 0.5
53 3 0.850526 0.35621 0.5
63 4 0.963476 0.352867 0.5
42 3 0.00592609 0.39416 0.5
12 1 0.580605 0.396675 0.5
37 2 0.675445 0.390103 0.5
29 2 0.893901 0.408505 0.5
26 2 0.538502 0.468095 0.5
55 3 0.373148 0.490211 0.5
62 4 0.47037 0.51579 0.5
5 1 0.829661 0.459242 0.5
69 4 0.894337 0.505942 0.5
33 2 0.996757 0.498088 0.5
57 3 0.61996 0.540849 0.5
70 4 0.706877 0.560909 0.5
4 1 0.845927 0.563745 0.5
30 2 0.184873 0.610378 0.5
14 1 0.378379 0.623774 0.5
6 1 0.593602 0.596548 0.5
34 2 0.690546 0.611131 0.5
31 2 0.80007 0.604532 0.5
1 1 0.612123 0.672443 0.5
39 2 0.728954 0.651659 0.5
48 3 0.783346 0.676353 0.5
46 3 0.199985 0.697094 0.5
45 3 0.300548 0.730957 0.5
75 4 0.380829 0.727325 0.5
2 1 0.468177 0.743086 0.5
68 4 0.445248 0.680057 0.5
72 4 0.792771 0.718043 0.5
20 1 0.620783 0.739635 0.5
50 3 0.588427 0.791235 0.5
54 3 0.0569278 0.784539 0.5
41 3 0.189313 0.803464 0.5
18 1 0.343568 0.780062 0.5
13 1 0.394944 0.852173 0.5
27 2 0.531055 0.8132 0.5
35 2 0.0754139 0.854882 0.5
52 3 0.253459 0.851896 0.5
40 2 0.931593 0.868988 0.5
15 1 0.994831 0.844036 0.5
78 4 0.476971 0.932535 0.5
43 3 0.547337 0.89353 0.5
71 4 0.585109 0.942905 0.5
44 3 0.890497 0.909519 0.5
61 4 0.0494316 0.968873 0.5
73 4 0.088535 0.985361 0.5
16 1 0.219387 0.952752 0.5
66 4 0.50161 0.963848 0.5
59 3 0.542872 0.951259 0.5
21 2 0.694534 0.944129 0.5
47 3 0.786153 0.949497 0.5
77 4 0.744925 0.977929 0.5
36 2 0.984835 0.966334 0.5
ITEM: TIMESTEP
110
ITEM: NUMBER OF ATOMS
80
ITEM: BOX BOUNDS pp pp pp
-6.2009121901255098e+00 6.2009121901255098e+00
-6.2009121901255098e+00 6.2009121901255098e+00
-1.0000000000000001e-01 1.0000000000000001e-01
ITEM: ATOMS id type xs ys zs
67 4 0.0277884 0.039423 0.5
3 1 0.28953 0.0272789 0.5
76 4 0.696978 0.0258117 0.5
25 2 0.192427 0.0527053 0.5
74 4 0.197908 0.116828 0.5
56 3 0.36758 0.0742198 0.5
65 4 0.558542 0.0618554 0.5
10 1 0.613862 0.0586852 0.5
23 2 0.711821 0.0826944 0.5
49 3 0.775738 0.0943702 0.5
17 1 0.360894 0.158619 0.5
64 4 0.445444 0.15052 0.5
7 1 0.659331 0.158883 0.5
9 1 0.0439797 0.167338 0.5
11 1 0.228911 0.201122 0.5
79 4 0.566793 0.227853 0.5
32 2 0.801109 0.241601 0.5
80 4 0.0227445 0.26679 0.5
22 2 0.231723 0.299124 0.5
28 2 0.578929 0.311024 0.5
60 3 0.534349 0.262148 0.5
19 1 0.690254 0.298831 0.5
8 1 0.274702 0.37952 0.5
24 2 0.353389 0.329274 0.5
38 2 0.463684 0.357073 0.5
58 3 0.521928 0.348392 0.5
51 3 0.790244 0.361937 0.5
53 3 0.853709 0.355284 0.5
63 4 0.963199 0.352597 0.5
42 3 0.00620308 0.394429 0.5
12 1 0.585009 0.399959 0.5
37 2 0.675566 0.391894 0.5
29 2 0.89557 0.407898 0.5
26 2 0.537892 0.469639 0.5
55 3 0.373148 0.490211 0.5
62 4 0.47037 0.51579 0.5
5 1 0.825763 0.4544 0.5
69 4 0.898627 0.505749 0.5
33 2 0.996757 0.498088 0.5
57 3 0.620715 0.538569 0.5
70 4 0.707726 0.557512 0.5
4 1 0.846166 0.568136 0.5
30 2 0.184853 0.610262 0.5
14 1 0.378338 0.623739 0.5
6 1 0.591072 0.593527 0.5
34 2 0.689147 0.612311 0.5
31 2 0.79943 0.60512 0.5
1 1 0.612411 0.674756 0.5
39 2 0.726806 0.652495 0.5
48 3 0.785868 0.677759 0.5
46 3 0.200005 0.697209 0.5
45 3 0.299555 0.729839 0.5
75 4 0.381269 0.726119 0.5
2 1 0.469377 0.746401 0.5
68 4 0.44397 0.676447 0.5
72 4 0.793115 0.719075 0.5
20 1 0.622746 0.740343 0.5
50 3 0.589891 0.792247 0.5
54 3 0.0572109 0.781484 0.5
41 3 0.189309 0.803461 0.5
18 1 0.340931 0.777931 0.5
13 1 0.397935 0.856619 0.5
27 2 0.528171 0.814896 0.5
35 2 0.0784358 0.857354 0.5
52 3 0.253462 0.851899 0.5
40 2 0.930216 0.868611 0.5
15 1 0.994825 0.843295 0.5
78 4 0.476215 0.93194 0.5
43 3 0.547373 0.891951 0.5
71 4 0.586559 0.943024 0.5
44 3 0.888575 0.911221 0.5
61 4 0.0493537 0.968585 0.5
73 4 0.0893203 0.985683 0.5
16 1 0.218004 0.950998 0.5
66 4 0.499306 0.965393 0.5
59 3 0.544475 0.951946 0.5
21 2 0.690524 0.942863 0.5
47 3 0.791089 0.947833 0.5
77 4 0.744 0.980859 0.5
36 2 0.984127 0.9663 0.5
ITEM: TIMESTEP
120
ITEM: NUMBER OF ATOMS
80
ITEM: BOX BOUNDS pp pp pp
-6.2297151207488630e+00 6.2297151207488630e+00
-6.2297151207488630e+00 6.2297151207488630e+00
-1.0000000000000001e-01 1.0000000000000001e-01
ITEM: ATOMS id type xs ys zs
67 4 0.0277884 0.039423 0.5
3 1 0.291618 0.0285412 0.5
76 4 0.697111 0.0223845 0.5
25 2 0.191418 0.0495214 0.5
74 4 0.198106 0.120555 0.5
56 3 0.368013 0.0706063 0.5
65 4 0.556279 0.0616783 0.5
10 1 0.612022 0.055895 0.5
23 2 0.714788 0.0839014 0.5
49 3 0.776655 0.0945577 0.5
17 1 0.360271 0.162347 0.5
64 4 0.445817 0.150522 0.5
7 1 0.659417 0.163883 0.5
9 1 0.0439797 0.167338 0.5
11 1 0.228882 0.20041 0.5
79 4 0.567324 0.226917 0.5
32 2 0.801109 0.241601 0.5
80 4 0.0227445 0.26679 0.5
22 2 0.230585 0.298191 0.5
28 2 0.582466 0.311665 0.5
60 3 0.531295 0.25916 0.5
19 1 0.69063 0.296874 0.5
8 1 0.272613 0.382958 0.5
24 2 0.356653 0.327501 0.5
38 2 0.459943 0.356957 0.5
58 3 0.520283 0.346738 0.5
51 3 0.786364 0.362175 0.5
53 3 0.856878 0.354205 0.5
63 4 0.962883 0.352289 0.5
42 3 0.00651977 0.394737 0.5
12 1 0.589464 0.403338 0.5
37 2 0.675839 0.39381 0.5
29 2 0.897522 0.407306 0.5
26 2 0.537162 0.471357 0.5
55 3 0.373148 0.490211 0.5
62 4 0.47037 0.51579 0.5
5 1 0.821681 0.449662 0.5
69 4 0.902956 0.505515 0.5
33 2 0.996757 0.498088 0.5
57 3 0.621601 0.53605 0.5