LAMMPS data file via write_data, version 23 Jun 2022, timestep = 10000

80 atoms
4 atom types

-4.8126777894429225 4.8126777894429225 xlo xhi
-4.8126777894429225 4.8126777894429225 ylo yhi
-0.1 0.1 zlo zhi

Atoms # sphere

60 3 1 1 -3.8033689349442676 -4.556765194703679 0 0 1 0
51 3 1 1 -2.8531907333639683 -4.65040431803519 0 0 0 0
26 2 1.3 0.4551661356395083 -1.7445586015565495 -4.413134616701051 0 0 1 0
1 1 1.6 0.2441406249999999 0.519500526572255 -4.1579356297635535 0 0 0 0
18 1 1.6 0.2441406249999999 1.991857862680419 -4.080788392019655 0 -1 0 0
36 2 1.3 0.4551661356395083 3.4071341727353683 -4.479086913614343 0 0 1 0
29 2 1.3 0.4551661356395083 4.726256386649352 -4.355603472201787 0 -1 1 0
17 1 1.6 0.2441406249999999 -4.5328710362025415 -3.132930605033592 0 0 0 0
20 1 1.6 0.2441406249999999 -3.0255836465580996 -3.5620443175873526 0 1 1 0
9 1 1.6 0.2441406249999999 -1.7070982278664482 -2.9487610258634267 0 0 0 0
40 2 1.3 0.4551661356395083 -0.6748795571301329 -3.772804131256494 0 0 0 0
47 3 1 1 0.024192961228115983 -2.9878620016435233 0 0 1 0
22 2 1.3 0.4551661356395083 1.140643477943537 -2.8133313306720087 0 0 0 0
5 1 1.6 0.2441406249999999 2.4723000374781936 -2.7248672016138924 0 0 0 0
63 4 0.7 2.915451895043732 3.1344276293989974 -3.470825853302705 0 0 0 0
57 3 1 1 3.9779659786570054 -3.570256922543612 0 0 0 0
28 2 1.3 0.4551661356395083 -4.042098149076884 -1.9419739090135075 0 1 0 0
58 3 1 1 -3.029743701615571 -2.363191796350581 0 0 0 0
68 4 0.7 2.915451895043732 -2.2526925902310384 -2.1029908457426334 0 0 0 0
53 3 1 1 -0.741694482979983 -2.4688241389305223 0 0 0 0
15 1 1.6 0.2441406249999999 0.050142026635960235 -1.5640236198365405 0 0 0 0
12 1 1.6 0.2441406249999999 1.460470764235728 -1.5153885111406038 0 0 0 0
79 4 0.7 2.915451895043732 3.343530270739988 -1.5127476852012331 0 0 0 0
13 1 1.6 0.2441406249999999 3.961233701144172 -2.3814583958816766 0 0 0 0
24 2 1.3 0.4551661356395083 -3.738078021459911 -0.8197658039010292 0 0 0 0
39 2 1.3 0.4551661356395083 -2.68519810406141 -1.3338498040313818 0 0 0 0
30 2 1.3 0.4551661356395083 -1.4345581487268406 -1.5632803766840615 0 0 0 0
54 3 1 1 -1.8375524896104274 -0.5282430189348633 0 0 0 0
31 2 1.3 0.4551661356395083 -0.7838221960848992 -0.4494360115168492 0 0 0 0
32 2 1.3 0.4551661356395083 0.7847530474659559 -0.25796658384498095 0 0 0 0
45 3 1 1 2.0714537925828926 -0.34665898488416946 0 0 0 0
75 4 0.7 2.915451895043732 2.424603918323241 -0.9883623334253762 0 -1 0 0
14 1 1.6 0.2441406249999999 4.469812076007866 -1.1027580319373058 0 0 0 0
77 4 0.7 2.915451895043732 -4.495643118174037 -0.40448268968710455 0 0 0 0
44 3 1 1 -2.793218614903879 -0.31510813064874377 0 1 0 0
27 2 1.3 0.4551661356395083 -2.298559374067983 0.5958047380604263 0 0 0 0
64 4 0.7 2.915451895043732 -1.5219304569874548 0.22049479071236444 0 0 0 0
70 4 0.7 2.915451895043732 -0.07360884790725564 0.2562703768100052 0 0 0 0
42 3 1 1 1.4144491380193331 0.4711651983106959 0 0 0 0
66 4 0.7 2.915451895043732 2.2031880251967317 0.3446098540582092 0 0 0 0
37 2 1.3 0.4551661356395083 3.171965497868193 -0.6315429750719064 0 0 0 0
3 1 1.6 0.2441406249999999 4.324230648895638 0.4126916052186482 0 0 0 0
48 3 1 1 -4.714373406703192 1.4885973437554734 0 0 0 0
16 1 1.6 0.2441406249999999 -3.7903511835203725 0.4943904092504239 0 0 0 0
41 3 1 1 -2.970151654052721 1.3163634102733779 0 0 -1 0
34 2 1.3 0.4551661356395083 -0.7791035835442459 0.8376994528038368 0 0 0 0
56 3 1 1 -1.6847373252031526 1.2540712642820786 0 0 0 0
21 2 1.3 0.4551661356395083 0.6452647477435987 1.1265321243491666 0 0 0 0
74 4 0.7 2.915451895043732 -0.2995732612543165 1.485231577410521 0 0 -1 0
35 2 1.3 0.4551661356395083 1.847877453394804 1.4926999996261694 0 0 0 0
38 2 1.3 0.4551661356395083 2.958475673300745 0.627765430680495 0 0 0 0
55 3 1 1 -4.299810699139851 2.333565057404149 0 1 0 0
76 4 0.7 2.915451895043732 -3.6008679526237612 1.5938839225705514 0 1 0 0
67 4 0.7 2.915451895043732 -2.3329100088218944 1.6811090327430414 0 0 -1 0
43 3 1 1 -1.8749044846651493 2.1288515459855635 0 0 0 0
71 4 0.7 2.915451895043732 0.17769733029476775 2.0648672593299544 0 0 0 0
50 3 1 1 -0.9595232993887599 1.8741855772433453 0 0 0 0
72 4 0.7 2.915451895043732 -0.019952915238556912 2.6476862377807597 0 0 -1 0
2 1 1.6 0.2441406249999999 1.1602397626017984 2.703278738295314 0 0 0 0
23 2 1.3 0.4551661356395083 2.4827026575225295 2.362494803072736 0 0 0 0
11 1 1.6 0.2441406249999999 3.793482432008849 1.825421420575168 0 0 0 0
78 4 0.7 2.915451895043732 4.614205795139931 2.6582014667042646 0 0 0 0
49 3 1 1 -4.729088318536866 3.4278646063960156 0 1 0 0
69 4 0.7 2.915451895043732 -3.8583477076664283 2.8028987373989667 0 0 0 0
10 1 1.6 0.2441406249999999 -2.941166114196508 2.5638896128882234 0 1 0 0
73 4 0.7 2.915451895043732 -1.9263186608813592 2.925260205208567 0 0 0 0
25 2 1.3 0.4551661356395083 -0.8754804615210459 2.9705910375668925 0 0 0 0
52 3 1 1 0.11827559500185725 3.452170624830158 0 0 0 0
65 4 0.7 2.915451895043732 2.459199919190185 3.309559453631204 0 -1 0 0
59 3 1 1 3.2524871502239368 3.4912121806630694 0 0 0 0
62 4 0.7 2.915451895043732 3.218159187285325 2.8248232990360362 0 0 -1 0
46 3 1 1 3.9814962464040686 2.999568038019423 0 0 0 0
80 4 0.7 2.915451895043732 -4.443354144062859 4.561002775884157 0 0 0 0
7 1 1.6 0.2441406249999999 -3.5634066098951065 3.944102281893608 0 0 0 0
8 1 1.6 0.2441406249999999 -2.1612414451482076 3.969585702163874 0 0 0 0
6 1 1.6 0.2441406249999999 -0.7267145866437019 4.287355035870908 0 0 0 0
61 4 0.7 2.915451895043732 0.2673160453487142 4.448577627327431 0 0 0 0
4 1 1.6 0.2441406249999999 1.2483754983367596 4.1419061463192275 0 -1 0 0
33 2 1.3 0.4551661356395083 2.6620965821185205 4.204275166381672 0 -1 -1 0
19 1 1.6 0.2441406249999999 4.147943392585999 4.210773419537324 0 -1 0 0

Velocities

60 -0.18884286658895644 0.059747941812951066 0 0 0 0
51 -0.04303309912219337 0.2336295679489467 0 0 0 0
26 -0.0831850050578087 0.13238459212064532 0 0 0 0
1 -0.03399470194762709 0.0019123822831268425 0 0 0 0
18 -0.02680657936733859 0.15708621170832335 0 0 0 0
36 -0.05905818247084937 0.03556413503644021 0 0 0 0
29 0.14888695993103268 -0.1964526565966833 0 0 0 0
17 -0.03640078583681144 0.021241708639871845 0 0 0 0
20 0.13301340040492887 0.10835555301225912 0 0 0 0
9 0.19614313159344507 -0.10655330425899918 0 0 0 0
40 0.06822010774207114 0.05009582948952079 0 0 0 0
47 0.11050430673538852 0.3288337022738971 0 0 0 0
22 0.058376855020338875 -0.15940313343911014 0 0 0 0
5 0.04117942994645074 -0.10263183084861313 0 0 0 0
63 -0.05665155766060641 0.022832093885174588 0 0 0 0
57 -0.22642977241205817 -0.059666329074601496 0 0 0 0
28 0.0019032876711057075 -0.11311559818588902 0 0 0 0
58 0.009963561385423566 -0.08118818901048877 0 0 0 0
68 0.006568886744378651 -0.1886863727084217 0 0 0 0
53 0.09878720157168137 -0.3288416550325669 0 0 0 0
15 -0.190402195715119 -0.1545993802660775 0 0 0 0
12 0.11533529924131951 0.08248956065261234 0 0 0 0
79 0.07733506952820843 0.21119453846313815 0 0 0 0
13 0.07675580364660084 -0.33521927945409496 0 0 0 0
24 -0.07681608122591682 0.14700721176814346 0 0 0 0
39 0.08796698178354682 -0.08876664439503812 0 0 0 0
30 0.1328911679344875 -0.02956650141827499 0 0 0 0
54 -0.028326923890887833 0.1331935342309928 0 0 0 0
31 0.23763411407135765 -0.02718755635739399 0 0 0 0
32 -0.06038268684634589 -0.0328482405986732 0 0 0 0
45 -0.03687495564856541 -0.09041746993836226 0 0 0 0
75 -0.1351378732871912 0.00995506853396955 0 0 0 0
14 -0.05164977227153156 0.048597016474030856 0 0 0 0
77 0.04240096848655541 0.09214761601075679 0 0 0 0
44 0.13755836009630398 0.00898090846755076 0 0 0 0
27 -0.16392493776292139 -0.11886400922453653 0 0 0 0
64 -0.10985733432391478 0.15686285716194337 0 0 0 0
70 0.11068258165801002 0.024208914621026836 0 0 0 0
42 -0.04705764111658352 -0.10172835991619274 0 0 0 0
66 0.039018420378719984 0.09522186989046831 0 0 0 0
37 -0.013672851250943346 -0.07866307570187858 0 0 0 0
3 -0.19243764050014214 -0.023704527064086982 0 0 0 0
48 0.050594624824493 0.07908532902845873 0 0 0 0
16 0.08610861016941582 0.0221331608626354 0 0 0 0
41 0.09160979216713748 -0.09581083011089428 0 0 0 0
34 0.3474576273517784 0.024577146979404264 0 0 0 0
56 -0.06699532052597307 0.12232426689498706 0 0 0 0
21 -0.10580158807963565 -0.05445488455066433 0 0 0 0
74 -0.11600205411803591 0.03420645061787956 0 0 0 0
35 0.1940230212987592 0.11633060900547282 0 0 0 0
38 0.3180279145091188 0.046342101413167476 0 0 0 0
55 -0.12715641090581917 0.023578734352177645 0 0 0 0
76 -0.08876927376220138 -0.13624566892374054 0 0 0 0
67 -0.10742080695607764 0.019893783929276213 0 0 0 0
43 0.08790181448380646 0.1639023789057574 0 0 0 0
71 0.04016526153930582 -0.1204755875327985 0 0 0 0
50 0.0001906347233709183 -0.09753047352180569 0 0 0 0
72 -0.08814161375018165 0.03676266946112928 0 0 0 0
2 -0.15970201744176707 -0.18004319118048465 0 0 0 0
23 -0.046910661498453445 0.10282317028835336 0 0 0 0
11 -0.027896462547933418 0.13720025764238522 0 0 0 0
78 -0.19453982691455313 0.10398544867072664 0 0 0 0
49 0.03748322861465049 -0.08925119439397616 0 0 0 0
69 0.02426327099092836 0.020758214834644743 0 0 0 0
10 0.08331674890783496 -0.10547804221525404 0 0 0 0
73 -0.16773798724538988 0.21542547884253316 0 0 0 0
25 0.059369008228145004 0.05802809966070595 0 0 0 0
52 -0.08040970711864627 0.11227340056043243 0 0 0 0
65 -0.07858048357765939 -0.0128456075290591 0 0 0 0
59 -0.11483713598075751 -0.03502704702991662 0 0 0 0
62 -0.009641100973697492 -0.11514909233614733 0 0 0 0
46 0.018339254946813134 -0.040510030475536606 0 0 0 0
80 0.011644938546033563 -0.11397114925064683 0 0 0 0
7 0.07791654237668669 -0.08762470889822706 0 0 0 0
8 -0.08428826520307284 -0.14271380041171022 0 0 0 0
6 -0.15206474625855687 0.0801509148445553 0 0 0 0
61 -0.11553521229345826 0.03868366952747144 0 0 0 0
4 0.08305935120517931 0.060343494566404324 0 0 0 0
33 0.10613524880832505 0.09556538630132858 0 0 0 0
19 0.1446413301930496 -0.030681559824831752 0 0 0 0
