LAMMPS data file.

     59 atoms
    142 bonds
      0 angles
      0 dihedrals
      0 impropers
      1 atom types
    142 bond types
      0 angle types
      0 dihedral types
      0 improper types
  -4.812678   4.812678 xlo xhi
  -4.812678   4.812678 ylo yhi
  -0.100000   0.100000 zlo zhi

Masses # ['atom_id', 'mass']

1 10000.0

Atoms # ['atomID', 'moleculeID', 'atomType', 'charge', 'x', 'y', 'z']

     60      1      1   0.000000  -3.803369  -4.556765   0.000000
     51      1      1   0.000000  -2.853191  -4.650404   0.000000
     26      1      1   0.000000  -1.744559  -4.413135   0.000000
      1      1      1   0.000000   0.519501  -4.157936   0.000000
     18      1      1   0.000000   1.991858  -4.080788   0.000000
     36      1      1   0.000000   3.407134  -4.479087   0.000000
     29      1      1   0.000000   4.726256  -4.355603   0.000000
     17      1      1   0.000000  -4.532871  -3.132931   0.000000
     20      1      1   0.000000  -3.025584  -3.562044   0.000000
      9      1      1   0.000000  -1.707098  -2.948761   0.000000
     40      1      1   0.000000  -0.674880  -3.772804   0.000000
     47      1      1   0.000000   0.024193  -2.987862   0.000000
     22      1      1   0.000000   1.140643  -2.813331   0.000000
      5      1      1   0.000000   2.472300  -2.724867   0.000000
     57      1      1   0.000000   3.977966  -3.570257   0.000000
     28      1      1   0.000000  -4.042098  -1.941974   0.000000
     58      1      1   0.000000  -3.029744  -2.363192   0.000000
     68      1      1   0.000000  -2.252693  -2.102991   0.000000
     53      1      1   0.000000  -0.741694  -2.468824   0.000000
     15      1      1   0.000000   0.050142  -1.564024   0.000000
     12      1      1   0.000000   1.460471  -1.515389   0.000000
     13      1      1   0.000000   3.961234  -2.381458   0.000000
     24      1      1   0.000000  -3.738078  -0.819766   0.000000
     39      1      1   0.000000  -2.685198  -1.333850   0.000000
     30      1      1   0.000000  -1.434558  -1.563280   0.000000
     54      1      1   0.000000  -1.837552  -0.528243   0.000000
     31      1      1   0.000000  -0.783822  -0.449436   0.000000
     14      1      1   0.000000   4.469812  -1.102758   0.000000
     77      1      1   0.000000  -4.495643  -0.404483   0.000000
     44      1      1   0.000000  -2.793219  -0.315108   0.000000
     27      1      1   0.000000  -2.298559   0.595805   0.000000
     64      1      1   0.000000  -1.521930   0.220495   0.000000
      3      1      1   0.000000   4.324231   0.412692   0.000000
     16      1      1   0.000000  -3.790351   0.494390   0.000000
     41      1      1   0.000000  -2.970152   1.316363   0.000000
     34      1      1   0.000000  -0.779104   0.837699   0.000000
     56      1      1   0.000000  -1.684737   1.254071   0.000000
     67      1      1   0.000000  -2.332910   1.681109   0.000000
     43      1      1   0.000000  -1.874904   2.128852   0.000000
     50      1      1   0.000000  -0.959523   1.874186   0.000000
      2      1      1   0.000000   1.160240   2.703279   0.000000
     23      1      1   0.000000   2.482703   2.362495   0.000000
     11      1      1   0.000000   3.793482   1.825421   0.000000
     10      1      1   0.000000  -2.941166   2.563890   0.000000
     73      1      1   0.000000  -1.926319   2.925260   0.000000
     25      1      1   0.000000  -0.875480   2.970591   0.000000
     52      1      1   0.000000   0.118276   3.452171   0.000000
     65      1      1   0.000000   2.459200   3.309559   0.000000
     59      1      1   0.000000   3.252487   3.491212   0.000000
     62      1      1   0.000000   3.218159   2.824823   0.000000
     46      1      1   0.000000   3.981496   2.999568   0.000000
     80      1      1   0.000000  -4.443354   4.561003   0.000000
      7      1      1   0.000000  -3.563407   3.944102   0.000000
      8      1      1   0.000000  -2.161241   3.969586   0.000000
      6      1      1   0.000000  -0.726715   4.287355   0.000000
     61      1      1   0.000000   0.267316   4.448578   0.000000
      4      1      1   0.000000   1.248375   4.141906   0.000000
     33      1      1   0.000000   2.662097   4.204275   0.000000
     19      1      1   0.000000   4.147943   4.210773   0.000000

Bond Coeffs # ['bondID', 'bondCoeff', 'd']

      1   0.783133   1.130010
      2   0.613854   1.276343
      3   0.613854   1.276343
      4   0.460026   1.474377
      5   1.234427   0.900051
      6   0.870112   1.072043
      7   1.498742   0.816839
      8   1.659781   0.776202
      9   1.408393   0.842632
     10   1.339827   0.863924
     11   0.536181   1.365665
     12   0.952832   1.024453
     13   0.810565   1.110724
     14   0.402150   1.576907
     15   1.408393   0.842632
     16   0.838971   1.091759
     17   0.838971   1.091759
     18   1.514634   0.812543
     19   0.848712   1.085475
     20   0.642194   1.247863
     21   0.436268   1.513991
     22   1.630738   0.783083
     23   1.166834   0.925754
     24   0.759547   1.147421
     25   0.573223   1.320804
     26   0.759547   1.147421
     27   1.083357   0.960759
     28   1.083357   0.960759
     29   0.618529   1.271510
     30   0.686869   1.206599
     31   0.686869   1.206599
     32   0.697639   1.197249
     33   0.501546   1.412032
     34   0.483244   1.438522
     35   0.669020   1.222589
     36   0.697639   1.197249
     37   0.439078   1.509139
     38   0.638139   1.251821
     39   0.396790   1.587521
     40   0.638139   1.251821
     41   0.396790   1.587521
     42   0.739766   1.162660
     43   0.514392   1.394290
     44   0.514392   1.394290
     45   0.707453   1.188916
     46   0.481367   1.441325
     47   0.861695   1.077267
     48   0.754050   1.151595
     49   1.114226   0.947356
     50   0.693273   1.201013
     51   0.693273   1.201013
     52   1.043053   0.979145
     53   0.728418   1.171682
     54   0.777991   1.133738
     55   2.245916   0.667272
     56   0.865895   1.074651
     57   0.463211   1.469301
     58   0.907740   1.049589
     59   0.907740   1.049589
     60   0.805743   1.114043
     61   0.582151   1.310636
     62   0.582151   1.310636
     63   1.489175   0.819459
     64   0.930709   1.036557
     65   0.831749   1.096488
     66   0.619424   1.270591
     67   1.293380   0.879300
     68   1.096964   0.954781
     69   1.325128   0.868702
     70   1.040982   0.980118
     71   0.849829   1.084762
     72   1.570080   0.798067
     73   0.903461   1.052072
     74   1.168246   0.925194
     75   0.499376   1.415096
     76   0.516049   1.392050
     77   0.643403   1.246690
     78   0.472921   1.454139
     79   0.895609   1.056673
     80   1.006430   0.996800
     81   0.905111   1.051112
     82   0.757800   1.148743
     83   0.691721   1.202360
     84   0.603595   1.287144
     85   0.756398   1.149807
     86   0.756398   1.149807
     87   1.509884   0.813820
     88   1.344068   0.862560
     89   0.860331   1.078120
     90   0.569476   1.325141
     91   0.820028   1.104296
     92   0.987166   1.006479
     93   0.606222   1.284352
     94   0.769190   1.140206
     95   1.030672   0.985008
     96   0.578122   1.315195
     97   0.986106   1.007020
     98   0.600923   1.290003
     99   1.284292   0.882405
    100   1.498742   0.816839
    101   0.528714   1.375276
    102   0.528714   1.375276
    103   0.741638   1.161192
    104   0.871506   1.071186
    105   0.431447   1.522426
    106   0.868191   1.073229
    107   0.559614   1.336767
    108   0.702272   1.193294
    109   0.702272   1.193294
    110   0.607338   1.283171
    111   1.247810   0.895212
    112   0.428292   1.528023
    113   0.502161   1.411167
    114   0.437016   1.512695
    115   1.188095   0.917433
    116   0.437016   1.512695
    117   1.098325   0.954189
    118   1.107693   0.950146
    119   0.823556   1.101929
    120   0.602687   1.288113
    121   0.946499   1.027874
    122   0.707229   1.189104
    123   0.498358   1.416542
    124   0.508462   1.402397
    125   0.708445   1.188083
    126   0.634973   1.254938
    127   0.695766   1.198860
    128   0.827015   1.099622
    129   2.437583   0.640502
    130   1.854887   0.734245
    131   0.766043   1.142545
    132   0.627187   1.262703
    133   0.561440   1.334592
    134   0.542170   1.358101
    135   0.542170   1.358101
    136   1.006504   0.996764
    137   1.072118   0.965781
    138   0.671342   1.220473
    139   0.671342   1.220473
    140   0.872749   1.070423
    141   0.528059   1.376127
    142   0.407157   1.567180

Bonds # ['ID', 'type', 'atom1', 'atom2']

         1         1        47        22
         2         2        29        17
         3         3        17        29
         4         4         1        18
         5         5        27        56
         6         6        67        10
         7         7        80        60
         8         8        56        67
         9         9        29        80
        10        10        24        77
        11        11         2        23
        12        12        39        44
        13        13        30        54
        14        14         5        12
        15        15        80        29
        16        16        80        19
        17        17        19        80
        18        18        54        64
        19        19        58        39
        20        20        41        10
        21        21        10         7
        22        22        62        46
        23        23        59        33
        24        24        77         3
        25        25         9        40
        26        26         3        77
        27        27        14        77
        28        28        77        14
        29        29        39        30
        30        30        29        19
        31        31        19        29
        32        32        17        57
        33        33         9        30
        34        34        18         5
        35        35        46        19
        36        36        57        17
        37        37         3        11
        38        38        51         7
        39        39        18         4
        40        40         7        51
        41        41         4        18
        42        42        28        24
        43        43        28        14
        44        44        14        28
        45        45        57        13
        46        46         2         4
        47        47        10        73
        48        48        43        10
        49        49        23        65
        50        50        36        33
        51        51        33        36
        52        52        54        44
        53        53        24        39
        54        54        51        26
        55        55        59        62
        56        56        80         7
        57        57         8         6
        58        58         1        61
        59        59        61         1
        60        60        60        29
        61        61        26         8
        62        62         8        26
        63        63        58        68
        64        64        44        27
        65        65        28        58
        66        66         1        47
        67        67        59        46
        68        68        60        51
        69        69        23        62
        70        70        68        30
        71        71        29        57
        72        72        43        73
        73        73        34        50
        74        74        47        53
        75        75         4        33
        76        76        15        31
        77        77        26        40
        78        78        20         9
        79        79        54        31
        80        80        31        64
        81        81        40        47
        82        82        59        19
        83        83        53        15
        84        84        31        34
        85        85        60         7
        86        86         7        60
        87        87        65        59
        88        88        27        64
        89        89         9        53
        90        90        25         6
        91        91        25        52
        92        92         9        68
        93        93        44        16
        94        94        53        30
        95        95        27        41
        96        96        24        16
        97        97         6        61
        98        98        30        31
        99        99        68        39
       100       100        60        80
       101       101        26         6
       102       102         6        26
       103       103        16        41
       104       104        24        44
       105       105        14         3
       106       106        36        57
       107       107        22        12
       108       108        36        19
       109       109        19        36
       110       110         2        52
       111       111        56        43
       112       112         5        13
       113       113        15        12
       114       114         1         4
       115       115        65        33
       116       116         4         1
       117       117        56        50
       118       118        43        50
       119       119        51        20
       120       120        17        28
       121       121        61         4
       122       122        11        46
       123       123        23        11
       124       124         7         8
       125       125        52         6
       126       126         1        40
       127       127        20        58
       128       128        50        25
       129       129        67        43
       130       130        41        67
       131       131        77        16
       132       132        60        20
       133       133        22         5
       134       134        17        13
       135       135        13        17
       136       136        34        56
       137       137        64        34
       138       138        51         8
       139       139         8        51
       140       140        73         8
       141       141        13        14
       142       142        17        20
