ITEM: TIMESTEP
0
ITEM: NUMBER OF ATOMS
80
ITEM: BOX BOUNDS pp pp pp
-1.0000000000000000e+01 1.0000000000000000e+01
-1.0000000000000000e+01 1.0000000000000000e+01
-1.0000000000000001e-01 1.0000000000000001e-01
ITEM: ATOMS id type xs ys zs
72 4 0.396028 0.0438032 0.5
9 1 0.499257 0.00677849 0.5
22 2 0.585828 0.0130982 0.5
57 3 0.746894 0.0501656 0.5
63 4 0.764921 0.0235549 0.5
5 1 0.859108 0.0323665 0.5
17 1 0.119121 0.0619315 0.5
40 2 0.432443 0.0707629 0.5
67 4 0.576908 0.0998168 0.5
41 3 0.00970494 0.110958 0.5
18 1 0.082831 0.141361 0.5
51 3 0.221701 0.133684 0.5
58 3 0.0306522 0.171743 0.5
33 2 0.295898 0.164102 0.5
48 3 0.360814 0.199938 0.5
1 1 0.463449 0.192417 0.5
79 4 0.623977 0.184596 0.5
15 1 0.896898 0.171823 0.5
16 1 0.265202 0.249418 0.5
56 3 0.526228 0.314453 0.5
45 3 0.571208 0.295258 0.5
28 2 0.60762 0.266886 0.5
13 1 0.924392 0.264449 0.5
39 2 0.858769 0.330137 0.5
44 3 0.970508 0.321654 0.5
62 4 0.0913554 0.410501 0.5
78 4 0.759826 0.387806 0.5
64 4 0.0347745 0.454246 0.5
43 3 0.0699377 0.443628 0.5
74 4 0.401169 0.45167 0.5
53 3 0.466559 0.451612 0.5
32 2 0.933447 0.446501 0.5
37 2 0.975097 0.455821 0.5
50 3 0.049116 0.492739 0.5
24 2 0.270214 0.480404 0.5
77 4 0.721873 0.522159 0.5
34 2 0.760905 0.525432 0.5
10 1 0.857588 0.482386 0.5
70 4 0.847354 0.48176 0.5
8 1 0.329479 0.561923 0.5
30 2 0.429198 0.532552 0.5
76 4 0.726457 0.57076 0.5
75 4 0.0685186 0.592384 0.5
7 1 0.263913 0.580432 0.5
27 2 0.401834 0.628618 0.5
52 3 0.381366 0.612942 0.5
68 4 0.00366709 0.632846 0.5
66 4 0.183118 0.667525 0.5
29 2 0.405881 0.645801 0.5
31 2 0.552605 0.632104 0.5
12 1 0.666308 0.632249 0.5
19 1 0.00587397 0.723771 0.5
2 1 0.526726 0.690836 0.5
59 3 0.539759 0.723778 0.5
73 4 0.659055 0.735319 0.5
25 2 0.175032 0.760752 0.5
54 3 0.323542 0.765682 0.5
35 2 0.469375 0.782629 0.5
23 2 0.611754 0.751576 0.5
3 1 0.744317 0.73741 0.5
11 1 0.779303 0.749704 0.5
49 3 0.795667 0.783135 0.5
46 3 0.842136 0.788138 0.5
60 3 0.028904 0.78994 0.5
69 4 0.0468136 0.7965 0.5
65 4 0.0961975 0.790873 0.5
47 3 0.469257 0.794176 0.5
55 3 0.955247 0.835285 0.5
6 1 0.425352 0.887681 0.5
38 2 0.566243 0.851503 0.5
14 1 0.772171 0.875929 0.5
21 2 0.88385 0.863621 0.5
4 1 0.0117179 0.942451 0.5
61 4 0.0512253 0.943413 0.5
80 4 0.408396 0.90544 0.5
26 2 0.56732 0.941585 0.5
36 2 0.760629 0.897606 0.5
71 4 0.499077 0.988164 0.5
20 1 0.679893 0.967965 0.5
42 3 0.663352 0.964044 0.5
ITEM: TIMESTEP
10
ITEM: NUMBER OF ATOMS
80
ITEM: BOX BOUNDS pp pp pp
-9.2341660571356687e+00 9.2341660571356687e+00
-9.2341660571356687e+00 9.2341660571356687e+00
-1.0000000000000001e-01 1.0000000000000001e-01
ITEM: ATOMS id type xs ys zs
72 4 0.396012 0.0437915 0.5
9 1 0.499258 0.00692276 0.5
22 2 0.585828 0.0130982 0.5
57 3 0.746872 0.0501986 0.5
63 4 0.764943 0.0235219 0.5
5 1 0.859108 0.0323665 0.5
17 1 0.119121 0.0619315 0.5
40 2 0.432459 0.0707746 0.5
67 4 0.576908 0.0998168 0.5
41 3 0.00970494 0.110958 0.5
18 1 0.0828485 0.141351 0.5
51 3 0.221701 0.133684 0.5
58 3 0.0306347 0.171753 0.5
33 2 0.295898 0.164102 0.5
48 3 0.360814 0.199938 0.5
1 1 0.463449 0.192417 0.5
79 4 0.623977 0.184596 0.5
15 1 0.896898 0.171823 0.5
16 1 0.265202 0.249418 0.5
56 3 0.526222 0.314456 0.5
45 3 0.571179 0.295283 0.5
28 2 0.607655 0.266859 0.5
13 1 0.924392 0.264449 0.5
39 2 0.858769 0.330137 0.5
44 3 0.970508 0.321654 0.5
62 4 0.0913627 0.41049 0.5
78 4 0.759826 0.387806 0.5
64 4 0.0347497 0.454246 0.5
43 3 0.0699527 0.443632 0.5
74 4 0.401169 0.45167 0.5
53 3 0.466559 0.451612 0.5
32 2 0.933365 0.446482 0.5
37 2 0.975179 0.45584 0.5
50 3 0.0491186 0.492746 0.5
24 2 0.270214 0.480404 0.5
77 4 0.721831 0.522155 0.5
34 2 0.760947 0.525436 0.5
10 1 0.857762 0.482396 0.5
70 4 0.84718 0.481749 0.5
8 1 0.329525 0.56191 0.5
30 2 0.429198 0.532552 0.5
76 4 0.726457 0.57076 0.5
75 4 0.0685186 0.592384 0.5
7 1 0.263867 0.580445 0.5
27 2 0.401888 0.628519 0.5
52 3 0.381234 0.61282 0.5
68 4 0.00366709 0.632846 0.5
66 4 0.183118 0.667525 0.5
29 2 0.405959 0.646022 0.5
31 2 0.552619 0.632073 0.5
12 1 0.666308 0.632249 0.5
19 1 0.00587397 0.723771 0.5
2 1 0.526672 0.690764 0.5
59 3 0.539799 0.723881 0.5
73 4 0.659057 0.735318 0.5
25 2 0.175032 0.760752 0.5
54 3 0.323542 0.765682 0.5
35 2 0.469377 0.782459 0.5
23 2 0.611752 0.751576 0.5
3 1 0.744166 0.737357 0.5
11 1 0.779409 0.749663 0.5
49 3 0.795699 0.783227 0.5
46 3 0.842151 0.788139 0.5
60 3 0.028822 0.78991 0.5
69 4 0.0468956 0.79653 0.5
65 4 0.0961975 0.790873 0.5
47 3 0.469255 0.794345 0.5
55 3 0.955247 0.835285 0.5
6 1 0.425437 0.887593 0.5
38 2 0.566243 0.851503 0.5
14 1 0.772255 0.875772 0.5
21 2 0.88385 0.863621 0.5
4 1 0.0116496 0.942449 0.5
61 4 0.0512936 0.943415 0.5
80 4 0.408311 0.905529 0.5
26 2 0.56732 0.941585 0.5
36 2 0.760546 0.897763 0.5
71 4 0.499076 0.988019 0.5
20 1 0.680066 0.968006 0.5
42 3 0.663179 0.964003 0.5
ITEM: TIMESTEP
20
ITEM: NUMBER OF ATOMS
80
ITEM: BOX BOUNDS pp pp pp
-8.2941503239641108e+00 8.2941503239641108e+00
-8.2941503239641108e+00 8.2941503239641108e+00
-1.0000000000000001e-01 1.0000000000000001e-01
ITEM: ATOMS id type xs ys zs
72 4 0.395938 0.0437365 0.5
9 1 0.499263 0.00743743 0.5
22 2 0.585829 0.0131 0.5
57 3 0.746784 0.0503279 0.5
63 4 0.765031 0.0233926 0.5
5 1 0.859108 0.0323665 0.5
17 1 0.119125 0.0619221 0.5
40 2 0.432533 0.0708296 0.5
67 4 0.576908 0.0998168 0.5
41 3 0.00970494 0.110958 0.5
18 1 0.0829323 0.141309 0.5
51 3 0.221701 0.133684 0.5
58 3 0.0305466 0.171804 0.5
33 2 0.295898 0.164102 0.5
48 3 0.360814 0.199938 0.5
1 1 0.463449 0.192417 0.5
79 4 0.623977 0.184596 0.5
15 1 0.896898 0.171823 0.5
16 1 0.265202 0.249418 0.5
56 3 0.526177 0.314475 0.5
45 3 0.571083 0.295374 0.5
28 2 0.607796 0.266749 0.5
13 1 0.924391 0.264447 0.5
39 2 0.858769 0.330137 0.5
44 3 0.970509 0.321655 0.5
62 4 0.0913991 0.410433 0.5
78 4 0.759826 0.387806 0.5
64 4 0.0346372 0.454231 0.5
43 3 0.0700166 0.44365 0.5
74 4 0.401169 0.45167 0.5
53 3 0.466559 0.451612 0.5
32 2 0.933056 0.446412 0.5
37 2 0.97549 0.455909 0.5
50 3 0.0491307 0.4928 0.5
24 2 0.270214 0.480404 0.5
77 4 0.721665 0.522141 0.5
34 2 0.761114 0.525449 0.5
10 1 0.858377 0.482435 0.5
70 4 0.846564 0.481712 0.5
8 1 0.329715 0.561852 0.5
30 2 0.429198 0.532552 0.5
76 4 0.726457 0.570761 0.5
75 4 0.0685186 0.592384 0.5
7 1 0.263674 0.580499 0.5
27 2 0.402087 0.628171 0.5
52 3 0.380754 0.612372 0.5
68 4 0.00366709 0.632846 0.5
66 4 0.183118 0.667525 0.5
29 2 0.406243 0.646821 0.5
31 2 0.552681 0.631933 0.5
12 1 0.666308 0.632249 0.5
19 1 0.00587007 0.723759 0.5
2 1 0.52646 0.690526 0.5
59 3 0.539949 0.724259 0.5
73 4 0.65909 0.735307 0.5
25 2 0.175032 0.760752 0.5
54 3 0.323542 0.765682 0.5
35 2 0.469383 0.781858 0.5
23 2 0.611719 0.751588 0.5
3 1 0.743606 0.737155 0.5
11 1 0.779786 0.749506 0.5
49 3 0.795804 0.783576 0.5
46 3 0.842228 0.788148 0.5
60 3 0.0285296 0.789813 0.5
69 4 0.047192 0.796639 0.5
65 4 0.0961975 0.790873 0.5
47 3 0.469249 0.794946 0.5
55 3 0.955247 0.835285 0.5
6 1 0.425742 0.887273 0.5
38 2 0.566243 0.851503 0.5
14 1 0.772553 0.875211 0.5
21 2 0.88385 0.863621 0.5
4 1 0.0113899 0.942443 0.5
61 4 0.0515532 0.943421 0.5
80 4 0.408005 0.905849 0.5
26 2 0.567319 0.941583 0.5
36 2 0.760247 0.898325 0.5
71 4 0.499071 0.987505 0.5
20 1 0.680681 0.968152 0.5
42 3 0.662565 0.963857 0.5
ITEM: TIMESTEP
30
ITEM: NUMBER OF ATOMS
80
ITEM: BOX BOUNDS pp pp pp
-7.5830048503512177e+00 7.5830048503512177e+00
-7.5830048503512177e+00 7.5830048503512177e+00
-1.0000000000000001e-01 1.0000000000000001e-01
ITEM: ATOMS id type xs ys zs
72 4 0.395759 0.0436042 0.5
9 1 0.499261 0.00843195 0.5
22 2 0.58585 0.0131355 0.5
57 3 0.746599 0.0506011 0.5
63 4 0.765216 0.0231195 0.5
5 1 0.859108 0.0323665 0.5
17 1 0.119159 0.0618485 0.5
40 2 0.432711 0.0709627 0.5
67 4 0.576908 0.0998168 0.5
41 3 0.0096995 0.110956 0.5
18 1 0.083126 0.141255 0.5
51 3 0.221701 0.133684 0.5
58 3 0.0303249 0.171933 0.5
33 2 0.295899 0.1641 0.5
48 3 0.360814 0.199938 0.5
1 1 0.463449 0.192417 0.5
79 4 0.623977 0.184596 0.5
15 1 0.896895 0.171814 0.5
16 1 0.265201 0.24942 0.5
56 3 0.526043 0.314532 0.5
45 3 0.570911 0.295555 0.5
28 2 0.608102 0.26651 0.5
13 1 0.924369 0.264426 0.5
39 2 0.858769 0.330137 0.5
44 3 0.970534 0.321686 0.5
62 4 0.091491 0.410291 0.5
78 4 0.759826 0.387806 0.5
64 4 0.0343839 0.454172 0.5
43 3 0.0701694 0.443667 0.5
74 4 0.401169 0.45167 0.5
53 3 0.466559 0.451612 0.5
32 2 0.932456 0.446255 0.5
37 2 0.976109 0.456051 0.5
50 3 0.0491519 0.492983 0.5
24 2 0.270214 0.480404 0.5
77 4 0.721308 0.522111 0.5
34 2 0.761487 0.525458 0.5
10 1 0.859523 0.482523 0.5
70 4 0.845385 0.481639 0.5
8 1 0.330112 0.561691 0.5
30 2 0.429198 0.532552 0.5
76 4 0.726441 0.570782 0.5
75 4 0.0685186 0.592384 0.5
7 1 0.263238 0.580622 0.5
27 2 0.402491 0.627505 0.5
52 3 0.37983 0.611513 0.5
68 4 0.00366709 0.632846 0.5
66 4 0.183118 0.667525 0.5
29 2 0.406803 0.648385 0.5
31 2 0.552827 0.631604 0.5
12 1 0.666308 0.632249 0.5
19 1 0.00584481 0.723686 0.5
2 1 0.526014 0.690103 0.5
59 3 0.540249 0.725011 0.5
73 4 0.659202 0.735268 0.5
25 2 0.175032 0.760752 0.5
54 3 0.323542 0.765682 0.5
35 2 0.469395 0.780706 0.5
23 2 0.611607 0.751626 0.5
3 1 0.742466 0.736727 0.5
11 1 0.780497 0.749161 0.5
49 3 0.796007 0.784309 0.5
46 3 0.842454 0.788189 0.5
60 3 0.0279736 0.789674 0.5
69 4 0.0477732 0.796852 0.5
65 4 0.0961975 0.790873 0.5
47 3 0.469237 0.796099 0.5
55 3 0.955247 0.835285 0.5
6 1 0.426339 0.886647 0.5
38 2 0.566243 0.851503 0.5
14 1 0.773132 0.874124 0.5
21 2 0.88385 0.863621 0.5
4 1 0.010856 0.94243 0.5
61 4 0.0520871 0.943434 0.5
80 4 0.407408 0.906474 0.5
26 2 0.56731 0.941548 0.5
36 2 0.759668 0.899412 0.5
71 4 0.499061 0.986509 0.5
20 1 0.681863 0.968432 0.5
42 3 0.661383 0.963576 0.5
ITEM: TIMESTEP
40
ITEM: NUMBER OF ATOMS
80
ITEM: BOX BOUNDS pp pp pp
-7.0788670638131421e+00 7.0788670638131421e+00
-7.0788670638131421e+00 7.0788670638131421e+00
-1.0000000000000001e-01 1.0000000000000001e-01
ITEM: ATOMS id type xs ys zs
72 4 0.395432 0.0433616 0.5
9 1 0.499216 0.00997767 0.5
22 2 0.585961 0.0132633 0.5
57 3 0.746288 0.0510609 0.5
63 4 0.765527 0.0226596 0.5
5 1 0.859108 0.0323665 0.5
17 1 0.119253 0.0616405 0.5
40 2 0.433015 0.071228 0.5
67 4 0.576908 0.0998168 0.5
41 3 0.00964748 0.110924 0.5
18 1 0.0834962 0.141241 0.5
51 3 0.221701 0.133684 0.5
58 3 0.0299122 0.172188 0.5
33 2 0.295899 0.164057 0.5
48 3 0.360827 0.199946 0.5
1 1 0.463449 0.192417 0.5
79 4 0.623977 0.184596 0.5
15 1 0.896874 0.171741 0.5
16 1 0.265188 0.249456 0.5
56 3 0.52577 0.314648 0.5
45 3 0.570659 0.295849 0.5
28 2 0.608627 0.266101 0.5
13 1 0.924322 0.264378 0.5
39 2 0.858753 0.330152 0.5
44 3 0.970618 0.321791 0.5
62 4 0.0916638 0.410022 0.5
78 4 0.759826 0.387806 0.5
64 4 0.0339721 0.454041 0.5
43 3 0.0704512 0.443667 0.5
74 4 0.401169 0.45167 0.5
53 3 0.466559 0.451612 0.5
32 2 0.93155 0.445958 0.5
37 2 0.977076 0.456285 0.5
50 3 0.0491793 0.493381 0.5
24 2 0.270214 0.480404 0.5
77 4 0.720701 0.52206 0.5
34 2 0.76215 0.525435 0.5
10 1 0.86123 0.482701 0.5
70 4 0.843547 0.481526 0.5
8 1 0.33075 0.561348 0.5
30 2 0.429198 0.532552 0.5
76 4 0.726384 0.570855 0.5
75 4 0.0685186 0.592384 0.5
7 1 0.262473 0.580839 0.5
27 2 0.403161 0.626463 0.5
52 3 0.378403 0.610201 0.5
68 4 0.00366709 0.632846 0.5
66 4 0.183118 0.667525 0.5
29 2 0.407687 0.650865 0.5
31 2 0.553095 0.631009 0.5
12 1 0.666308 0.632249 0.5
19 1 0.0057778 0.723487 0.5
2 1 0.525262 0.689487 0.5
59 3 0.540727 0.726219 0.5
73 4 0.659442 0.735186 0.5
25 2 0.175032 0.760752 0.5
54 3 0.323542 0.765682 0.5
35 2 0.469413 0.778907 0.5
23 2 0.611373 0.751711 0.5
3 1 0.740592 0.736007 0.5
11 1 0.781574 0.748537 0.5
49 3 0.79632 0.785545 0.5
46 3 0.842939 0.788296 0.5
60 3 0.0271158 0.789535 0.5
69 4 0.0486978 0.797189 0.5
65 4 0.0961977 0.790873 0.5
47 3 0.469218 0.797897 0.5
55 3 0.95525 0.835284 0.5
6 1 0.427287 0.885655 0.5
38 2 0.566243 0.851503 0.5
14 1 0.774044 0.872411 0.5
21 2 0.883846 0.863622 0.5
4 1 0.00997476 0.942408 0.5
61 4 0.0529684 0.943456 0.5
80 4 0.406461 0.907467 0.5
26 2 0.567284 0.941419 0.5
36 2 0.758756 0.901125 0.5
71 4 0.499046 0.984942 0.5
20 1 0.683716 0.968872 0.5
42 3 0.65953 0.963137 0.5
ITEM: TIMESTEP
50
ITEM: NUMBER OF ATOMS
80
ITEM: BOX BOUNDS pp pp pp
-6.7259089632201308e+00 6.7259089632201308e+00
-6.7259089632201308e+00 6.7259089632201308e+00
-1.0000000000000001e-01 1.0000000000000001e-01
ITEM: ATOMS id type xs ys zs
72 4 0.394924 0.0429857 0.5
9 1 0.499091 0.0120911 0.5
22 2 0.586229 0.0135337 0.5
57 3 0.745832 0.0517329 0.5
63 4 0.765983 0.0219876 0.5
5 1 0.859108 0.0323665 0.5
17 1 0.119435 0.061237 0.5
40 2 0.43343 0.0716888 0.5
67 4 0.576908 0.0998168 0.5
41 3 0.009496 0.110814 0.5
18 1 0.0841037 0.141318 0.5
51 3 0.221692 0.133681 0.5
58 3 0.0292737 0.172625 0.5
33 2 0.295893 0.16391 0.5
48 3 0.360885 0.199978 0.5
1 1 0.463449 0.192417 0.5
79 4 0.623977 0.184596 0.5
15 1 0.896816 0.171546 0.5
16 1 0.265146 0.249574 0.5
56 3 0.525316 0.31484 0.5
45 3 0.570334 0.296265 0.5
28 2 0.609406 0.265492 0.5
13 1 0.924269 0.264288 0.5
39 2 0.858687 0.330218 0.5
44 3 0.970795 0.32201 0.5
62 4 0.0919364 0.409595 0.5
78 4 0.759826 0.387806 0.5
64 4 0.0334066 0.453813 0.5
43 3 0.0708913 0.443638 0.5
74 4 0.401169 0.45167 0.5
53 3 0.466559 0.451612 0.5
32 2 0.930359 0.445474 0.5
37 2 0.978378 0.456623 0.5
50 3 0.0492158 0.494061 0.5
24 2 0.270207 0.48038 0.5
77 4 0.719808 0.521982 0.5
34 2 0.763164 0.525354 0.5
10 1 0.863465 0.483009 0.5
70 4 0.841018 0.481368 0.5
8 1 0.331617 0.560744 0.5
30 2 0.429205 0.53255 0.5
76 4 0.726264 0.571015 0.5
75 4 0.0685186 0.592384 0.5
7 1 0.261317 0.58118 0.5
27 2 0.404166 0.625042 0.5
52 3 0.376471 0.608458 0.5
68 4 0.00366709 0.632846 0.5
66 4 0.183118 0.667525 0.5
29 2 0.408902 0.654319 0.5
31 2 0.553513 0.630094 0.5
12 1 0.666308 0.632249 0.5
19 1 0.00565278 0.72311 0.5
2 1 0.524152 0.688691 0.5
59 3 0.541372 0.727912 0.5
73 4 0.659838 0.735047 0.5
25 2 0.175032 0.760752 0.5
54 3 0.323542 0.765682 0.5
35 2 0.469437 0.776432 0.5
23 2 0.611017 0.751867 0.5
3 1 0.737911 0.734966 0.5
11 1 0.783021 0.74756 0.5
49 3 0.796737 0.78734 0.5
46 3 0.843769 0.788501 0.5
60 3 0.0259456 0.789442 0.5
69 4 0.049981 0.797661 0.5
65 4 0.0962097 0.790871 0.5
47 3 0.469193 0.800374 0.5
55 3 0.955283 0.835271 0.5
6 1 0.428609 0.88427 0.5
38 2 0.566243 0.851488 0.5
14 1 0.775304 0.870055 0.5
21 2 0.883813 0.863635 0.5
4 1 0.00870573 0.942377 0.5
61 4 0.0542374 0.943486 0.5
80 4 0.405138 0.908852 0.5
26 2 0.567251 0.941137 0.5
36 2 0.757503 0.903489 0.5
71 4 0.499027 0.98277 0.5
20 1 0.686262 0.969489 0.5
42 3 0.656971 0.962531 0.5
ITEM: TIMESTEP
60
ITEM: NUMBER OF ATOMS
80
ITEM: BOX BOUNDS pp pp pp
-6.4723576445021722e+00 6.4723576445021722e+00
-6.4723576445021722e+00 6.4723576445021722e+00
-1.0000000000000001e-01 1.0000000000000001e-01
ITEM: ATOMS id type xs ys zs
72 4 0.394219 0.0424623 0.5
9 1 0.498864 0.0147588 0.5
22 2 0.586707 0.0139833 0.5
57 3 0.745225 0.0526293 0.5
63 4 0.76659 0.0210913 0.5
5 1 0.859108 0.0323665 0.5
17 1 0.119725 0.0605906 0.5
40 2 0.433935 0.0723966 0.5
67 4 0.576908 0.0998168 0.5
41 3 0.00920455 0.110587 0.5
18 1 0.0849912 0.141532 0.5
51 3 0.221647 0.133662 0.5
58 3 0.0283879 0.173284 0.5
33 2 0.295892 0.163613 0.5
48 3 0.361018 0.200051 0.5
1 1 0.463449 0.192417 0.5
79 4 0.623977 0.184596 0.5
15 1 0.896708 0.171181 0.5
16 1 0.265059 0.249816 0.5
56 3 0.52465 0.315119 0.5
45 3 0.569947 0.296809 0.5
28 2 0.610459 0.264669 0.5
13 1 0.924229 0.264142 0.5
39 2 0.858542 0.330365 0.5
44 3 0.971089 0.322375 0.5
62 4 0.0923217 0.408987 0.5
78 4 0.759826 0.387806 0.5
64 4 0.0327053 0.45347 0.5
43 3 0.0715084 0.443575 0.5
74 4 0.401169 0.45167 0.5
53 3 0.466559 0.451612 0.5
32 2 0.928919 0.444758 0.5
37 2 0.979962 0.457058 0.5
50 3 0.0492863 0.495083 0.5
24 2 0.270176 0.480271 0.5
77 4 0.718609 0.521862 0.5
34 2 0.764561 0.525197 0.5
10 1 0.866167 0.483488 0.5
70 4 0.837801 0.481162 0.5
8 1 0.332655 0.559828 0.5
30 2 0.429257 0.532526 0.5
76 4 0.726067 0.571291 0.5
75 4 0.0685186 0.592384 0.5
7 1 0.259735 0.581691 0.5
27 2 0.405571 0.62327 0.5
52 3 0.374063 0.606347 0.5
68 4 0.00366709 0.632846 0.5
66 4 0.183118 0.667525 0.5
29 2 0.410428 0.65874 0.5
31 2 0.554107 0.628822 0.5
12 1 0.666305 0.632252 0.5
19 1 0.00545925 0.722512 0.5
2 1 0.52266 0.687707 0.5
59 3 0.542154 0.730088 0.5
73 4 0.660372 0.734842 0.5
25 2 0.175032 0.760752 0.5
54 3 0.323542 0.765682 0.5
35 2 0.469449 0.773312 0.5
23 2 0.610557 0.752122 0.5
3 1 0.73444 0.733603 0.5
11 1 0.784835 0.746168 0.5
49 3 0.797241 0.789674 0.5
46 3 0.845008 0.788817 0.5
60 3 0.0244665 0.789439 0.5
69 4 0.0516033 0.79827 0.5
65 4 0.0962601 0.790864 0.5
47 3 0.469173 0.803499 0.5
55 3 0.955376 0.835234 0.5
6 1 0.430299 0.882512 0.5
38 2 0.566242 0.851422 0.5
14 1 0.776893 0.867114 0.5
21 2 0.883729 0.863677 0.5
4 1 0.0070322 0.942337 0.5
61 4 0.055911 0.943527 0.5
80 4 0.403436 0.910634 0.5
26 2 0.567222 0.940681 0.5
36 2 0.755953 0.906466 0.5
71 4 0.499005 0.979992 0.5
20 1 0.689456 0.970327 0.5
42 3 0.653711 0.961756 0.5
ITEM: TIMESTEP
70
ITEM: NUMBER OF ATOMS
80
ITEM: BOX BOUNDS pp pp pp
-6.3027288368481047e+00 6.3027288368481047e+00
-6.3027288368481047e+00 6.3027288368481047e+00
-1.0000000000000001e-01 1.0000000000000001e-01
ITEM: ATOMS id type xs ys zs
72 4 0.39331 0.0417866 0.5
9 1 0.49853 0.0179304 0.5
22 2 0.587408 0.0146468 0.5
57 3 0.744474 0.053756 0.5
63 4 0.767348 0.0199735 0.5
5 1 0.859108 0.0323665 0.5
17 1 0.120133 0.0596703 0.5
40 2 0.434495 0.0733871 0.5
67 4 0.576908 0.0998168 0.5
41 3 0.0087487 0.110217 0.5
18 1 0.0861793 0.141917 0.5
51 3 0.221542 0.13362 0.5
58 3 0.0272475 0.174189 0.5
33 2 0.295909 0.163135 0.5
48 3 0.361247 0.200179 0.5
1 1 0.463449 0.192417 0.5
79 4 0.623977 0.184596 0.5
15 1 0.896539 0.170611 0.5
16 1 0.264918 0.25021 0.5
56 3 0.523753 0.315493 0.5
45 3 0.569515 0.297478 0.5
28 2 0.611788 0.263626 0.5
13 1 0.924218 0.263931 0.5
39 2 0.858293 0.330615 0.5
44 3 0.971517 0.322906 0.5
62 4 0.0928251 0.408185 0.5
78 4 0.759826 0.387806 0.5
64 4 0.0318987 0.452999 0.5
43 3 0.0723094 0.443478 0.5
74 4 0.401166 0.45167 0.5
53 3 0.466563 0.45161 0.5
32 2 0.927282 0.443772 0.5
37 2 0.981751 0.45758 0.5
50 3 0.049417 0.496481 0.5
24 2 0.270103 0.480025 0.5
77 4 0.717105 0.521689 0.5
34 2 0.766336 0.524957 0.5
10 1 0.869262 0.484171 0.5
70 4 0.833942 0.480908 0.5
8 1 0.333794 0.558564 0.5
30 2 0.429402 0.532435 0.5
76 4 0.7258 0.571689 0.5
75 4 0.0685186 0.592384 0.5
7 1 0.257719 0.582402 0.5
27 2 0.407408 0.621219 0.5
52 3 0.371239 0.603972 0.5
68 4 0.00366706 0.632844 0.5
66 4 0.183118 0.667525 0.5
29 2 0.412219 0.664057 0.5
31 2 0.554887 0.627183 0.5
12 1 0.666281 0.63226 0.5
19 1 0.00519288 0.721664 0.5
2 1 0.520784 0.686515 0.5
59 3 0.54306 0.732704 0.5
73 4 0.661001 0.734568 0.5
25 2 0.175032 0.760752 0.5
54 3 0.323542 0.765682 0.5
35 2 0.469399 0.769648 0.5
23 2 0.610033 0.752498 0.5
3 1 0.730269 0.73196 0.5
11 1 0.787005 0.744303 0.5
49 3 0.797798 0.792482 0.5
46 3 0.846677 0.78923 0.5
60 3 0.0226972 0.789563 0.5
69 4 0.053524 0.799012 0.5
65 4 0.096375 0.790846 0.5
47 3 0.469186 0.807172 0.5
55 3 0.955551 0.835165 0.5
6 1 0.432308 0.880459 0.5
38 2 0.566241 0.851273 0.5
14 1 0.778739 0.86371 0.5
21 2 0.883611 0.86378 0.5
4 1 0.00496351 0.942286 0.5
61 4 0.0579797 0.943578 0.5
80 4 0.401376 0.912792 0.5
26 2 0.567195 0.940045 0.5
36 2 0.754175 0.909968 0.5
71 4 0.498982 0.976645 0.5
20 1 0.693199 0.971413 0.5
42 3 0.64982 0.960808 0.5
ITEM: TIMESTEP
80
ITEM: NUMBER OF ATOMS
80
ITEM: BOX BOUNDS pp pp pp
-6.2096703550904619e+00 6.2096703550904619e+00
-6.2096703550904619e+00 6.2096703550904619e+00
-1.0000000000000001e-01 1.0000000000000001e-01
ITEM: ATOMS id type xs ys zs
72 4 0.392212 0.0409657 0.5
9 1 0.498105 0.0215124 0.5
22 2 0.588318 0.0155471 0.5
57 3 0.743608 0.0551205 0.5
63 4 0.768258 0.0186646 0.5
5 1 0.859108 0.0323666 0.5
17 1 0.12066 0.0584662 0.5
40 2 0.435072 0.0746745 0.5
67 4 0.576908 0.0998168 0.5
41 3 0.00812378 0.109695 0.5
18 1 0.0876623 0.142494 0.5
51 3 0.22136 0.133547 0.5
58 3 0.0258631 0.175338 0.5
33 2 0.295955 0.162461 0.5
48 3 0.361577 0.200367 0.5
1 1 0.463455 0.192416 0.5
79 4 0.623977 0.184595 0.5
15 1 0.896305 0.16982 0.5
16 1 0.264718 0.250768 0.5
56 3 0.522622 0.31596 0.5
45 3 0.569057 0.29826 0.5
28 2 0.613376 0.262379 0.5
13 1 0.92425 0.263654 0.5
39 2 0.85793 0.33098 0.5
44 3 0.972082 0.323608 0.5
62 4 0.0934432 0.407188 0.5
78 4 0.759826 0.387806 0.5
64 4 0.0310295 0.452398 0.5
43 3 0.0732885 0.443359 0.5
74 4 0.401149 0.45167 0.5
53 3 0.466588 0.451594 0.5
32 2 0.925511 0.442487 0.5
37 2 0.983653 0.458179 0.5
50 3 0.0496262 0.498254 0.5
24 2 0.269976 0.479611 0.5
77 4 0.715322 0.521463 0.5
34 2 0.768445 0.524643 0.5
10 1 0.872648 0.485086 0.5
70 4 0.829533 0.480604 0.5
8 1 0.334956 0.55693 0.5
30 2 0.429672 0.532247 0.5
76 4 0.725479 0.572197 0.5
75 4 0.0685186 0.592384 0.5
7 1 0.255292 0.583323 0.5
27 2 0.409676 0.618979 0.5
52 3 0.368096 0.601475 0.5
68 4 0.00366676 0.632826 0.5
66 4 0.183118 0.667525 0.5
29 2 0.414178 0.670119 0.5
31 2 0.555838 0.625191 0.5
12 1 0.666218 0.632251 0.5
19 1 0.00485772 0.720574 0.5
2 1 0.518579 0.685115 0.5
59 3 0.544073 0.73569 0.5
73 4 0.661671 0.73423 0.5
25 2 0.175032 0.760752 0.5
54 3 0.323542 0.765682 0.5
35 2 0.469231 0.765582 0.5
23 2 0.609486 0.753008 0.5
3 1 0.725571 0.73013 0.5
11 1 0.7895 0.741927 0.5
49 3 0.798369 0.795649 0.5
46 3 0.848773 0.789704 0.5
60 3 0.0206751 0.789844 0.5
69 4 0.0556806 0.799874 0.5
65 4 0.0965763 0.790811 0.5
47 3 0.469264 0.811246 0.5
55 3 0.955822 0.835057 0.5
6 1 0.434561 0.878215 0.5
38 2 0.566238 0.851018 0.5
14 1 0.780732 0.860035 0.5
21 2 0.883495 0.863972 0.5
4 1 0.00254017 0.942227 0.5
61 4 0.060403 0.943637 0.5
80 4 0.399004 0.915276 0.5
26 2 0.567143 0.939234 0.5
36 2 0.752255 0.913864 0.5
71 4 0.49895 0.972812 0.5
20 1 0.697324 0.972736 0.5
42 3 0.645453 0.959693 0.5
ITEM: TIMESTEP
90
ITEM: NUMBER OF ATOMS
80
ITEM: BOX BOUNDS pp pp pp
-6.1835281057685858e+00 6.1835281057685858e+00
-6.1835281057685858e+00 6.1835281057685858e+00
-1.0000000000000001e-01 1.0000000000000001e-01
ITEM: ATOMS id type xs ys zs
72 4 0.390951 0.0400181 0.5
9 1 0.497626 0.0253747 0.5
22 2 0.589411 0.0166832 0.5
57 3 0.742665 0.0567118 0.5
63 4 0.769321 0.0172201 0.5
5 1 0.859113 0.0323673 0.5
17 1 0.121293 0.0569916 0.5
40 2 0.435619 0.0762499 0.5
67 4 0.576908 0.0998168 0.5
41 3 0.00734599 0.109031 0.5
18 1 0.0894063 0.143267 0.5
51 3 0.221094 0.133441 0.5
58 3 0.0242633 0.176704 0.5
33 2 0.296035 0.161598 0.5
48 3 0.361998 0.200618 0.5
1 1 0.463476 0.192415 0.5
79 4 0.623979 0.18458 0.5
15 1 0.896005 0.168809 0.5
16 1 0.264461 0.251487 0.5
56 3 0.521271 0.316511 0.5
45 3 0.568599 0.299136 0.5
28 2 0.615184 0.260967 0.5
13 1 0.924331 0.263316 0.5
39 2 0.857453 0.331462 0.5
44 3 0.972779 0.324475 0.5
62 4 0.094164 0.406009 0.5
78 4 0.759826 0.387806 0.5
64 4 0.0301488 0.451674 0.5
43 3 0.0744337 0.44323 0.5
74 4 0.401111 0.45167 0.5
53 3 0.466644 0.451553 0.5
32 2 0.923671 0.440885 0.5
37 2 0.985579 0.458839 0.5
50 3 0.0499225 0.500369 0.5
24 2 0.269788 0.479026 0.5
77 4 0.713311 0.52119 0.5
34 2 0.770795 0.524283 0.5
10 1 0.876194 0.486256 0.5
70 4 0.824729 0.480239 0.5
8 1 0.336073 0.554924 0.5
30 2 0.430087 0.531942 0.5
76 4 0.725122 0.57279 0.5
75 4 0.0685186 0.592384 0.5
7 1 0.252512 0.584441 0.5
27 2 0.412337 0.616648 0.5
52 3 0.364755 0.599018 0.5
68 4 0.00366602 0.632775 0.5
66 4 0.183118 0.667525 0.5
29 2 0.416167 0.676709 0.5
31 2 0.556935 0.622888 0.5
12 1 0.666106 0.632201 0.5
19 1 0.00446495 0.719269 0.5
2 1 0.516153 0.683528 0.5
59 3 0.545165 0.738955 0.5
73 4 0.662319 0.73384 0.5
25 2 0.175032 0.760752 0.5
54 3 0.323542 0.765682 0.5
35 2 0.468903 0.761275 0.5
23 2 0.608947 0.753644 0.5
3 1 0.720564 0.728225 0.5
11 1 0.792272 0.739049 0.5
49 3 0.798906 0.799021 0.5
46 3 0.851269 0.790188 0.5
60 3 0.0184615 0.790289 0.5
69 4 0.0579939 0.800836 0.5
65 4 0.0968789 0.790754 0.5
47 3 0.469437 0.815543 0.5
55 3 0.956185 0.834916 0.5
6 1 0.436961 0.875901 0.5
38 2 0.566234 0.850645 0.5
14 1 0.782741 0.8563 0.5
21 2 0.883408 0.864276 0.5
4 1 -0.000169343 0.942161 0.5
61 4 0.0631125 0.943703 0.5
80 4 0.396388 0.918013 0.5
26 2 0.567036 0.938268 0.5
36 2 0.750288 0.917994 0.5
71 4 0.498896 0.968616 0.5
20 1 0.701622 0.974262 0.5
42 3 0.640798 0.958429 0.5
ITEM: TIMESTEP
100
ITEM: NUMBER OF ATOMS
80
ITEM: BOX BOUNDS pp pp pp
-6.2092792342575560e+00 6.2092792342575560e+00
-6.2092792342575560e+00 6.2092792342575560e+00
-1.0000000000000001e-01 1.0000000000000001e-01
ITEM: ATOMS id type xs ys zs
72 4 0.389567 0.0389703 0.5
9 1 0.497142 0.0293702 0.5
22 2 0.590649 0.0180361 0.5
57 3 0.741681 0.0585015 0.5
63 4 0.770527 0.0157012 0.5
5 1 0.859131 0.0323703 0.5
17 1 0.122015 0.0552775 0.5
40 2 0.436095 0.0780862 0.5
67 4 0.576908 0.0998168 0.5
41 3 0.00644816 0.108251 0.5
18 1 0.0913571 0.144221 0.5
51 3 0.220746 0.133304 0.5
58 3 0.0224882 0.178243 0.5
33 2 0.296151 0.160568 0.5
48 3 0.362493 0.200928 0.5
1 1 0.46352 0.192411 0.5
79 4 0.623984 0.184538 0.5
15 1 0.895645 0.167597 0.5
16 1 0.264155 0.252348 0.5
56 3 0.519724 0.317134 0.5
45 3 0.568163 0.300082 0.5
28 2 0.617162 0.25944 0.5
13 1 0.92446 0.262928 0.5
39 2 0.856872 0.33205 0.5
44 3 0.973591 0.325487 0.5
62 4 0.0949699 0.404669 0.5
78 4 0.759826 0.387806 0.5
64 4 0.0293091 0.450839 0.5
43 3 0.0757208 0.443112 0.5
74 4 0.401051 0.451671 0.5
53 3 0.466735 0.451484 0.5
32 2 0.921818 0.438962 0.5
37 2 0.987448 0.459551 0.5
50 3 0.0503038 0.502764 0.5
24 2 0.269537 0.478286 0.5
77 4 0.711137 0.520884 0.5
34 2 0.773279 0.523923 0.5
10 1 0.879768 0.487698 0.5
70 4 0.819706 0.479792 0.5
8 1 0.337094 0.55256 0.5
30 2 0.430649 0.531508 0.5
76 4 0.724748 0.573433 0.5
75 4 0.0685186 0.592384 0.5
7 1 0.249459 0.585722 0.5
27 2 0.415324 0.614317 0.5
52 3 0.361332 0.596753 0.5
68 4 0.00366488 0.632679 0.5
66 4 0.183118 0.667525 0.5
29 2 0.418046 0.683574 0.5
31 2 0.558148 0.620329 0.5
12 1 0.665937 0.632087 0.5
19 1 0.00402937 0.717789 0.5
2 1 0.513628 0.681784 0.5
59 3 0.546295 0.74241 0.5
73 4 0.662887 0.733416 0.5
25 2 0.175032 0.760752 0.5
54 3 0.323542 0.765682 0.5
35 2 0.468412 0.756917 0.5
23 2 0.608426 0.754387 0.5
3 1 0.715484 0.726343 0.5
11 1 0.795261 0.735725 0.5
49 3 0.799381 0.802433 0.5
46 3 0.854105 0.790638 0.5
60 3 0.0161313 0.790888 0.5
69 4 0.0603819 0.801875 0.5
65 4 0.09729 0.790669 0.5
47 3 0.46973 0.819885 0.5
55 3 0.956615 0.834754 0.5
6 1 0.439406 0.873638 0.5
38 2 0.566229 0.850153 0.5
14 1 0.784651 0.852695 0.5
21 2 0.883373 0.864702 0.5
4 1 -0.00308111 0.94209 0.5
61 4 0.0660243 0.943774 0.5
80 4 0.39361 0.92092 0.5
26 2 0.56684 0.93719 0.5
36 2 0.748361 0.92219 0.5
71 4 0.498808 0.96419 0.5
20 1 0.705895 0.975956 0.5
42 3 0.636042 0.957045 0.5
ITEM: TIMESTEP
110
ITEM: NUMBER OF ATOMS
80
ITEM: BOX BOUNDS pp pp pp
-6.2656096582589429e+00 6.2656096582589429e+00
-6.2656096582589429e+00 6.2656096582589429e+00
-1.0000000000000001e-01 1.0000000000000001e-01
ITEM: ATOMS id type xs ys zs
72 4 0.388099 0.0378506 0.5
9 1 0.496707 0.0333595 0.5
22 2 0.591995 0.019575 0.5
57 3 0.740686 0.060453 0.5
63 4 0.77186 0.0141647 0.5
5 1 0.859165 0.0323762 0.5
17 1 0.122805 0.0533636 0.5
40 2 0.436461 0.0801475 0.5
67 4 0.576908 0.0998168 0.5
41 3 0.00547161 0.107392 0.5
18 1 0.0934517 0.145335 0.5
51 3 0.220323 0.133141 0.5
58 3 0.0205809 0.179903 0.5
33 2 0.296302 0.159403 0.5
48 3 0.363046 0.201288 0.5
1 1 0.463586 0.192406 0.5
79 4 0.623993 0.184461 0.5
15 1 0.895232 0.166212 0.5
16 1 0.263809 0.253322 0.5
56 3 0.518011 0.317814 0.5
45 3 0.567769 0.301074 0.5
28 2 0.619261 0.257844 0.5
13 1 0.924636 0.262504 0.5
39 2 0.856203 0.332727 0.5
44 3 0.974497 0.32662 0.5
62 4 0.0958423 0.403193 0.5
78 4 0.759826 0.387806 0.5
64 4 0.0285573 0.449908 0.5
43 3 0.0771165 0.443024 0.5
74 4 0.400974 0.451671 0.5
53 3 0.466857 0.451386 0.5
32 2 0.919991 0.436723 0.5
37 2 0.989198 0.46031 0.5
50 3 0.0507612 0.505365 0.5
24 2 0.269224 0.477425 0.5
77 4 0.708864 0.520563 0.5
34 2 0.775798 0.523606 0.5
10 1 0.883268 0.489418 0.5
70 4 0.814616 0.479245 0.5
8 1 0.337993 0.549862 0.5
30 2 0.431354 0.530942 0.5
76 4 0.724375 0.574089 0.5
75 4 0.0685186 0.592384 0.5
7 1 0.246216 0.587118 0.5
27 2 0.418558 0.612062 0.5
52 3 0.357903 0.594766 0.5
68 4 0.00366354 0.632534 0.5
66 4 0.183118 0.667525 0.5
29 2 0.419704 0.690501 0.5
31 2 0.559451 0.617574 0.5
12 1 0.66571 0.631892 0.5
19 1 0.00356592 0.716176 0.5
2 1 0.511104 0.679903 0.5
59 3 0.547419 0.745977 0.5
73 4 0.66332 0.73298 0.5
25 2 0.175032 0.760752 0.5
54 3 0.323542 0.765682 0.5
35 2 0.467794 0.75269 0.5
23 2 0.607928 0.755221 0.5
3 1 0.710523 0.724535 0.5
11 1 0.798407 0.732041 0.5
49 3 0.799803 0.805747 0.5
46 3 0.857211 0.791025 0.5
60 3 0.0137523 0.791619 0.5
69 4 0.0627722 0.802972 0.5
65 4 0.0978113 0.79055 0.5
47 3 0.470168 0.824113 0.5
55 3 0.957088 0.834586 0.5
6 1 0.4418 0.87153 0.5
38 2 0.566223 0.849548 0.5
14 1 0.786374 0.849363 0.5
21 2 0.883403 0.865253 0.5
4 1 0.993888 0.942017 0.5
61 4 0.0690555 0.943847 0.5
80 4 0.390743 0.923918 0.5
26 2 0.566526 0.936048 0.5
36 2 0.746543 0.926301 0.5
71 4 0.49868 0.959657 0.5
20 1 0.709981 0.977792 0.5
42 3 0.63134 0.955571 0.5
ITEM: TIMESTEP
120
ITEM: NUMBER OF ATOMS
80
ITEM: BOX BOUNDS pp pp pp
-6.3245680458655311e+00 6.3245680458655311e+00
-6.3245680458655311e+00 6.3245680458655311e+00
-1.0000000000000001e-01 1.0000000000000001e-01
ITEM: ATOMS id type xs ys zs
72 4 0.386579 0.0366828 0.5
9 1 0.496357 0.0372497 0.5
22 2 0.593419 0.0212685 0.5
57 3 0.739701 0.0625341 0.5
63 4 0.773314 0.0126549 0.5
5 1 0.859215 0.0323857 0.5
17 1 0.123643 0.0512846 0.5
40 2 0.436687 0.0824014 0.5
67 4 0.576908 0.0998168 0.5
41 3 0.00445632 0.10649 0.5
18 1 0.095633 0.146583 0.5
51 3 0.219834 0.132955 0.5
58 3 0.0185763 0.181636 0.5
33 2 0.296485 0.158133 0.5
48 3 0.363643 0.20169 0.5
1 1 0.46367 0.192401 0.5
79 4 0.624003 0.184343 0.5
15 1 0.894774 0.164677 0.5
16 1 0.263433 0.254382 0.5
56 3 0.516155 0.318541 0.5
45 3 0.56743 0.302096 0.5
28 2 0.621444 0.256214 0.5
13 1 0.924851 0.262057 0.5
39 2 0.855463 0.333477 0.5
44 3 0.975479 0.327851 0.5
62 4 0.0967669 0.401599 0.5
78 4 0.759826 0.387806 0.5
64 4 0.0279298 0.448894 0.5
43 3 0.0785896 0.442988 0.5
74 4 0.400885 0.451671 0.5
53 3 0.467003 0.45126 0.5
32 2 0.9182 0.434173 0.5
37 2 0.990795 0.46112 0.5