LAMMPS data file via write_data, version 23 Jun 2022, timestep = 10000

80 atoms
4 atom types

-4.824444829790173 4.824444829790173 xlo xhi
-4.824444829790173 4.824444829790173 ylo yhi
-0.1 0.1 zlo zhi

Atoms # sphere

4 1 1.6 0.2441406249999999 -4.158143978729616 -4.501473984384118 0 0 0 0
39 2 1.3 0.4551661356395083 -1.5388511258334412 -4.471432603373794 0 0 1 0
21 2 1.3 0.4551661356395083 -0.27665542433172785 -4.11104195236871 0 0 1 0
3 1 1.6 0.2441406249999999 1.0186844406954823 -3.5514586589704775 0 0 0 0
24 2 1.3 0.4551661356395083 2.6031156898186074 4.809789560511256 0 0 -1 0
20 1 1.6 0.2441406249999999 4.008340449329924 -4.391531569589831 0 0 0 0
65 4 0.7 2.915451895043732 -4.7294923683262065 -3.72213876839365 0 1 0 0
37 2 1.3 0.4551661356395083 -4.076194736565145 -3.1037356955956694 0 1 0 0
33 2 1.3 0.4551661356395083 -3.12038227662976 -3.7448415407121476 0 0 0 0
53 3 1 1 -2.05074449557133 -3.593819421142928 0 0 1 0
45 3 1 1 -1.1565102552215083 -3.3865872515171027 0 0 0 0
69 4 0.7 2.915451895043732 -1.3091543996324986 -2.552058966384912 0 0 0 0
31 2 1.3 0.4551661356395083 -0.1462745374473231 -2.913796468280111 0 0 1 0
55 3 1 1 2.1422478142734596 -3.593151398225178 0 0 0 0
51 3 1 1 3.061065672425877 -3.7173088761725914 0 0 0 0
52 3 1 1 4.109816167052101 -3.129686126124465 0 0 0 0
6 1 1.6 0.2441406249999999 -4.0253418207846305 -1.9207045613312053 0 0 0 0
76 4 0.7 2.915451895043732 -3.1913456802638955 -1.5203227316921337 0 1 0 0
40 2 1.3 0.4551661356395083 -2.9450958791703528 -2.610213538944257 0 0 0 0
59 3 1 1 -2.0183363089643143 -2.575868400416751 0 0 0 0
19 1 1.6 0.2441406249999999 -0.658858978860021 -1.7466472166770046 0 0 0 0
48 3 1 1 0.5473383313036537 -1.932836286626411 0 0 0 0
22 2 1.3 0.4551661356395083 1.6124397185204966 -2.357750699105504 0 -1 0 0
9 1 1.6 0.2441406249999999 2.9873721242078126 -2.5003138033484213 0 0 0 0
61 4 0.7 2.915451895043732 4.015389485743715 -2.352569550195205 0 -1 0 0
42 3 1 1 4.4486242863593555 -1.7306398033549382 0 0 1 0
73 4 0.7 2.915451895043732 4.755264268993655 -2.4902983530161356 0 -1 1 0
63 4 0.7 2.915451895043732 -3.9664213899801064 -0.807347483432749 0 0 0 0
36 2 1.3 0.4551661356395083 -3.117508871133972 -0.4953803240328911 0 1 1 0
10 1 1.6 0.2441406249999999 -2.1156189441169295 -1.3815656465187258 0 0 0 0
13 1 1.6 0.2441406249999999 0.3907835047472634 -0.6665575676717586 0 0 0 0
77 4 0.7 2.915451895043732 1.4578095914033922 -1.5227382950271893 0 0 0 0
46 3 1 1 2.229156115006072 -1.523463609123323 0 0 0 0
16 1 1.6 0.2441406249999999 3.4196086375901844 -1.1738708392799904 0 0 0 0
57 3 1 1 4.805668095845358 -1.047938762839463 0 0 0 0
49 3 1 1 -4.282938833008272 -0.16181944594821918 0 0 0 0
74 4 0.7 2.915451895043732 -3.4744412363709447 0.37378151333110665 0 0 0 0
23 2 1.3 0.4551661356395083 -2.263830299418055 0.1834557942919961 0 0 0 0
7 1 1.6 0.2441406249999999 -1.0027318494679207 -0.20711456694156372 0 0 0 0
44 3 1 1 0.011679854269807777 0.6011907334866144 0 0 0 0
64 4 0.7 2.915451895043732 0.7893976981250788 0.39230636754749515 0 0 -1 0
15 1 1.6 0.2441406249999999 1.8226446667406702 -0.4080027140388722 0 0 0 0
29 2 1.3 0.4551661356395083 3.1218041203327838 0.09335470176308203 0 -1 0 0
27 2 1.3 0.4551661356395083 4.1859744261491345 -0.036578383506872036 0 -1 0 0
8 1 1.6 0.2441406249999999 -4.478229954763936 0.9933333825791228 0 0 0 0
75 4 0.7 2.915451895043732 -3.4336735144686266 1.0553215416624795 0 0 0 0
78 4 0.7 2.915451895043732 -3.6979574263978914 1.7937898452974057 0 0 0 0
25 2 1.3 0.4551661356395083 -2.514437964390685 1.2781848667961313 0 0 0 0
41 3 1 1 -0.8947134793273976 1.1363006447792534 0 0 0 0
68 4 0.7 2.915451895043732 -0.7690213409507285 1.849198891612894 0 0 0 0
47 3 1 1 0.009505732399586186 1.4384302156257984 0 0 0 0
2 1 1.6 0.2441406249999999 1.4639205094513166 1.1831308776245635 0 0 0 0
71 4 0.7 2.915451895043732 2.221651175830198 0.5631019000942556 0 0 0 0
32 2 1.3 0.4551661356395083 3.8050836354904094 1.1109616478100222 0 0 1 0
66 4 0.7 2.915451895043732 2.8954366696159504 0.982808205500314 0 -1 0 0
35 2 1.3 0.4551661356395083 -4.265199217015937 2.3508399731412224 0 1 0 0
11 1 1.6 0.2441406249999999 -2.886325725919246 2.463526222157877 0 0 0 0
38 2 1.3 0.4551661356395083 -1.6695725329279276 1.822781278058315 0 0 0 0
28 2 1.3 0.4551661356395083 -0.5253018019361324 2.5552600312041003 0 0 -1 0
34 2 1.3 0.4551661356395083 0.628321997100759 2.293656117441442 0 0 0 0
17 1 1.6 0.2441406249999999 2.713910760008381 2.039757674032919 0 0 0 0
56 3 1 1 3.998200092222832 2.28927850133105 0 0 0 0
79 4 0.7 2.915451895043732 4.511169808082607 1.8025301501039221 0 -1 0 0
43 3 1 1 -3.852353758755012 3.3346288959776738 0 0 0 0
54 3 1 1 -1.668779477481121 2.8941399101288976 0 0 0 0
58 3 1 1 -2.170931273477588 3.5088793563647664 0 0 0 0
26 2 1.3 0.4551661356395083 -0.830847571449858 3.6702757502643566 0 0 0 0
30 2 1.3 0.4551661356395083 0.3753486629987286 3.493025626834478 0 0 -1 0
5 1 1.6 0.2441406249999999 1.6618682878364632 3.1339380981158707 0 0 -1 0
72 4 0.7 2.915451895043732 4.086069840698413 3.0856837419258447 0 0 0 0
12 1 1.6 0.2441406249999999 4.784821538629829 3.874590858337247 0 0 0 0
70 4 0.7 2.915451895043732 -3.2209545932884476 3.670550383226707 0 0 0 0
62 4 0.7 2.915451895043732 -3.6447585216145955 4.027115800451582 0 1 0 0
18 1 1.6 0.2441406249999999 -2.72159643393142 4.70063656019622 0 0 -1 0
80 4 0.7 2.915451895043732 -1.7095564107653138 4.198660660810108 0 0 0 0
50 3 1 1 -0.6588300867714016 4.6000244494843505 0 0 0 0
60 3 1 1 0.19706665462645656 4.564496847686374 0 0 0 0
1 1 1.6 0.2441406249999999 1.3004975845292286 4.580283540701656 0 0 -1 0
67 4 0.7 2.915451895043732 2.2760249463304643 4.049128852907768 0 0 -1 0
14 1 1.6 0.2441406249999999 3.3681501530114 3.586653561900836 0 0 -1 0

Velocities

4 -0.011665909233000328 0.10462523021207622 0 0 0 0
39 -0.05540225439138473 0.06926301466202141 0 0 0 0
21 -0.2826218573269185 0.017252417367390565 0 0 0 0
3 -0.06351009015227371 -0.03959514627078468 0 0 0 0
24 -0.18101328035121655 -0.056846625308101466 0 0 0 0
20 -0.04704013567972549 7.711393039559549e-05 0 0 0 0
65 0.02154174547920422 0.19219539372645164 0 0 0 0
37 -0.051529673821818674 0.10887521236589824 0 0 0 0
33 -0.20405472508315728 0.3546047367620335 0 0 0 0
53 -0.10980667516624319 0.10179977580342334 0 0 0 0
45 0.013481620764792182 0.004379959877187996 0 0 0 0
69 -0.032577322785231407 0.06001793305646356 0 0 0 0
31 -0.07881467958633083 0.034724800135056605 0 0 0 0
55 0.06939972667193821 -0.24102181588916305 0 0 0 0
51 0.10332796643414702 0.06506252680536602 0 0 0 0
52 0.1760352220332113 -0.08461216543158025 0 0 0 0
6 -0.11419417255395994 -0.08990606269692514 0 0 0 0
76 0.2021982527832961 -0.09393652889546146 0 0 0 0
40 0.018117455118232467 0.08551706552735969 0 0 0 0
59 -0.025975491490489597 0.12732105388436663 0 0 0 0
19 0.004267428880572204 -0.003308850450059669 0 0 0 0
48 -0.02118807280745998 0.03504352156343582 0 0 0 0
22 -0.13040416265993224 0.11076254683508645 0 0 0 0
9 0.07226557495405739 0.02438820951153544 0 0 0 0
61 0.035969059125661874 -0.2820641142063711 0 0 0 0
42 0.06811206552893898 -0.0552962226417111 0 0 0 0
73 -0.038648717624328394 -0.11710970694172543 0 0 0 0
63 0.1298011402225263 -0.16256790178711816 0 0 0 0
36 0.17129448579865203 -0.05513435670535734 0 0 0 0
10 0.10467558730895525 -0.03171728533614548 0 0 0 0
13 -0.05276641114616316 -0.09564906513891301 0 0 0 0
77 0.17763318312154178 -0.023459547322165656 0 0 0 0
46 -0.06317681166337458 -0.08092412645771456 0 0 0 0
16 0.04037846975158301 0.011143453933233181 0 0 0 0
57 0.0830917919965406 -0.00882057579527534 0 0 0 0
49 -0.1391693692681481 -0.0970542562832018 0 0 0 0
74 0.017979690051048335 0.03423477376931177 0 0 0 0
23 -0.018796592858857635 -0.0337101981240558 0 0 0 0
7 -0.010823534819676767 -0.0773783191032331 0 0 0 0
44 0.03535463569551162 0.03388041139921859 0 0 0 0
64 0.09756880328069602 -0.042603291439164935 0 0 0 0
15 -0.08364749770819675 0.1428398189975814 0 0 0 0
29 0.035338607765086655 0.23945129203909074 0 0 0 0
27 0.01910381691773411 0.030345324027500137 0 0 0 0
8 0.026223051135370132 0.04548161278832282 0 0 0 0
75 -0.17512983499161802 -0.05098427644281653 0 0 0 0
78 0.021550922120674214 0.053651815844719834 0 0 0 0
25 0.1530237853727062 -0.1597364531956304 0 0 0 0
41 0.03437664590792758 -0.03874937952532949 0 0 0 0
68 0.21858065200833332 0.0345896929841366 0 0 0 0
47 0.08797170340857852 -0.12015086165037703 0 0 0 0
2 0.23114334702328143 0.11804501799027191 0 0 0 0
71 0.08231070968322268 -0.11642434109084679 0 0 0 0
32 0.057981378571961305 -0.30565348777942375 0 0 0 0
66 -0.05526824141688268 -0.083709071123081 0 0 0 0
35 0.006123164771351406 -0.0408869587532469 0 0 0 0
11 -0.014822261006369724 -0.1270966873532641 0 0 0 0
38 0.05324626294477803 -0.06238468202089577 0 0 0 0
28 -0.0024420308138313595 0.0023313270973209085 0 0 0 0
34 0.06923617497289548 -0.0320275487320782 0 0 0 0
17 -0.10820060126199031 0.0669585832754576 0 0 0 0
56 -0.05349896666052206 -0.06206724851269204 0 0 0 0
79 -0.10118868206786925 0.13494607581526172 0 0 0 0
43 0.07625746752240896 -0.02697420695710193 0 0 0 0
54 0.035293440715932475 -0.02092667213191638 0 0 0 0
58 -0.08572008012876463 0.06304569197006242 0 0 0 0
26 0.1254004155743018 0.06306592569357744 0 0 0 0
30 -0.23389835143331966 0.011679292083035671 0 0 0 0
5 -0.02668676807952294 0.1298730957483965 0 0 0 0
72 0.04726436000627326 0.02809311574911912 0 0 0 0
12 -0.04708374799889252 -0.03980193397628631 0 0 0 0
70 -0.002471006984109218 -0.0050865926507336606 0 0 0 0
62 -0.0647577062011942 0.18295014644140445 0 0 0 0
18 -0.23030556478009578 -0.07725626666193741 0 0 0 0
80 0.018448652145248403 0.21890039528781546 0 0 0 0
50 0.0651860169365774 -0.09673142474744324 0 0 0 0
60 -0.1004679035719646 0.08476899232340011 0 0 0 0
1 0.04353650430797477 0.04629900559697657 0 0 0 0
67 -0.15925253045025303 0.1427580878730317 0 0 0 0
14 0.1279307312113681 -0.17587920522446363 0 0 0 0
