ITEM: TIMESTEP
0
ITEM: NUMBER OF ATOMS
80
ITEM: BOX BOUNDS pp pp pp
-1.0000000000000000e+01 1.0000000000000000e+01
-1.0000000000000000e+01 1.0000000000000000e+01
-1.0000000000000001e-01 1.0000000000000001e-01
ITEM: ATOMS id type xs ys zs
28 2 0.323021 0.0208957 0.5
64 4 0.616769 0.0310069 0.5
1 1 0.0236243 0.0542994 0.5
30 2 0.698344 0.0595705 0.5
20 1 0.929378 0.0528929 0.5
76 4 0.96859 0.0967112 0.5
49 3 0.00322076 0.131326 0.5
4 1 0.117519 0.134776 0.5
40 2 0.316125 0.113564 0.5
3 1 0.438636 0.151323 0.5
14 1 0.702037 0.133315 0.5
18 1 0.185588 0.172561 0.5
10 1 0.318806 0.167546 0.5
77 4 0.502361 0.174116 0.5
5 1 0.590657 0.174269 0.5
75 4 0.191126 0.26097 0.5
69 4 0.243842 0.253844 0.5
19 1 0.389733 0.238937 0.5
59 3 0.483385 0.244027 0.5
65 4 0.523069 0.223542 0.5
55 3 0.743573 0.234331 0.5
22 2 0.052734 0.300466 0.5
48 3 0.601433 0.292247 0.5
45 3 0.774339 0.309979 0.5
24 2 0.799624 0.274904 0.5
37 2 0.984249 0.269906 0.5
27 2 0.261042 0.338621 0.5
23 2 0.310607 0.364076 0.5
13 1 0.575554 0.343842 0.5
78 4 0.114737 0.380633 0.5
9 1 0.617266 0.393146 0.5
52 3 0.649158 0.390255 0.5
46 3 0.819681 0.379066 0.5
38 2 0.467808 0.451686 0.5
41 3 0.568956 0.442726 0.5
6 1 0.0360875 0.522651 0.5
7 1 0.203457 0.500364 0.5
80 4 0.278902 0.513732 0.5
44 3 0.480722 0.490391 0.5
71 4 0.768043 0.501513 0.5
29 2 0.104098 0.569031 0.5
74 4 0.390764 0.575355 0.5
53 3 0.439316 0.576312 0.5
57 3 0.859316 0.529376 0.5
51 3 0.999973 0.546431 0.5
68 4 0.516904 0.603031 0.5
70 4 0.478824 0.593303 0.5
16 1 0.579854 0.613444 0.5
67 4 0.808032 0.595458 0.5
25 2 0.104161 0.637142 0.5
17 1 0.897403 0.654911 0.5
43 3 0.0441316 0.720159 0.5
61 4 0.0289576 0.691006 0.5
79 4 0.0662632 0.684918 0.5
8 1 0.348767 0.724096 0.5
34 2 0.468239 0.695985 0.5
72 4 0.511556 0.717579 0.5
15 1 0.659769 0.729261 0.5
58 3 0.0178363 0.774228 0.5
66 4 0.0168839 0.76715 0.5
21 2 0.238814 0.754962 0.5
33 2 0.235303 0.742455 0.5
60 3 0.266721 0.780459 0.5
47 3 0.65156 0.769014 0.5
56 3 0.684403 0.754995 0.5
12 1 0.807923 0.762976 0.5
54 3 0.0560961 0.807909 0.5
26 2 0.690295 0.794975 0.5
31 2 0.587129 0.877579 0.5
2 1 0.671914 0.856757 0.5
32 2 0.666738 0.873229 0.5
50 3 0.634727 0.855603 0.5
73 4 0.654304 0.87986 0.5
36 2 0.850888 0.880537 0.5
35 2 0.969468 0.843227 0.5
39 2 0.2819 0.897565 0.5
11 1 0.49223 0.916657 0.5
63 4 0.346876 0.950234 0.5
62 4 0.857497 0.953598 0.5
42 3 0.988338 0.996385 0.5
ITEM: TIMESTEP
10
ITEM: NUMBER OF ATOMS
80
ITEM: BOX BOUNDS pp pp pp
-9.2402083148369272e+00 9.2402083148369272e+00
-9.2402083148369272e+00 9.2402083148369272e+00
-1.0000000000000001e-01 1.0000000000000001e-01
ITEM: ATOMS id type xs ys zs
28 2 0.323021 0.0208957 0.5
64 4 0.616769 0.0310069 0.5
1 1 0.0236245 0.0542996 0.5
30 2 0.698343 0.0595691 0.5
20 1 0.929377 0.0528923 0.5
76 4 0.968591 0.0967118 0.5
49 3 0.00322076 0.131326 0.5
4 1 0.117508 0.13477 0.5
40 2 0.316122 0.113494 0.5
3 1 0.438636 0.151323 0.5
14 1 0.702037 0.133316 0.5
18 1 0.185598 0.172567 0.5
10 1 0.318809 0.167617 0.5
77 4 0.502361 0.174116 0.5
5 1 0.590657 0.174269 0.5
75 4 0.191126 0.26097 0.5
69 4 0.243842 0.253844 0.5
19 1 0.389733 0.238937 0.5
59 3 0.483384 0.244028 0.5
65 4 0.523069 0.223542 0.5
55 3 0.743573 0.234331 0.5
22 2 0.052734 0.300466 0.5
48 3 0.601447 0.292221 0.5
45 3 0.774307 0.310024 0.5
24 2 0.799656 0.274859 0.5
37 2 0.984249 0.269906 0.5
27 2 0.261009 0.338605 0.5
23 2 0.31064 0.364093 0.5
13 1 0.575502 0.343823 0.5
78 4 0.114737 0.380633 0.5
9 1 0.617182 0.393203 0.5
52 3 0.64928 0.390243 0.5
46 3 0.819681 0.379066 0.5
38 2 0.467788 0.451626 0.5
41 3 0.568956 0.442726 0.5
6 1 0.0361563 0.522605 0.5
7 1 0.203457 0.500364 0.5
80 4 0.278902 0.513732 0.5
44 3 0.480742 0.490451 0.5
71 4 0.768043 0.501513 0.5
29 2 0.104098 0.569031 0.5
74 4 0.390764 0.575355 0.5
53 3 0.439314 0.576311 0.5
57 3 0.859316 0.529376 0.5
51 3 0.999904 0.546476 0.5
68 4 0.516904 0.603031 0.5
70 4 0.478825 0.593303 0.5
16 1 0.579854 0.613444 0.5
67 4 0.808032 0.595458 0.5
25 2 0.104161 0.637143 0.5
17 1 0.897403 0.654911 0.5
43 3 0.0441459 0.720196 0.5
61 4 0.0289405 0.690973 0.5
79 4 0.066266 0.684914 0.5
8 1 0.348767 0.724096 0.5
34 2 0.468232 0.695981 0.5
72 4 0.511563 0.717583 0.5
15 1 0.659709 0.729088 0.5
58 3 0.017853 0.774357 0.5
66 4 0.0168664 0.767021 0.5
21 2 0.238811 0.755097 0.5
33 2 0.235231 0.742245 0.5
60 3 0.266797 0.780534 0.5
47 3 0.651456 0.769101 0.5
56 3 0.684519 0.754989 0.5
12 1 0.807923 0.762976 0.5
54 3 0.0560969 0.807909 0.5
26 2 0.690351 0.795034 0.5
31 2 0.58711 0.877588 0.5
2 1 0.672134 0.856513 0.5
32 2 0.666864 0.8734 0.5
50 3 0.634546 0.855519 0.5
73 4 0.654149 0.880041 0.5
36 2 0.850888 0.880537 0.5
35 2 0.969468 0.843227 0.5
39 2 0.2819 0.897565 0.5
11 1 0.49223 0.916657 0.5
63 4 0.346876 0.950234 0.5
62 4 0.857497 0.953598 0.5
42 3 0.988338 0.996385 0.5
ITEM: TIMESTEP
20
ITEM: NUMBER OF ATOMS
80
ITEM: BOX BOUNDS pp pp pp
-8.3091299113576849e+00 8.3091299113576849e+00
-8.3091299113576849e+00 8.3091299113576849e+00
-1.0000000000000001e-01 1.0000000000000001e-01
ITEM: ATOMS id type xs ys zs
28 2 0.323021 0.0208957 0.5
64 4 0.616769 0.0310069 0.5
1 1 0.0236362 0.0543187 0.5
30 2 0.698342 0.0595314 0.5
20 1 0.929359 0.0528714 0.5
76 4 0.968609 0.0967322 0.5
49 3 0.00322115 0.131326 0.5
4 1 0.117437 0.13473 0.5
40 2 0.316108 0.113219 0.5
3 1 0.438636 0.151323 0.5
14 1 0.702039 0.133354 0.5
18 1 0.18567 0.172607 0.5
10 1 0.318823 0.167892 0.5
77 4 0.502361 0.174116 0.5
5 1 0.590657 0.174269 0.5
75 4 0.191126 0.26097 0.5
69 4 0.243842 0.253844 0.5
19 1 0.389733 0.238937 0.5
59 3 0.483373 0.244033 0.5
65 4 0.523081 0.223536 0.5
55 3 0.743573 0.234331 0.5
22 2 0.0527347 0.300466 0.5
48 3 0.601507 0.292101 0.5
45 3 0.774182 0.310197 0.5
24 2 0.799781 0.274686 0.5
37 2 0.984248 0.269905 0.5
27 2 0.260869 0.338532 0.5
23 2 0.31078 0.364166 0.5
13 1 0.575284 0.343756 0.5
78 4 0.114737 0.380633 0.5
9 1 0.616906 0.393419 0.5
52 3 0.649725 0.390202 0.5
46 3 0.819681 0.379066 0.5
38 2 0.467711 0.451395 0.5
41 3 0.568945 0.442737 0.5
6 1 0.0364136 0.522434 0.5
7 1 0.203457 0.500364 0.5
80 4 0.278902 0.513732 0.5
44 3 0.480819 0.490682 0.5
71 4 0.768043 0.501513 0.5
29 2 0.104099 0.569011 0.5
74 4 0.390763 0.575355 0.5
53 3 0.439293 0.576302 0.5
57 3 0.859316 0.529376 0.5
51 3 0.999645 0.546647 0.5
68 4 0.516901 0.603031 0.5
70 4 0.478846 0.593312 0.5
16 1 0.579859 0.613444 0.5
67 4 0.808032 0.595458 0.5
25 2 0.104161 0.637163 0.5
17 1 0.897403 0.654911 0.5
43 3 0.0441924 0.720361 0.5
61 4 0.0288671 0.690843 0.5
79 4 0.0662929 0.684879 0.5
8 1 0.348767 0.724096 0.5
34 2 0.468183 0.695957 0.5
72 4 0.511612 0.717607 0.5
15 1 0.659479 0.728419 0.5
58 3 0.0178943 0.774795 0.5
66 4 0.0168051 0.766565 0.5
21 2 0.238786 0.755561 0.5
33 2 0.234961 0.741485 0.5
60 3 0.267092 0.780829 0.5
47 3 0.651053 0.769422 0.5
56 3 0.684953 0.754952 0.5
12 1 0.807923 0.762976 0.5
54 3 0.0561168 0.807927 0.5
26 2 0.690594 0.795274 0.5
31 2 0.587016 0.877632 0.5
2 1 0.672921 0.855675 0.5
32 2 0.667323 0.874013 0.5
50 3 0.633898 0.855193 0.5
73 4 0.653602 0.880694 0.5
36 2 0.850888 0.880537 0.5
35 2 0.969468 0.843227 0.5
39 2 0.2819 0.897565 0.5
11 1 0.49223 0.916657 0.5
63 4 0.346876 0.950234 0.5
62 4 0.857497 0.953598 0.5
42 3 0.988326 0.996366 0.5
ITEM: TIMESTEP
30
ITEM: NUMBER OF ATOMS
80
ITEM: BOX BOUNDS pp pp pp
-7.6105968135559303e+00 7.6105968135559303e+00
-7.6105968135559303e+00 7.6105968135559303e+00
-1.0000000000000001e-01 1.0000000000000001e-01
ITEM: ATOMS id type xs ys zs
28 2 0.323021 0.0208957 0.5
64 4 0.616769 0.0310069 0.5
1 1 0.0237163 0.0543994 0.5
30 2 0.698334 0.0593867 0.5
20 1 0.929264 0.0527895 0.5
76 4 0.968665 0.0968063 0.5
49 3 0.00323261 0.131343 0.5
4 1 0.117231 0.134616 0.5
40 2 0.316079 0.112643 0.5
3 1 0.438623 0.151317 0.5
14 1 0.702046 0.133498 0.5
18 1 0.185875 0.172721 0.5
10 1 0.31885 0.168466 0.5
77 4 0.502374 0.174121 0.5
5 1 0.590657 0.174269 0.5
75 4 0.191126 0.26097 0.5
69 4 0.243842 0.253844 0.5
19 1 0.389733 0.23894 0.5
59 3 0.483317 0.244062 0.5
65 4 0.523137 0.223507 0.5
55 3 0.743567 0.234327 0.5
22 2 0.0527585 0.300477 0.5
48 3 0.601649 0.291821 0.5
45 3 0.773919 0.310561 0.5
24 2 0.800049 0.274326 0.5
37 2 0.984224 0.269895 0.5
27 2 0.260551 0.338369 0.5
23 2 0.311098 0.364329 0.5
13 1 0.574801 0.34363 0.5
78 4 0.114737 0.380633 0.5
9 1 0.616433 0.393845 0.5
52 3 0.650602 0.39012 0.5
46 3 0.819681 0.379066 0.5
38 2 0.467552 0.450918 0.5
41 3 0.568883 0.442801 0.5
6 1 0.0369076 0.522063 0.5
7 1 0.203457 0.500364 0.5
80 4 0.278902 0.513732 0.5
44 3 0.480978 0.491158 0.5
71 4 0.768043 0.501513 0.5
29 2 0.104133 0.568935 0.5
74 4 0.390743 0.575354 0.5
53 3 0.439231 0.576267 0.5
57 3 0.859316 0.529376 0.5
51 3 0.999118 0.546994 0.5
68 4 0.516879 0.603029 0.5
70 4 0.478906 0.593342 0.5
16 1 0.579903 0.613452 0.5
67 4 0.808032 0.595458 0.5
25 2 0.104164 0.63726 0.5
17 1 0.897403 0.654911 0.5
43 3 0.0442763 0.720732 0.5
61 4 0.0286859 0.690573 0.5
79 4 0.0663902 0.684776 0.5
8 1 0.348767 0.724096 0.5
34 2 0.468047 0.695889 0.5
72 4 0.511748 0.717675 0.5
15 1 0.658999 0.727027 0.5
58 3 0.01793 0.775603 0.5
66 4 0.0166883 0.765695 0.5
21 2 0.238705 0.756429 0.5
33 2 0.234423 0.739998 0.5
60 3 0.267711 0.781449 0.5
47 3 0.650213 0.770056 0.5
56 3 0.685824 0.754852 0.5
12 1 0.807923 0.762976 0.5
54 3 0.0561951 0.807995 0.5
26 2 0.691148 0.79578 0.5
31 2 0.586781 0.877741 0.5
2 1 0.67444 0.854127 0.5
32 2 0.668235 0.875209 0.5
50 3 0.632648 0.854515 0.5
73 4 0.652551 0.881967 0.5
36 2 0.850888 0.880537 0.5
35 2 0.969468 0.843227 0.5
39 2 0.2819 0.897565 0.5
11 1 0.49223 0.916657 0.5
63 4 0.346876 0.950234 0.5
62 4 0.857497 0.953598 0.5
42 3 0.988273 0.996276 0.5
ITEM: TIMESTEP
40
ITEM: NUMBER OF ATOMS
80
ITEM: BOX BOUNDS pp pp pp
-7.1181562211972649e+00 7.1181562211972649e+00
-7.1181562211972649e+00 7.1181562211972649e+00
-1.0000000000000001e-01 1.0000000000000001e-01
ITEM: ATOMS id type xs ys zs
28 2 0.323021 0.0208957 0.5
64 4 0.616769 0.0310069 0.5
1 1 0.0239974 0.0545368 0.5
30 2 0.698318 0.0590639 0.5
20 1 0.928978 0.0526211 0.5
76 4 0.968741 0.0969732 0.5
49 3 0.00327116 0.131438 0.5
4 1 0.116821 0.134389 0.5
40 2 0.316032 0.111681 0.5
3 1 0.438571 0.15126 0.5
14 1 0.702062 0.133821 0.5
18 1 0.186285 0.172949 0.5
10 1 0.31887 0.1694 0.5
77 4 0.502444 0.174146 0.5
5 1 0.590657 0.174269 0.5
75 4 0.191126 0.26097 0.5
69 4 0.243842 0.253844 0.5
19 1 0.389744 0.239 0.5
59 3 0.483179 0.244133 0.5
65 4 0.523274 0.223436 0.5
55 3 0.743523 0.234296 0.5
22 2 0.0528548 0.30052 0.5
48 3 0.601906 0.291317 0.5
45 3 0.77348 0.311171 0.5
24 2 0.800533 0.273748 0.5
37 2 0.984128 0.269852 0.5
27 2 0.259993 0.338083 0.5
23 2 0.311655 0.364615 0.5
13 1 0.573957 0.343432 0.5
78 4 0.114737 0.380633 0.5
9 1 0.615781 0.394519 0.5
52 3 0.652001 0.389982 0.5
46 3 0.819681 0.379066 0.5
38 2 0.467289 0.45013 0.5
41 3 0.568723 0.442966 0.5
6 1 0.0376524 0.521412 0.5
7 1 0.203454 0.500363 0.5
80 4 0.278906 0.513732 0.5
44 3 0.481241 0.491947 0.5
71 4 0.768043 0.501513 0.5
29 2 0.104251 0.568776 0.5
74 4 0.390665 0.575353 0.5
53 3 0.439127 0.57619 0.5
57 3 0.859316 0.529376 0.5
51 3 0.998254 0.547563 0.5
68 4 0.516818 0.603025 0.5
70 4 0.479013 0.593401 0.5
16 1 0.580038 0.613474 0.5
67 4 0.808032 0.595458 0.5
25 2 0.10419 0.637469 0.5
17 1 0.897403 0.654911 0.5
43 3 0.0444231 0.721343 0.5
61 4 0.0283438 0.690122 0.5
79 4 0.0665902 0.684591 0.5
8 1 0.348767 0.724096 0.5
34 2 0.467777 0.695754 0.5
72 4 0.512018 0.71781 0.5
15 1 0.658199 0.724726 0.5
58 3 0.0179118 0.77684 0.5
66 4 0.0164978 0.764362 0.5
21 2 0.23853 0.757753 0.5
33 2 0.233564 0.737643 0.5
60 3 0.268745 0.782479 0.5
47 3 0.648817 0.771063 0.5
56 3 0.68723 0.754655 0.5
12 1 0.807923 0.762976 0.5
54 3 0.0563736 0.808148 0.5
26 2 0.692133 0.796591 0.5
31 2 0.586285 0.877958 0.5
2 1 0.676832 0.851804 0.5
32 2 0.669719 0.877131 0.5
50 3 0.630713 0.853387 0.5
73 4 0.650911 0.883959 0.5
36 2 0.850888 0.880537 0.5
35 2 0.969468 0.843227 0.5
39 2 0.2819 0.897565 0.5
11 1 0.49223 0.916657 0.5
63 4 0.346876 0.950234 0.5
62 4 0.857497 0.953598 0.5
42 3 0.988164 0.996045 0.5
ITEM: TIMESTEP
50
ITEM: NUMBER OF ATOMS
80
ITEM: BOX BOUNDS pp pp pp
-6.7767043147384163e+00 6.7767043147384163e+00
-6.7767043147384163e+00 6.7767043147384163e+00
-1.0000000000000001e-01 1.0000000000000001e-01
ITEM: ATOMS id type xs ys zs
28 2 0.323022 0.0208876 0.5
64 4 0.616769 0.0310069 0.5
1 1 0.0246068 0.0547039 0.5
30 2 0.69829 0.0585078 0.5
20 1 0.928382 0.0523624 0.5
76 4 0.968809 0.097267 0.5
49 3 0.00334816 0.131681 0.5
4 1 0.116153 0.134018 0.5
40 2 0.315962 0.110292 0.5
3 1 0.438468 0.151091 0.5
14 1 0.70209 0.134377 0.5
18 1 0.186953 0.173319 0.5
10 1 0.318841 0.1707 0.5
77 4 0.502609 0.174205 0.5
5 1 0.590657 0.174269 0.5
75 4 0.191126 0.26097 0.5
69 4 0.243842 0.253844 0.5
19 1 0.389779 0.239206 0.5
59 3 0.482933 0.244261 0.5
65 4 0.523521 0.223308 0.5
55 3 0.743405 0.234214 0.5
22 2 0.0530679 0.300615 0.5
48 3 0.602304 0.290548 0.5
45 3 0.77284 0.312057 0.5
24 2 0.80129 0.272943 0.5
37 2 0.983915 0.269757 0.5
27 2 0.259155 0.337652 0.5
23 2 0.312494 0.365046 0.5
13 1 0.572684 0.343154 0.5
78 4 0.114737 0.380633 0.5
9 1 0.614988 0.395461 0.5
52 3 0.653967 0.38978 0.5
46 3 0.819681 0.379066 0.5
38 2 0.46691 0.448994 0.5
41 3 0.568424 0.443273 0.5
6 1 0.038635 0.520422 0.5
7 1 0.203421 0.500358 0.5
80 4 0.278938 0.513738 0.5
44 3 0.48162 0.493083 0.5
71 4 0.768043 0.501513 0.5
29 2 0.104502 0.568518 0.5
74 4 0.390497 0.57535 0.5
53 3 0.438984 0.576059 0.5
57 3 0.859316 0.529376 0.5
51 3 0.997021 0.548377 0.5
68 4 0.516702 0.60302 0.5
70 4 0.47917 0.593496 0.5
16 1 0.580309 0.613519 0.5
67 4 0.808032 0.595458 0.5
25 2 0.104263 0.63781 0.5
17 1 0.897403 0.654911 0.5
43 3 0.0446665 0.722183 0.5
61 4 0.0278039 0.68947 0.5
79 4 0.0669072 0.684324 0.5
8 1 0.348767 0.724096 0.5
34 2 0.46734 0.695536 0.5
72 4 0.512455 0.718028 0.5
15 1 0.657047 0.72143 0.5
58 3 0.0177889 0.778528 0.5
66 4 0.0162101 0.762575 0.5
21 2 0.238223 0.759543 0.5
33 2 0.232372 0.734372 0.5
60 3 0.270244 0.783961 0.5
47 3 0.646795 0.772435 0.5
56 3 0.689214 0.754333 0.5
12 1 0.807923 0.762976 0.5
54 3 0.056692 0.808416 0.5
26 2 0.693628 0.797671 0.5
31 2 0.585403 0.878315 0.5
2 1 0.680147 0.848775 0.5
32 2 0.671834 0.879873 0.5
50 3 0.628097 0.851757 0.5
73 4 0.648681 0.886681 0.5
36 2 0.850888 0.880537 0.5
35 2 0.969466 0.843229 0.5
39 2 0.2819 0.897565 0.5
11 1 0.492223 0.91666 0.5
63 4 0.346876 0.950234 0.5
62 4 0.857497 0.953598 0.5
42 3 0.988005 0.9956 0.5
ITEM: TIMESTEP
60
ITEM: NUMBER OF ATOMS
80
ITEM: BOX BOUNDS pp pp pp
-6.5292592705329149e+00 6.5292592705329149e+00
-6.5292592705329149e+00 6.5292592705329149e+00
-1.0000000000000001e-01 1.0000000000000001e-01
ITEM: ATOMS id type xs ys zs
28 2 0.323026 0.0208362 0.5
64 4 0.616769 0.0310069 0.5
1 1 0.0256372 0.0548761 0.5
30 2 0.698249 0.0576808 0.5
20 1 0.927392 0.0520138 0.5
76 4 0.968846 0.0977097 0.5
49 3 0.00347206 0.132126 0.5
4 1 0.115195 0.133486 0.5
40 2 0.315866 0.108491 0.5
3 1 0.438303 0.150758 0.5
14 1 0.702136 0.135203 0.5
18 1 0.187912 0.173851 0.5
10 1 0.318726 0.172354 0.5
77 4 0.5029 0.174309 0.5
5 1 0.590663 0.174263 0.5
75 4 0.191126 0.26097 0.5
69 4 0.243842 0.253844 0.5
19 1 0.38984 0.239635 0.5
59 3 0.482575 0.244457 0.5
65 4 0.523888 0.223121 0.5
55 3 0.743188 0.234065 0.5
22 2 0.0534313 0.300777 0.5
48 3 0.602863 0.289488 0.5
45 3 0.77199 0.313234 0.5
24 2 0.802358 0.271915 0.5
37 2 0.983551 0.269595 0.5
27 2 0.258012 0.337065 0.5
23 2 0.313637 0.365633 0.5
13 1 0.570932 0.342783 0.5
78 4 0.114737 0.380633 0.5
9 1 0.614097 0.396679 0.5
52 3 0.656523 0.389509 0.5
46 3 0.819681 0.379066 0.5
38 2 0.46641 0.447496 0.5
41 3 0.567953 0.443757 0.5
6 1 0.0398314 0.519053 0.5
7 1 0.203329 0.500341 0.5
80 4 0.27903 0.513754 0.5
44 3 0.48212 0.494581 0.5
71 4 0.768043 0.501513 0.5
29 2 0.104922 0.568155 0.5
74 4 0.390213 0.575345 0.5
53 3 0.438805 0.575864 0.5
57 3 0.859316 0.529376 0.5
51 3 0.995406 0.549446 0.5
68 4 0.516521 0.603013 0.5
70 4 0.479376 0.59363 0.5
16 1 0.580747 0.613591 0.5
67 4 0.808032 0.595458 0.5
25 2 0.104405 0.638294 0.5
17 1 0.897403 0.654911 0.5
43 3 0.0450384 0.723229 0.5
61 4 0.0270446 0.688606 0.5
79 4 0.0673437 0.683985 0.5
8 1 0.348767 0.724096 0.5
34 2 0.466714 0.695225 0.5
72 4 0.513081 0.718339 0.5
15 1 0.655534 0.717133 0.5
58 3 0.0175306 0.780642 0.5
66 4 0.0158017 0.760364 0.5
21 2 0.237748 0.761789 0.5
33 2 0.230862 0.730191 0.5
60 3 0.272229 0.785895 0.5
47 3 0.644114 0.774128 0.5
56 3 0.691778 0.753854 0.5
12 1 0.807923 0.762976 0.5
54 3 0.0571859 0.808823 0.5
26 2 0.695675 0.798943 0.5
31 2 0.584085 0.878823 0.5
2 1 0.684362 0.845194 0.5
32 2 0.674585 0.88348 0.5
50 3 0.624864 0.849606 0.5
73 4 0.645898 0.89009 0.5
36 2 0.850888 0.880532 0.5
35 2 0.969447 0.843254 0.5
39 2 0.2819 0.897565 0.5
11 1 0.492175 0.91668 0.5
63 4 0.346877 0.950233 0.5
62 4 0.857498 0.953604 0.5
42 3 0.987803 0.994888 0.5
ITEM: TIMESTEP
70
ITEM: NUMBER OF ATOMS
80
ITEM: BOX BOUNDS pp pp pp
-6.3569950451850179e+00 6.3569950451850179e+00
-6.3569950451850179e+00 6.3569950451850179e+00
-1.0000000000000001e-01 1.0000000000000001e-01
ITEM: ATOMS id type xs ys zs
28 2 0.323032 0.0207135 0.5
64 4 0.616769 0.0310069 0.5
1 1 0.0271283 0.055018 0.5
30 2 0.698193 0.0565635 0.5
20 1 0.925957 0.0515785 0.5
76 4 0.968835 0.0983101 0.5
49 3 0.00364826 0.13281 0.5
4 1 0.113949 0.132801 0.5
40 2 0.315743 0.106318 0.5
3 1 0.438079 0.150224 0.5
14 1 0.702225 0.136308 0.5
18 1 0.189177 0.174546 0.5
10 1 0.318483 0.174332 0.5
77 4 0.503332 0.174464 0.5
5 1 0.590676 0.174244 0.5
75 4 0.191123 0.260979 0.5
69 4 0.243846 0.253844 0.5
19 1 0.389912 0.240339 0.5
59 3 0.482124 0.244729 0.5
65 4 0.524368 0.222887 0.5
55 3 0.74285 0.233838 0.5
22 2 0.0539671 0.301016 0.5
48 3 0.603594 0.288131 0.5
45 3 0.770929 0.314698 0.5
24 2 0.803757 0.270678 0.5
37 2 0.983016 0.269356 0.5
27 2 0.256561 0.33632 0.5
23 2 0.315088 0.366378 0.5
13 1 0.56868 0.342312 0.5
78 4 0.114737 0.380633 0.5
9 1 0.613155 0.398169 0.5
52 3 0.659654 0.38916 0.5
46 3 0.819681 0.379066 0.5
38 2 0.465791 0.445641 0.5
41 3 0.567285 0.444443 0.5
6 1 0.0412077 0.517286 0.5
7 1 0.203154 0.50031 0.5
80 4 0.279206 0.513785 0.5
44 3 0.482739 0.496436 0.5
71 4 0.768043 0.501513 0.5
29 2 0.105537 0.567685 0.5
74 4 0.389794 0.575339 0.5
53 3 0.438596 0.575598 0.5
57 3 0.859316 0.529376 0.5
51 3 0.993416 0.550769 0.5
68 4 0.516273 0.603006 0.5
70 4 0.479625 0.593806 0.5
16 1 0.581373 0.613694 0.5
67 4 0.808032 0.595458 0.5
25 2 0.104634 0.63892 0.5
17 1 0.897403 0.654911 0.5
43 3 0.0455676 0.72445 0.5
61 4 0.0260586 0.687532 0.5
79 4 0.0678911 0.683587 0.5
8 1 0.348774 0.72409 0.5
34 2 0.465891 0.694814 0.5
72 4 0.513904 0.71875 0.5
15 1 0.65368 0.711897 0.5
58 3 0.0171212 0.783128 0.5
66 4 0.0152553 0.757783 0.5
21 2 0.237076 0.764463 0.5
33 2 0.229073 0.725163 0.5
60 3 0.274682 0.788256 0.5
47 3 0.640779 0.776081 0.5
56 3 0.694889 0.75316 0.5
12 1 0.807923 0.762976 0.5
54 3 0.0578792 0.809378 0.5
26 2 0.698273 0.800298 0.5
31 2 0.582346 0.879481 0.5
2 1 0.689381 0.841299 0.5
32 2 0.677921 0.887938 0.5
50 3 0.621121 0.846951 0.5
73 4 0.642631 0.894095 0.5
36 2 0.850885 0.880505 0.5
35 2 0.969387 0.843332 0.5
39 2 0.2819 0.897565 0.5
11 1 0.492047 0.916733 0.5
63 4 0.346882 0.950218 0.5
62 4 0.8575 0.953631 0.5
42 3 0.987563 0.99388 0.5
ITEM: TIMESTEP
80
ITEM: NUMBER OF ATOMS
80
ITEM: BOX BOUNDS pp pp pp
-6.2489389749199695e+00 6.2489389749199695e+00
-6.2489389749199695e+00 6.2489389749199695e+00
-1.0000000000000001e-01 1.0000000000000001e-01
ITEM: ATOMS id type xs ys zs
28 2 0.323039 0.0204994 0.5
64 4 0.616769 0.0310069 0.5
1 1 0.0290637 0.0550874 0.5
30 2 0.698122 0.0551572 0.5
20 1 0.924067 0.0510635 0.5
76 4 0.968763 0.0990632 0.5
49 3 0.00387861 0.133754 0.5
4 1 0.112451 0.131992 0.5
40 2 0.315592 0.10384 0.5
3 1 0.437812 0.149464 0.5
14 1 0.702384 0.137685 0.5
18 1 0.190742 0.17538 0.5
10 1 0.318071 0.17659 0.5
77 4 0.503893 0.174661 0.5
5 1 0.590703 0.174209 0.5
75 4 0.191108 0.261016 0.5
69 4 0.243862 0.253842 0.5
19 1 0.389987 0.241354 0.5
59 3 0.481601 0.245078 0.5
65 4 0.524949 0.222629 0.5
55 3 0.742382 0.233532 0.5
22 2 0.0546834 0.301336 0.5
48 3 0.604502 0.286491 0.5
45 3 0.769672 0.316428 0.5
24 2 0.805482 0.269254 0.5
37 2 0.982299 0.269036 0.5
27 2 0.254818 0.335425 0.5
23 2 0.316831 0.367273 0.5
13 1 0.565943 0.341742 0.5
78 4 0.114737 0.380633 0.5
9 1 0.612213 0.399914 0.5
52 3 0.663306 0.388724 0.5
46 3 0.819681 0.379066 0.5
38 2 0.465063 0.443458 0.5
41 3 0.566404 0.445345 0.5
6 1 0.0427198 0.515123 0.5
7 1 0.20288 0.500262 0.5
80 4 0.27948 0.513834 0.5
44 3 0.483467 0.498619 0.5
71 4 0.768043 0.501513 0.5
29 2 0.106361 0.567117 0.5
74 4 0.38923 0.575331 0.5
53 3 0.438364 0.575259 0.5
57 3 0.859316 0.529376 0.5
51 3 0.991085 0.552328 0.5
68 4 0.515962 0.603 0.5
70 4 0.479909 0.594023 0.5
16 1 0.582179 0.613806 0.5
67 4 0.808032 0.595458 0.5
25 2 0.104963 0.639679 0.5
17 1 0.897403 0.654911 0.5
43 3 0.0462784 0.725809 0.5
61 4 0.0248556 0.686262 0.5
79 4 0.0685293 0.683151 0.5
8 1 0.348803 0.724065 0.5
34 2 0.464874 0.694307 0.5
72 4 0.514921 0.719257 0.5
15 1 0.651546 0.705885 0.5
58 3 0.0165557 0.785913 0.5
66 4 0.0145588 0.754907 0.5
21 2 0.23619 0.767511 0.5
33 2 0.227065 0.719411 0.5
60 3 0.277547 0.790985 0.5
47 3 0.636858 0.778202 0.5
56 3 0.69847 0.752199 0.5
12 1 0.807924 0.762976 0.5
54 3 0.0587823 0.810074 0.5
26 2 0.701364 0.801607 0.5
31 2 0.580258 0.880275 0.5
2 1 0.695047 0.837358 0.5
32 2 0.681732 0.893164 0.5
50 3 0.617016 0.843875 0.5
73 4 0.638986 0.89856 0.5
36 2 0.85088 0.88044 0.5
35 2 0.969266 0.843488 0.5
39 2 0.2819 0.897565 0.5
11 1 0.491809 0.916831 0.5
63 4 0.346896 0.950175 0.5
62 4 0.857506 0.953696 0.5
42 3 0.987291 0.992568 0.5
ITEM: TIMESTEP
90
ITEM: NUMBER OF ATOMS
80
ITEM: BOX BOUNDS pp pp pp
-6.1934089288689789e+00 6.1934089288689789e+00
-6.1934089288689789e+00 6.1934089288689789e+00
-1.0000000000000001e-01 1.0000000000000001e-01
ITEM: ATOMS id type xs ys zs
28 2 0.323045 0.0201768 0.5
64 4 0.616769 0.0310069 0.5
1 1 0.0313877 0.0550504 0.5
30 2 0.698038 0.0534829 0.5
20 1 0.921754 0.0504789 0.5
76 4 0.968624 0.0999501 0.5
49 3 0.00416178 0.134954 0.5
4 1 0.110754 0.131102 0.5
40 2 0.315414 0.101136 0.5
3 1 0.437513 0.148473 0.5
14 1 0.702625 0.139302 0.5
18 1 0.192574 0.17632 0.5
10 1 0.31747 0.179071 0.5
77 4 0.50456 0.174894 0.5
5 1 0.590756 0.174153 0.5
75 4 0.191073 0.261102 0.5
69 4 0.243897 0.253837 0.5
19 1 0.390062 0.242686 0.5
59 3 0.481032 0.2455 0.5
65 4 0.525616 0.222367 0.5
55 3 0.741786 0.233155 0.5
22 2 0.0555752 0.301734 0.5
48 3 0.605579 0.2846 0.5
45 3 0.768243 0.318383 0.5
24 2 0.807507 0.267679 0.5
37 2 0.981408 0.268638 0.5
27 2 0.252818 0.334398 0.5
23 2 0.318831 0.3683 0.5
13 1 0.562756 0.341071 0.5
78 4 0.114737 0.380633 0.5
9 1 0.611322 0.401879 0.5
52 3 0.667406 0.388199 0.5
46 3 0.819682 0.379067 0.5
38 2 0.464241 0.440994 0.5
41 3 0.565305 0.446466 0.5
6 1 0.0443175 0.512592 0.5
7 1 0.202502 0.500194 0.5
80 4 0.279858 0.513901 0.5
44 3 0.484289 0.501083 0.5
71 4 0.768043 0.501513 0.5
29 2 0.107392 0.566465 0.5
74 4 0.38852 0.575324 0.5
53 3 0.438114 0.574847 0.5
57 3 0.859316 0.529376 0.5
51 3 0.988466 0.554092 0.5
68 4 0.5156 0.602998 0.5
70 4 0.480215 0.594277 0.5
16 1 0.583124 0.613878 0.5
67 4 0.808032 0.595458 0.5
25 2 0.105401 0.640552 0.5
17 1 0.897403 0.654911 0.5
43 3 0.0471875 0.72727 0.5
61 4 0.0234605 0.684825 0.5
79 4 0.0692288 0.682699 0.5
8 1 0.348865 0.724009 0.5
34 2 0.463681 0.693712 0.5
72 4 0.516114 0.719852 0.5
15 1 0.649237 0.699344 0.5
58 3 0.0158404 0.788905 0.5
66 4 0.0136997 0.751815 0.5
21 2 0.235084 0.770864 0.5
33 2 0.224914 0.713105 0.5
60 3 0.280744 0.793993 0.5
47 3 0.632478 0.780385 0.5
56 3 0.702404 0.750939 0.5
12 1 0.807943 0.762969 0.5
54 3 0.0598979 0.810896 0.5
26 2 0.704825 0.802742 0.5
31 2 0.577912 0.881193 0.5
2 1 0.701177 0.833633 0.5
32 2 0.68586 0.899007 0.5
50 3 0.612717 0.840509 0.5
73 4 0.635095 0.903318 0.5
36 2 0.85087 0.880329 0.5
35 2 0.969065 0.843742 0.5
39 2 0.2819 0.897565 0.5
11 1 0.491434 0.916985 0.5
63 4 0.346924 0.950093 0.5
62 4 0.857516 0.953807 0.5
42 3 0.986992 0.990972 0.5
ITEM: TIMESTEP
100
ITEM: NUMBER OF ATOMS
80
ITEM: BOX BOUNDS pp pp pp
-6.1775343224218791e+00 6.1775343224218791e+00
-6.1775343224218791e+00 6.1775343224218791e+00
-1.0000000000000001e-01 1.0000000000000001e-01
ITEM: ATOMS id type xs ys zs
28 2 0.323053 0.019732 0.5
64 4 0.616769 0.0310069 0.5
1 1 0.0340148 0.0548834 0.5
30 2 0.697941 0.0515755 0.5
20 1 0.91908 0.0498358 0.5
76 4 0.968421 0.100943 0.5
49 3 0.00449455 0.136392 0.5
4 1 0.108918 0.130174 0.5
40 2 0.315211 0.0982951 0.5
3 1 0.437185 0.147265 0.5
14 1 0.702951 0.141106 0.5
18 1 0.194614 0.177333 0.5
10 1 0.316694 0.181711 0.5
77 4 0.50531 0.175154 0.5
5 1 0.590842 0.174072 0.5
75 4 0.191016 0.261246 0.5
69 4 0.243956 0.25383 0.5
19 1 0.390137 0.244324 0.5
59 3 0.480439 0.245989 0.5
65 4 0.526351 0.222122 0.5
55 3 0.741079 0.232735 0.5
22 2 0.0566263 0.302203 0.5
48 3 0.60681 0.2825 0.5
45 3 0.766672 0.320511 0.5
24 2 0.80979 0.265988 0.5
37 2 0.980357 0.268169 0.5
27 2 0.250606 0.333263 0.5
23 2 0.321043 0.369436 0.5
13 1 0.559171 0.340303 0.5
78 4 0.114737 0.380633 0.5
9 1 0.610528 0.404025 0.5
52 3 0.671868 0.387592 0.5
46 3 0.819688 0.379074 0.5
38 2 0.463345 0.438309 0.5
41 3 0.563991 0.447796 0.5
6 1 0.0459505 0.509733 0.5
7 1 0.20203 0.500105 0.5
80 4 0.280337 0.513986 0.5
44 3 0.485185 0.503767 0.5
71 4 0.768043 0.501513 0.5
29 2 0.108612 0.565749 0.5
74 4 0.387671 0.575318 0.5
53 3 0.437854 0.574364 0.5
57 3 0.859316 0.529376 0.5
51 3 0.985621 0.556021 0.5
68 4 0.515202 0.603002 0.5
70 4 0.480529 0.594566 0.5
16 1 0.584157 0.613863 0.5
67 4 0.808032 0.595458 0.5
25 2 0.10595 0.641516 0.5
17 1 0.897403 0.654911 0.5
43 3 0.0483028 0.728804 0.5
61 4 0.0219088 0.683254 0.5
79 4 0.0699544 0.682253 0.5
8 1 0.348962 0.723917 0.5
34 2 0.462338 0.693043 0.5
72 4 0.517457 0.720521 0.5
15 1 0.646864 0.692538 0.5
58 3 0.0149924 0.792014 0.5
66 4 0.0126678 0.748581 0.5
21 2 0.233764 0.774438 0.5
33 2 0.222682 0.706413 0.5
60 3 0.284198 0.797203 0.5
47 3 0.627815 0.782532 0.5
56 3 0.706555 0.749365 0.5
12 1 0.808016 0.762939 0.5
54 3 0.0612203 0.811824 0.5
26 2 0.708489 0.803599 0.5
31 2 0.575386 0.882217 0.5
2 1 0.707587 0.830341 0.5
32 2 0.69016 0.905287 0.5
50 3 0.608382 0.837 0.5
73 4 0.631081 0.908216 0.5
36 2 0.850855 0.88017 0.5
35 2 0.968768 0.844107 0.5
39 2 0.2819 0.897565 0.5
11 1 0.490906 0.917204 0.5
63 4 0.346967 0.949967 0.5
62 4 0.85753 0.953966 0.5
42 3 0.986668 0.989128 0.5
ITEM: TIMESTEP
110
ITEM: NUMBER OF ATOMS
80
ITEM: BOX BOUNDS pp pp pp
-6.1889910363455511e+00 6.1889910363455511e+00
-6.1889910363455511e+00 6.1889910363455511e+00
-1.0000000000000001e-01 1.0000000000000001e-01
ITEM: ATOMS id type xs ys zs
28 2 0.323062 0.0191544 0.5
64 4 0.616769 0.0310069 0.5
1 1 0.0368411 0.0545718 0.5
30 2 0.697834 0.0494781 0.5
20 1 0.916128 0.0491451 0.5
76 4 0.968162 0.102007 0.5
49 3 0.0048685 0.138037 0.5
4 1 0.107009 0.129254 0.5
40 2 0.314986 0.0953992 0.5
3 1 0.436826 0.145865 0.5
14 1 0.703355 0.143038 0.5
18 1 0.196789 0.178375 0.5
10 1 0.315773 0.184447 0.5
77 4 0.506117 0.175432 0.5
5 1 0.590965 0.173962 0.5
75 4 0.190934 0.261455 0.5
69 4 0.244043 0.253823 0.5
19 1 0.390218 0.24624 0.5
59 3 0.479845 0.246534 0.5
65 4 0.527134 0.221907 0.5
55 3 0.740283 0.232303 0.5
22 2 0.0578134 0.302733 0.5
48 3 0.608173 0.280239 0.5
45 3 0.764992 0.322757 0.5
24 2 0.812276 0.264221 0.5
37 2 0.979169 0.267639 0.5
27 2 0.248236 0.332054 0.5
23 2 0.323414 0.370654 0.5
13 1 0.555248 0.339441 0.5
78 4 0.114737 0.380633 0.5
9 1 0.609869 0.406305 0.5
52 3 0.676609 0.38691 0.5
46 3 0.819702 0.37909 0.5
38 2 0.462397 0.435467 0.5
41 3 0.56247 0.449321 0.5
6 1 0.0475726 0.5066 0.5
7 1 0.201484 0.499987 0.5
80 4 0.280907 0.514087 0.5
44 3 0.486133 0.506609 0.5
71 4 0.768043 0.501513 0.5
29 2 0.109993 0.564997 0.5
74 4 0.386694 0.575315 0.5
53 3 0.437587 0.573815 0.5
57 3 0.859316 0.529376 0.5
51 3 0.982616 0.558073 0.5
68 4 0.514786 0.603015 0.5
70 4 0.480837 0.594884 0.5
16 1 0.585224 0.613719 0.5
67 4 0.808032 0.595458 0.5
25 2 0.106614 0.642545 0.5
17 1 0.897403 0.654911 0.5
43 3 0.0496212 0.730392 0.5
61 4 0.0202424 0.681589 0.5
79 4 0.0706688 0.681833 0.5
8 1 0.349091 0.723788 0.5
34 2 0.460876 0.692314 0.5
72 4 0.51892 0.72125 0.5
15 1 0.64452 0.685688 0.5
58 3 0.014037 0.795151 0.5
66 4 0.0114586 0.745266 0.5
21 2 0.232249 0.778153 0.5
33 2 0.220409 0.699472 0.5
60 3 0.287856 0.800558 0.5
47 3 0.623049 0.784559 0.5
56 3 0.710791 0.747462 0.5
12 1 0.808219 0.762853 0.5
54 3 0.0627359 0.812835 0.5
26 2 0.712188 0.804129 0.5
31 2 0.572754 0.883322 0.5
2 1 0.714109 0.827637 0.5
32 2 0.694546 0.911845 0.5
50 3 0.604102 0.833436 0.5
73 4 0.627037 0.913181 0.5
36 2 0.850836 0.879963 0.5
35 2 0.968365 0.844592 0.5
39 2 0.2819 0.897565 0.5
11 1 0.490213 0.91749 0.5
63 4 0.347026 0.949794 0.5
62 4 0.857549 0.954172 0.5
42 3 0.986321 0.987083 0.5
ITEM: TIMESTEP
120
ITEM: NUMBER OF ATOMS
80
ITEM: BOX BOUNDS pp pp pp
-6.2107141455984056e+00 6.2107141455984056e+00
-6.2107141455984056e+00 6.2107141455984056e+00
-1.0000000000000001e-01 1.0000000000000001e-01
ITEM: ATOMS id type xs ys zs
28 2 0.323075 0.0184353 0.5
64 4 0.616769 0.0310069 0.5
1 1 0.0397586 0.054108 0.5
30 2 0.697718 0.0472334 0.5
20 1 0.912989 0.048416 0.5
76 4 0.967857 0.103111 0.5
49 3 0.00526922 0.139857 0.5
4 1 0.105092 0.128383 0.5
40 2 0.314741 0.0925214 0.5
3 1 0.436426 0.144307 0.5
14 1 0.703827 0.145043 0.5
18 1 0.199034 0.179408 0.5
10 1 0.314743 0.187226 0.5
77 4 0.506959 0.175723 0.5
5 1 0.591131 0.173822 0.5
75 4 0.190828 0.261732 0.5
69 4 0.244162 0.25382 0.5
19 1 0.390311 0.248402 0.5
59 3 0.479266 0.247124 0.5
65 4 0.527951 0.221732 0.5
55 3 0.739427 0.231887 0.5
22 2 0.0591114 0.303312 0.5
48 3 0.609644 0.27786 0.5
45 3 0.763235 0.325072 0.5
24 2 0.814912 0.262409 0.5
37 2 0.977871 0.26706 0.5
27 2 0.245756 0.330805 0.5
23 2 0.325895 0.371928 0.5
13 1 0.551046 0.338487 0.5
78 4 0.114737 0.380633 0.5
9 1 0.609373 0.408679 0.5
52 3 0.681554 0.386165 0.5
46 3 0.819728 0.379118 0.5
38 2 0.461416 0.432526 0.5
41 3 0.56075 0.451025 0.5
6 1 0.0491455 0.503244 0.5
7 1 0.200886 0.499835 0.5
80 4 0.281556 0.514202 0.5
44 3 0.487114 0.50955 0.5