ITEM: TIMESTEP
500
ITEM: NUMBER OF ATOMS
57
ITEM: BOX BOUNDS pp pp pp
-4.8079775636374054e+00 4.8079775636374054e+00
-4.8066268080800620e+00 4.8066268080800620e+00
-1.0000000000000001e-01 1.0000000000000001e-01
ITEM: ATOMS id type xs ys zs
64 1 0.0385969 0.0429328 0.499213
23 1 0.199205 0.0546862 0.499256
56 1 0.309017 0.0734317 0.499405
76 1 0.433111 0.0348327 0.500213
80 1 0.382481 0.056726 0.500017
60 1 0.492971 0.0873887 0.500154
1 1 0.610691 0.0324687 0.50087
22 1 0.765419 0.00748304 0.498939
3 1 0.941587 0.107066 0.500821
35 1 0.104317 0.106543 0.499138
42 1 0.0293832 0.201614 0.500981
4 1 0.23439 0.188242 0.500352
6 1 0.407415 0.162621 0.50066
19 1 0.56653 0.184547 0.500409
40 1 0.851984 0.223759 0.500946
48 1 0.064164 0.297866 0.500127
33 1 0.225273 0.323941 0.499834
51 1 0.335611 0.257264 0.49935
25 1 0.476394 0.291335 0.502111
5 1 0.625337 0.323288 0.499801
67 1 0.945815 0.219443 0.500521
39 1 0.112108 0.390236 0.49911
7 1 0.363395 0.377897 0.501925
36 1 0.519802 0.406244 0.500694
15 1 0.786157 0.349816 0.499402
9 1 0.937668 0.32013 0.499182
62 1 0.122772 0.483441 0.498795
8 1 0.234744 0.463172 0.501437
77 1 0.334129 0.52939 0.500591
32 1 0.430301 0.507387 0.501229
55 1 0.526938 0.552963 0.499548
70 1 0.522942 0.494005 0.501259
20 1 0.641909 0.478579 0.500025
13 1 0.0119092 0.614648 0.500318
52 1 0.123546 0.560166 0.500332
30 1 0.359652 0.622369 0.500957
10 1 0.591142 0.658085 0.500343
41 1 0.046464 0.733845 0.499345
14 1 0.152187 0.677101 0.500494
12 1 0.299083 0.746483 0.499662
16 1 0.694326 0.76725 0.499319
27 1 0.836212 0.772393 0.499223
57 1 0.950416 0.768038 0.500275
31 1 0.0279762 0.850896 0.501095
17 1 0.168187 0.832642 0.498474
21 1 0.303444 0.886887 0.498368
28 1 0.411071 0.82579 0.498521
18 1 0.553174 0.805699 0.500457
58 1 0.812787 0.910375 0.498728
26 1 0.900524 0.866307 0.500229
29 1 0.0977906 0.975231 0.499722
45 1 0.204245 0.951577 0.50151
2 1 0.488267 0.95946 0.501396
49 1 0.597465 0.91593 0.499352
37 1 0.69178 0.905665 0.500455
53 1 0.875038 0.99191 0.499533
34 1 0.974216 0.974582 0.500866
ITEM: TIMESTEP
750
ITEM: NUMBER OF ATOMS
57
ITEM: BOX BOUNDS pp pp pp
-4.8067753913249938e+00 4.8067753913249938e+00
-4.8106200025379398e+00 4.8106200025379398e+00
-1.0000000000000001e-01 1.0000000000000001e-01
ITEM: ATOMS id type xs ys zs
64 1 0.0387621 0.0428696 0.499927
23 1 0.199537 0.0547941 0.498075
56 1 0.308756 0.0742786 0.500021
76 1 0.433181 0.035334 0.500317
80 1 0.382682 0.057953 0.501278
60 1 0.492972 0.087697 0.500989
1 1 0.611476 0.0328302 0.502424
22 1 0.76598 0.00814763 0.496929
3 1 0.942492 0.107621 0.501235
35 1 0.104346 0.105628 0.49937
42 1 0.0296304 0.201545 0.499556
4 1 0.234333 0.188367 0.502217
6 1 0.406924 0.163484 0.499408
19 1 0.566978 0.184618 0.500791
40 1 0.852163 0.224726 0.501016
48 1 0.0632746 0.298426 0.50128
33 1 0.226132 0.324058 0.498949
51 1 0.335469 0.257879 0.501661
25 1 0.477601 0.292049 0.503093
5 1 0.624663 0.322428 0.503351
67 1 0.946254 0.220272 0.500895
39 1 0.112843 0.389458 0.499276
7 1 0.364055 0.377932 0.501686
36 1 0.519768 0.406393 0.499978
15 1 0.784982 0.349904 0.5012
9 1 0.936653 0.320651 0.497977
62 1 0.122906 0.482837 0.499732
8 1 0.234722 0.463168 0.49804
77 1 0.333756 0.529898 0.500481
32 1 0.430158 0.507763 0.500677
55 1 0.527552 0.55294 0.49974
70 1 0.523229 0.494404 0.500057
20 1 0.641503 0.478424 0.499544
13 1 0.0121451 0.614698 0.501522
52 1 0.123488 0.559411 0.501206
30 1 0.35943 0.622338 0.501597
10 1 0.591187 0.659111 0.501706
41 1 0.0468189 0.733947 0.499111
14 1 0.152805 0.677082 0.500781
12 1 0.299676 0.746542 0.49793
16 1 0.694193 0.768268 0.497893
27 1 0.836208 0.773264 0.499977
57 1 0.950997 0.768262 0.500212
31 1 0.0284132 0.851416 0.502084
17 1 0.168517 0.832331 0.500478
21 1 0.303655 0.886635 0.498269
28 1 0.410973 0.825038 0.499324
18 1 0.553104 0.807128 0.499849
58 1 0.813015 0.910593 0.498351
26 1 0.900864 0.866849 0.499451
29 1 0.0977067 0.974676 0.498248
45 1 0.204527 0.951453 0.501771
2 1 0.488471 0.9602 0.501332
49 1 0.59759 0.916767 0.499777
37 1 0.692317 0.906458 0.500248
53 1 0.87556 0.992345 0.500326
34 1 0.973909 0.975252 0.499652
ITEM: TIMESTEP
1000
ITEM: NUMBER OF ATOMS
57
ITEM: BOX BOUNDS pp pp pp
-4.8055732190125822e+00 4.8055732190125822e+00
-4.8130971718160058e+00 4.8130971718160058e+00
-1.0000000000000001e-01 1.0000000000000001e-01
ITEM: ATOMS id type xs ys zs
64 1 0.0395984 0.0420187 0.500383
23 1 0.199511 0.0544223 0.49875
56 1 0.308785 0.0743642 0.499394
76 1 0.433108 0.0363485 0.499184
80 1 0.382625 0.0587062 0.502106
60 1 0.492732 0.0886425 0.50129
1 1 0.610933 0.0335449 0.503749
22 1 0.766322 0.00864419 0.496496
3 1 0.943499 0.107093 0.501346
35 1 0.104055 0.106166 0.498399
42 1 0.0306886 0.201717 0.502581
4 1 0.235512 0.188166 0.502627
6 1 0.407699 0.164004 0.498131
19 1 0.567644 0.184713 0.500908
40 1 0.852396 0.223672 0.500601
48 1 0.0643802 0.298597 0.500645
33 1 0.226503 0.323088 0.497966
51 1 0.336064 0.258044 0.501217
25 1 0.478545 0.291348 0.50324
5 1 0.62475 0.323951 0.504539
67 1 0.946512 0.219116 0.502691
39 1 0.112871 0.390094 0.501288
7 1 0.364797 0.377486 0.502543
36 1 0.519684 0.406168 0.498429
15 1 0.786142 0.348919 0.501387
9 1 0.937231 0.319865 0.497283
62 1 0.12363 0.482698 0.500727
8 1 0.235795 0.462716 0.496397
77 1 0.333779 0.530542 0.500595
32 1 0.429563 0.507654 0.500382
55 1 0.527228 0.552794 0.500345
70 1 0.522407 0.494006 0.499056
20 1 0.641464 0.479011 0.500052
13 1 0.0131971 0.614321 0.501599
52 1 0.124348 0.559406 0.503463
30 1 0.360587 0.623509 0.500907
10 1 0.590642 0.658483 0.50157
41 1 0.046688 0.733814 0.498818
14 1 0.153034 0.677215 0.500814
12 1 0.300009 0.746806 0.497332
16 1 0.694182 0.76838 0.498047
27 1 0.836104 0.774282 0.499872
57 1 0.950802 0.768348 0.496696
31 1 0.0285147 0.850971 0.504321
17 1 0.169528 0.832365 0.498868
21 1 0.304784 0.886797 0.498686
28 1 0.411325 0.825533 0.497118
18 1 0.553738 0.807349 0.50062
58 1 0.813958 0.911243 0.498216
26 1 0.901135 0.867142 0.501775
29 1 0.0984944 0.974262 0.499525
45 1 0.205404 0.951488 0.501084
2 1 0.488118 0.960889 0.502046
49 1 0.597593 0.917276 0.49983
37 1 0.691769 0.90738 0.499786
53 1 0.876088 0.992559 0.498057
34 1 0.974529 0.974316 0.49964
ITEM: TIMESTEP
1250
ITEM: NUMBER OF ATOMS
57
ITEM: BOX BOUNDS pp pp pp
-4.8043710467001706e+00 4.8043710467001706e+00
-4.8156044562095541e+00 4.8156044562095541e+00
-1.0000000000000001e-01 1.0000000000000001e-01
ITEM: ATOMS id type xs ys zs
64 1 0.0390846 0.0422557 0.501175
23 1 0.200421 0.0540225 0.499366
56 1 0.30914 0.0761215 0.498619
76 1 0.433015 0.0365163 0.500654
80 1 0.382464 0.0575964 0.501144
60 1 0.493333 0.0881473 0.502127
1 1 0.610994 0.0330757 0.503777
22 1 0.766088 0.00748912 0.497373
3 1 0.942936 0.106753 0.501665
35 1 0.104695 0.105437 0.496181
42 1 0.0301022 0.201661 0.50254
4 1 0.235109 0.187488 0.502092
6 1 0.407841 0.163461 0.498899
19 1 0.568349 0.184542 0.499408
40 1 0.852275 0.223857 0.500257
48 1 0.0644433 0.298267 0.500916
33 1 0.22787 0.322768 0.497959
51 1 0.335585 0.257534 0.501253
25 1 0.479822 0.291374 0.502297
5 1 0.624735 0.324624 0.505888
67 1 0.946069 0.219431 0.502135
39 1 0.114354 0.389441 0.503429
7 1 0.366452 0.376784 0.503056
36 1 0.518953 0.406503 0.498741
15 1 0.786307 0.349529 0.499047
9 1 0.937689 0.319631 0.497071
62 1 0.124936 0.482412 0.502388
8 1 0.236908 0.462031 0.498359
77 1 0.33423 0.53112 0.499319
32 1 0.429846 0.507928 0.499327
55 1 0.527762 0.553234 0.499387
70 1 0.52294 0.494642 0.498008
20 1 0.641392 0.479393 0.500462
13 1 0.0125441 0.614342 0.502539
52 1 0.124589 0.559201 0.503472
30 1 0.361416 0.623323 0.500477
10 1 0.590681 0.658822 0.501057
41 1 0.0459984 0.733391 0.500111
14 1 0.152316 0.67682 0.502195
12 1 0.299512 0.746488 0.498105
16 1 0.693724 0.768047 0.497006
27 1 0.835775 0.775034 0.499097
57 1 0.950394 0.768428 0.495549
31 1 0.0289001 0.850623 0.506799
17 1 0.16904 0.832521 0.496134
21 1 0.304627 0.886197 0.498743
28 1 0.411608 0.82413 0.496671
18 1 0.553735 0.807493 0.499875
58 1 0.813762 0.910155 0.501998
26 1 0.901295 0.866939 0.500413
29 1 0.098526 0.974431 0.499201
45 1 0.205572 0.951266 0.499049
2 1 0.487638 0.961005 0.503435
49 1 0.596971 0.917033 0.501022
37 1 0.691657 0.906536 0.501567
53 1 0.875885 0.991863 0.498731
34 1 0.974859 0.974335 0.498793
ITEM: TIMESTEP
1500
ITEM: NUMBER OF ATOMS
57
ITEM: BOX BOUNDS pp pp pp
-4.8031688743877590e+00 4.8031688743877590e+00
-4.8153848759481104e+00 4.8153848759481104e+00
-1.0000000000000001e-01 1.0000000000000001e-01
ITEM: ATOMS id type xs ys zs
64 1 0.0390924 0.0422304 0.501281
23 1 0.200147 0.0547468 0.500814
56 1 0.309374 0.0761893 0.498413
76 1 0.433036 0.0366804 0.498384
80 1 0.382767 0.0592902 0.500026
60 1 0.493426 0.0884442 0.502763
1 1 0.611295 0.0326463 0.502133
22 1 0.765783 0.0070993 0.496706
3 1 0.94244 0.10677 0.502599
35 1 0.103626 0.105968 0.497065
42 1 0.0304847 0.200656 0.504616
4 1 0.236169 0.187952 0.502015
6 1 0.40857 0.164184 0.499027
19 1 0.569011 0.184837 0.500358
40 1 0.852348 0.223899 0.500625
48 1 0.0642862 0.297519 0.500341
33 1 0.227691 0.323575 0.497297
51 1 0.336388 0.25777 0.501946
25 1 0.480481 0.292064 0.502978
5 1 0.625454 0.323979 0.504926
67 1 0.946325 0.219108 0.502623
39 1 0.113749 0.388853 0.502731
7 1 0.366329 0.377251 0.503359
36 1 0.519595 0.406766 0.499129
15 1 0.786113 0.349722 0.500593
9 1 0.937291 0.319498 0.49697
62 1 0.123615 0.481825 0.501707
8 1 0.236539 0.462169 0.499566
77 1 0.333823 0.532311 0.498578
32 1 0.429783 0.507854 0.498285
55 1 0.526296 0.553047 0.499434
70 1 0.522477 0.494615 0.498621
20 1 0.640923 0.479737 0.501463
13 1 0.0124147 0.613826 0.501074
52 1 0.123539 0.558776 0.504258
30 1 0.362488 0.624312 0.500336
10 1 0.589563 0.658979 0.500227
41 1 0.0456482 0.732805 0.501154
14 1 0.151637 0.677016 0.503503
12 1 0.298706 0.74584 0.497756
16 1 0.693687 0.767225 0.498296
27 1 0.835805 0.773358 0.499294
57 1 0.950204 0.768138 0.497401
31 1 0.028782 0.850527 0.506219
17 1 0.168434 0.832586 0.494811
21 1 0.304178 0.886017 0.498644
28 1 0.4106 0.823355 0.496657
18 1 0.553275 0.806779 0.499016
58 1 0.813601 0.91031 0.502952
26 1 0.901193 0.866504 0.497906
29 1 0.0988266 0.974915 0.498195
45 1 0.205571 0.951804 0.500482
2 1 0.487781 0.960948 0.503862
49 1 0.596553 0.917295 0.499568
37 1 0.691041 0.905659 0.503354
53 1 0.875434 0.992284 0.497907
34 1 0.974529 0.974106 0.497258
ITEM: TIMESTEP
1750
ITEM: NUMBER OF ATOMS
57
ITEM: BOX BOUNDS pp pp pp
-4.8019667020753474e+00 4.8019667020753474e+00
-4.8141620176275808e+00 4.8141620176275808e+00
-1.0000000000000001e-01 1.0000000000000001e-01
ITEM: ATOMS id type xs ys zs
64 1 0.0388421 0.041917 0.502494
23 1 0.199872 0.05393 0.501994
56 1 0.308773 0.0745982 0.499452
76 1 0.432649 0.0357093 0.499354
80 1 0.382526 0.0589606 0.501782
60 1 0.49308 0.0884394 0.5022
1 1 0.611825 0.033239 0.503496
22 1 0.765151 0.00832511 0.495701
3 1 0.942279 0.106615 0.503941
35 1 0.104243 0.105754 0.49801
42 1 0.0305166 0.200911 0.50315
4 1 0.235229 0.18814 0.50189
6 1 0.407492 0.163998 0.499892
19 1 0.568367 0.184877 0.501057
40 1 0.851955 0.223586 0.501228
48 1 0.0646718 0.297537 0.497782
33 1 0.227313 0.32285 0.499004
51 1 0.33588 0.25779 0.504724
25 1 0.478813 0.291716 0.504666
5 1 0.62485 0.324502 0.507395
67 1 0.946456 0.218977 0.503595
39 1 0.113391 0.389345 0.50191
7 1 0.365399 0.377132 0.503503
36 1 0.519079 0.407154 0.498766
15 1 0.786256 0.349786 0.498728
9 1 0.937584 0.31934 0.499477
62 1 0.123907 0.48244 0.502221
8 1 0.236458 0.462628 0.498643
77 1 0.333779 0.531268 0.501299
32 1 0.428977 0.507186 0.498947
55 1 0.52591 0.553428 0.500682
70 1 0.522181 0.494735 0.499492
20 1 0.640754 0.479351 0.501876
13 1 0.0120595 0.614564 0.502206
52 1 0.123009 0.558917 0.502312
30 1 0.361309 0.623482 0.501531
10 1 0.589132 0.658817 0.499707
41 1 0.0461302 0.733131 0.499165
14 1 0.152086 0.676252 0.503635
12 1 0.29824 0.745665 0.496875
16 1 0.693419 0.767386 0.499941
27 1 0.835185 0.773792 0.49945
57 1 0.950076 0.76779 0.497132
31 1 0.0283509 0.849971 0.50567
17 1 0.168303 0.832131 0.494112
21 1 0.303623 0.88589 0.497816
28 1 0.411084 0.823235 0.498858
18 1 0.553295 0.807396 0.497395
58 1 0.813327 0.91138 0.501854
26 1 0.90073 0.866184 0.49804
29 1 0.0982951 0.97447 0.496704
45 1 0.204609 0.95096 0.501395
2 1 0.488927 0.961206 0.506731
49 1 0.597725 0.917094 0.499549
37 1 0.691978 0.906096 0.503954
53 1 0.875317 0.992217 0.498035
34 1 0.974408 0.973455 0.497723
ITEM: TIMESTEP
2000
ITEM: NUMBER OF ATOMS
57
ITEM: BOX BOUNDS pp pp pp
-4.8007645297629358e+00 4.8007645297629358e+00
-4.8170333546891504e+00 4.8170333546891504e+00
-1.0000000000000001e-01 1.0000000000000001e-01
ITEM: ATOMS id type xs ys zs
64 1 0.0391546 0.0416108 0.501684
23 1 0.200122 0.0533487 0.501683
56 1 0.309106 0.0749867 0.499805
76 1 0.43361 0.0369555 0.49975
80 1 0.383022 0.0589003 0.500389
60 1 0.493777 0.088869 0.502647
1 1 0.611382 0.033364 0.502847
22 1 0.765864 0.00843892 0.494816
3 1 0.942713 0.106782 0.503382
35 1 0.10443 0.105279 0.498481
42 1 0.0299347 0.20159 0.503218
4 1 0.236315 0.18751 0.50071
6 1 0.408023 0.163977 0.498968
19 1 0.568144 0.184973 0.501964
40 1 0.851823 0.222715 0.500963
48 1 0.0643849 0.297916 0.498142
33 1 0.226634 0.323131 0.4994
51 1 0.336837 0.258341 0.505204
25 1 0.479743 0.292214 0.502435
5 1 0.624745 0.324555 0.507346
67 1 0.945829 0.219057 0.505087
39 1 0.113206 0.389351 0.501497
7 1 0.365162 0.377534 0.502147
36 1 0.518991 0.407361 0.499813
15 1 0.785657 0.348714 0.497179
9 1 0.937223 0.318963 0.497122
62 1 0.122808 0.481925 0.50485
8 1 0.235331 0.462935 0.497698
77 1 0.334602 0.529994 0.500385
32 1 0.430467 0.507237 0.497106
55 1 0.52723 0.554168 0.500982
70 1 0.523178 0.495427 0.498885
20 1 0.641675 0.479585 0.502672
13 1 0.0115478 0.615502 0.501669
52 1 0.122542 0.558954 0.503268
30 1 0.359773 0.622508 0.504423
10 1 0.590264 0.659835 0.500572
41 1 0.0468338 0.733708 0.497698
14 1 0.152706 0.675733 0.503275
12 1 0.298946 0.746077 0.498167
16 1 0.694239 0.76833 0.501169
27 1 0.835645 0.773982 0.501435
57 1 0.950882 0.768123 0.498284
31 1 0.0284374 0.85118 0.505359
17 1 0.168369 0.831092 0.491759
21 1 0.303484 0.885815 0.498614
28 1 0.410758 0.823814 0.497566
18 1 0.553383 0.808044 0.496569
58 1 0.813035 0.910933 0.501644
26 1 0.900629 0.866848 0.497756
29 1 0.0984535 0.974346 0.496247
45 1 0.204267 0.950088 0.502391
2 1 0.48846 0.961321 0.505949
49 1 0.597036 0.917692 0.499825
37 1 0.691772 0.906879 0.50401
53 1 0.875453 0.992722 0.497429
34 1 0.974171 0.974547 0.498503
ITEM: TIMESTEP
2250
ITEM: NUMBER OF ATOMS
57
ITEM: BOX BOUNDS pp pp pp
-4.7995623574505242e+00 4.7995623574505242e+00
-4.8213278061340077e+00 4.8213278061340077e+00
-1.0000000000000001e-01 1.0000000000000001e-01
ITEM: ATOMS id type xs ys zs
64 1 0.0385661 0.0426642 0.501441
23 1 0.199815 0.0536394 0.501758
56 1 0.308898 0.0757356 0.500802
76 1 0.433861 0.0376804 0.501117
80 1 0.382856 0.0589956 0.500703
60 1 0.494442 0.0888786 0.500645
1 1 0.61231 0.0329627 0.501648
22 1 0.764622 0.00668343 0.495594
3 1 0.941819 0.106787 0.504291
35 1 0.104675 0.106175 0.498209
42 1 0.0297687 0.200873 0.503095
4 1 0.236545 0.187139 0.502967
6 1 0.408523 0.164288 0.497932
19 1 0.568786 0.184907 0.501906
40 1 0.851751 0.22377 0.503253
48 1 0.0637122 0.297241 0.497815
33 1 0.227082 0.322677 0.500341
51 1 0.336567 0.258439 0.50446
25 1 0.480427 0.292503 0.501942
5 1 0.624397 0.324701 0.508777
67 1 0.945772 0.218814 0.506057
39 1 0.113212 0.388378 0.499669
7 1 0.366654 0.378098 0.500311
36 1 0.519115 0.407901 0.499913
15 1 0.785508 0.349658 0.493862
9 1 0.936631 0.319471 0.498848
62 1 0.123442 0.481566 0.505675
8 1 0.235846 0.461855 0.497262
77 1 0.333392 0.530527 0.500907
32 1 0.430035 0.508761 0.495691
55 1 0.526972 0.553871 0.499479
70 1 0.522835 0.495187 0.497522
20 1 0.641409 0.479554 0.503212
13 1 0.0120758 0.615057 0.500158
52 1 0.122085 0.558222 0.5033
30 1 0.359742 0.623365 0.505603
10 1 0.588636 0.660115 0.501652
41 1 0.0466778 0.734386 0.497588
14 1 0.151849 0.675587 0.502133
12 1 0.298487 0.745372 0.496599
16 1 0.693391 0.76757 0.500551
27 1 0.835887 0.773699 0.50141
57 1 0.950564 0.768544 0.499723
31 1 0.0284987 0.851623 0.505827
17 1 0.16859 0.83141 0.491545
21 1 0.303362 0.885483 0.49809
28 1 0.41008 0.82364 0.49619
18 1 0.552598 0.807632 0.498512
58 1 0.813732 0.910865 0.500262
26 1 0.900629 0.8666 0.496169
29 1 0.097748 0.974758 0.49427
45 1 0.204665 0.951006 0.502278
2 1 0.488273 0.961716 0.503904
49 1 0.596991 0.917588 0.499186
37 1 0.691221 0.90516 0.504701
53 1 0.874918 0.99325 0.498656
34 1 0.973846 0.974856 0.498634
ITEM: TIMESTEP
2500
ITEM: NUMBER OF ATOMS
57
ITEM: BOX BOUNDS pp pp pp
-4.7983601851381126e+00 4.7983601851381126e+00
-4.8193976905396276e+00 4.8193976905396276e+00
-1.0000000000000001e-01 1.0000000000000001e-01
ITEM: ATOMS id type xs ys zs
64 1 0.0385006 0.0426436 0.501566
23 1 0.200017 0.0540223 0.503557
56 1 0.309368 0.0758351 0.500132
76 1 0.434241 0.0373734 0.50198
80 1 0.383178 0.0586849 0.500759
60 1 0.495495 0.0885957 0.500211
1 1 0.613136 0.0331882 0.501898
22 1 0.764765 0.00780154 0.494716
3 1 0.941417 0.107348 0.50409
35 1 0.104537 0.105741 0.497963
42 1 0.0295175 0.200633 0.502979
4 1 0.237571 0.187144 0.502553
6 1 0.409766 0.16386 0.499426
19 1 0.570414 0.184987 0.501954
40 1 0.851599 0.223522 0.501772
48 1 0.063714 0.297055 0.498288
33 1 0.227315 0.321706 0.50024
51 1 0.337221 0.258146 0.50722
25 1 0.479982 0.29162 0.503885
5 1 0.62448 0.324921 0.505462
67 1 0.945682 0.218885 0.507056
39 1 0.113828 0.388189 0.496458
7 1 0.365817 0.377342 0.500741
36 1 0.518313 0.407108 0.501135
15 1 0.785426 0.348762 0.495503
9 1 0.936683 0.319344 0.498959
62 1 0.123759 0.481931 0.505099
8 1 0.235983 0.460949 0.49672
77 1 0.333541 0.529535 0.500051
32 1 0.429092 0.508702 0.495742
55 1 0.526398 0.55325 0.501691
70 1 0.521946 0.494677 0.497424
20 1 0.640392 0.479913 0.502341
13 1 0.0114078 0.614889 0.499001
52 1 0.122329 0.558979 0.504218
30 1 0.35766 0.622924 0.506023
10 1 0.588436 0.659823 0.502278
41 1 0.0465228 0.734102 0.497155
14 1 0.152466 0.676193 0.50001
12 1 0.298688 0.747156 0.498367
16 1 0.693354 0.767586 0.500645
27 1 0.835862 0.773119 0.502163
57 1 0.950387 0.768025 0.499892
31 1 0.0274021 0.851053 0.504018
17 1 0.16792 0.832135 0.492106
21 1 0.304022 0.887195 0.495878
28 1 0.410628 0.824569 0.496193
18 1 0.553022 0.808277 0.498667
58 1 0.812656 0.911276 0.499601
26 1 0.90021 0.86653 0.495973
29 1 0.0977944 0.975198 0.49428
45 1 0.204255 0.950951 0.501484
2 1 0.488946 0.961645 0.503873
49 1 0.59756 0.917896 0.498128
37 1 0.691827 0.905865 0.504858
53 1 0.874736 0.992293 0.497388
34 1 0.973528 0.974902 0.496699
ITEM: TIMESTEP
2750
ITEM: NUMBER OF ATOMS
57
ITEM: BOX BOUNDS pp pp pp
-4.7971580128257010e+00 4.7971580128257010e+00
-4.8160799266146119e+00 4.8160799266146119e+00
-1.0000000000000001e-01 1.0000000000000001e-01
ITEM: ATOMS id type xs ys zs
64 1 0.0384598 0.0421461 0.501953
23 1 0.200349 0.0534326 0.502043
56 1 0.30945 0.075558 0.497886
76 1 0.433527 0.0368564 0.501429
80 1 0.383148 0.0589774 0.501092
60 1 0.494709 0.0885736 0.498893
1 1 0.613179 0.0323766 0.500229
22 1 0.765389 0.0079826 0.496673
3 1 0.941338 0.106495 0.500954
35 1 0.10426 0.105025 0.49858
42 1 0.0293153 0.2002 0.501876
4 1 0.236169 0.187045 0.502089
6 1 0.409015 0.163628 0.499564
19 1 0.569636 0.184395 0.501871
40 1 0.851088 0.223206 0.501413
48 1 0.0641831 0.296112 0.498185
33 1 0.227365 0.321846 0.500425
51 1 0.336757 0.257959 0.509498
25 1 0.480407 0.291566 0.504958
5 1 0.624754 0.324621 0.507417
67 1 0.945273 0.218993 0.507813
39 1 0.113342 0.387739 0.496358
7 1 0.366045 0.377588 0.501769
36 1 0.518604 0.407122 0.501803
15 1 0.785532 0.349409 0.495894
9 1 0.936981 0.319534 0.497882
62 1 0.123011 0.481036 0.506221
8 1 0.23522 0.46158 0.49754
77 1 0.333003 0.530475 0.500416
32 1 0.428899 0.507937 0.495781
55 1 0.526057 0.553087 0.501076
70 1 0.521728 0.494499 0.498141
20 1 0.640286 0.47948 0.500544
13 1 0.0109442 0.615611 0.499211
52 1 0.121403 0.55812 0.50488
30 1 0.357505 0.622894 0.506608
10 1 0.588155 0.659738 0.502406
41 1 0.0462807 0.733959 0.49535
14 1 0.151321 0.675872 0.498678
12 1 0.297928 0.74566 0.499201
16 1 0.693522 0.766983 0.501434
27 1 0.835801 0.772494 0.504092
57 1 0.950328 0.76855 0.500085
31 1 0.0277382 0.851359 0.504147
17 1 0.168428 0.831797 0.492995
21 1 0.302957 0.885426 0.496661
28 1 0.409913 0.825153 0.497043
18 1 0.552825 0.807598 0.496694
58 1 0.8116 0.910438 0.500115
26 1 0.899843 0.867029 0.496376
29 1 0.0980645 0.97484 0.49445
45 1 0.204035 0.950181 0.500686
2 1 0.48912 0.961322 0.501327
49 1 0.598242 0.916987 0.498788
37 1 0.692699 0.905019 0.504855
53 1 0.874888 0.991813 0.499161
34 1 0.973755 0.974588 0.496142
ITEM: TIMESTEP
3000
ITEM: NUMBER OF ATOMS
57
ITEM: BOX BOUNDS pp pp pp
-4.7959558405132894e+00 4.7959558405132894e+00
-4.8173656873400654e+00 4.8173656873400654e+00
-1.0000000000000001e-01 1.0000000000000001e-01
ITEM: ATOMS id type xs ys zs
64 1 0.0384128 0.0416405 0.50392
23 1 0.199812 0.0531778 0.502164
56 1 0.308997 0.0752396 0.498405
76 1 0.433386 0.0359782 0.503596
80 1 0.382755 0.0588517 0.501563
60 1 0.494026 0.0882273 0.499632
1 1 0.611717 0.032442 0.501079
22 1 0.76394 0.00793662 0.497759
3 1 0.941994 0.106864 0.499181
35 1 0.104566 0.105083 0.497754
42 1 0.0297679 0.201329 0.502421
4 1 0.235013 0.187082 0.502833
6 1 0.408183 0.163467 0.500323
19 1 0.569114 0.18437 0.500827
40 1 0.851096 0.22361 0.5004
48 1 0.0644702 0.297262 0.496543
33 1 0.225968 0.321581 0.500915
51 1 0.335694 0.256938 0.508388
25 1 0.480218 0.291595 0.504016
5 1 0.62444 0.324351 0.506304
67 1 0.945319 0.219015 0.507817
39 1 0.112625 0.388867 0.496898
7 1 0.365029 0.376211 0.501244
36 1 0.518376 0.407575 0.502405
15 1 0.786056 0.349913 0.494854
9 1 0.937219 0.319058 0.494963
62 1 0.12333 0.481737 0.507496
8 1 0.234911 0.460748 0.497921
77 1 0.332485 0.529122 0.500631
32 1 0.42829 0.507231 0.495973
55 1 0.525337 0.55369 0.499488
70 1 0.52164 0.494924 0.497941
20 1 0.640553 0.479538 0.499239
13 1 0.0111514 0.614576 0.498403
52 1 0.121267 0.558296 0.504491
30 1 0.357092 0.622058 0.507927
10 1 0.588007 0.65921 0.50321
41 1 0.0461479 0.733662 0.494463
14 1 0.151689 0.676385 0.499001
12 1 0.298052 0.746335 0.498745
16 1 0.693147 0.766516 0.501141
27 1 0.835305 0.771846 0.503858
57 1 0.949788 0.76784 0.500235
31 1 0.0274508 0.850947 0.503799
17 1 0.168344 0.832391 0.492465
21 1 0.303622 0.886386 0.496403
28 1 0.410077 0.823987 0.496426
18 1 0.552938 0.807166 0.496654
58 1 0.812034 0.911158 0.499548
26 1 0.899507 0.866166 0.49701
29 1 0.0977362 0.973866 0.494034
45 1 0.204017 0.950279 0.500651
2 1 0.488283 0.960619 0.502193
49 1 0.596732 0.917122 0.498262
37 1 0.691284 0.905279 0.505079
53 1 0.87412 0.992805 0.499288
34 1 0.973044 0.974213 0.494255
ITEM: TIMESTEP
3250
ITEM: NUMBER OF ATOMS
57
ITEM: BOX BOUNDS pp pp pp
-4.7947536682008778e+00 4.7947536682008778e+00
-4.8217007817234556e+00 4.8217007817234556e+00
-1.0000000000000001e-01 1.0000000000000001e-01
ITEM: ATOMS id type xs ys zs
64 1 0.0378966 0.0418173 0.504413
23 1 0.199356 0.0528333 0.503209
56 1 0.308529 0.0763322 0.498168
76 1 0.433103 0.0371847 0.504142
80 1 0.382005 0.0584318 0.502897
60 1 0.493244 0.0889165 0.497565
1 1 0.611377 0.0328152 0.501301
22 1 0.764243 0.00846588 0.498057
3 1 0.941627 0.106611 0.500221
35 1 0.103334 0.105265 0.498412
42 1 0.02937 0.200872 0.501805
4 1 0.234416 0.186352 0.505045
6 1 0.407836 0.16339 0.500683
19 1 0.56875 0.18463 0.502313
40 1 0.851176 0.223685 0.500898
48 1 0.06378 0.297117 0.497072
33 1 0.225415 0.321081 0.501461
51 1 0.335214 0.25649 0.509437
25 1 0.479338 0.291502 0.504288
5 1 0.623693 0.324447 0.50501
67 1 0.945138 0.218477 0.506927
39 1 0.112305 0.388744 0.496247
7 1 0.364308 0.37655 0.501334
36 1 0.518249 0.407229 0.503839
15 1 0.784796 0.349071 0.493889
9 1 0.936436 0.319453 0.49412
62 1 0.122133 0.482073 0.508284
8 1 0.234669 0.460826 0.49626
77 1 0.332727 0.529114 0.49987
32 1 0.428675 0.506595 0.497353
55 1 0.52612 0.553654 0.499783
70 1 0.521719 0.494871 0.499583
20 1 0.640328 0.479032 0.500648
13 1 0.0115441 0.615124 0.496185
52 1 0.122342 0.558886 0.504356
30 1 0.357373 0.621764 0.507018
10 1 0.588293 0.659828 0.503202
41 1 0.0462762 0.73377 0.493944
14 1 0.152531 0.675828 0.499575
12 1 0.297644 0.74577 0.498415
16 1 0.692752 0.767406 0.501535
27 1 0.83558 0.771973 0.503294
57 1 0.949738 0.768162 0.500095
31 1 0.0267721 0.851241 0.502774
17 1 0.166638 0.831298 0.493645
21 1 0.303036 0.885627 0.496509
28 1 0.409397 0.8238 0.496428
18 1 0.552151 0.807544 0.495855
58 1 0.812033 0.911677 0.497842
26 1 0.899301 0.866286 0.497227
29 1 0.096919 0.974513 0.493716
45 1 0.203038 0.949665 0.499859
2 1 0.487622 0.961266 0.501705
49 1 0.596662 0.917387 0.499684
37 1 0.691002 0.90557 0.505217
53 1 0.874078 0.993312 0.49874
34 1 0.972678 0.974685 0.493808
ITEM: TIMESTEP
3500
ITEM: NUMBER OF ATOMS
57
ITEM: BOX BOUNDS pp pp pp
-4.7935514958884662e+00 4.7935514958884662e+00
-4.8226851935920161e+00 4.8226851935920161e+00
-1.0000000000000001e-01 1.0000000000000001e-01
ITEM: ATOMS id type xs ys zs
64 1 0.0376898 0.0414106 0.505915
23 1 0.199593 0.0528522 0.504429
56 1 0.308256 0.0769889 0.496803
76 1 0.433134 0.0382288 0.504502
80 1 0.381901 0.0590248 0.501211
60 1 0.494129 0.0888711 0.498602
1 1 0.611529 0.0330459 0.500979
22 1 0.763518 0.00779504 0.497065
3 1 0.941263 0.106881 0.501478
35 1 0.104117 0.104545 0.497277
42 1 0.0286461 0.201103 0.50211
4 1 0.23351 0.187301 0.506361
6 1 0.408423 0.164057 0.49897
19 1 0.56883 0.185018 0.501991
40 1 0.85075 0.22368 0.500957
48 1 0.0635567 0.297054 0.495532
33 1 0.223591 0.322439 0.503329
51 1 0.334989 0.256957 0.511361
25 1 0.479033 0.291575 0.504649
5 1 0.624276 0.323846 0.506527
67 1 0.944608 0.219053 0.505067
39 1 0.110456 0.389328 0.496452
7 1 0.363532 0.376137 0.49835
36 1 0.518296 0.406732 0.502619
15 1 0.785013 0.349871 0.494316
9 1 0.93668 0.319242 0.493593
62 1 0.121705 0.481963 0.506236
8 1 0.234134 0.461707 0.496752
77 1 0.331928 0.530211 0.500028
32 1 0.428339 0.506736 0.497379
55 1 0.525072 0.553267 0.499836
70 1 0.521925 0.494732 0.499031
20 1 0.640645 0.479029 0.499538
13 1 0.0108569 0.615942 0.496435
52 1 0.120762 0.558705 0.503246
30 1 0.358434 0.622137 0.507607
10 1 0.589548 0.659014 0.504679
41 1 0.0461428 0.734676 0.495207
14 1 0.151971 0.675674 0.499348
12 1 0.298558 0.745943 0.497607
16 1 0.693168 0.767189 0.501724
27 1 0.834782 0.773983 0.502221
57 1 0.950044 0.768668 0.5003
31 1 0.0272761 0.851708 0.504088
17 1 0.167151 0.831385 0.491849
21 1 0.302922 0.885254 0.497811
28 1 0.410243 0.824846 0.495273
18 1 0.551942 0.806863 0.495861
58 1 0.811758 0.910689 0.499811
26 1 0.899361 0.866562 0.496586
29 1 0.0969906 0.973711 0.492188
45 1 0.203463 0.94974 0.500944
2 1 0.486894 0.962042 0.503444
49 1 0.595554 0.917573 0.499946
37 1 0.690255 0.905841 0.504435
53 1 0.873683 0.99324 0.498537
34 1 0.972547 0.974326 0.493524
ITEM: TIMESTEP
3750
ITEM: NUMBER OF ATOMS
57
ITEM: BOX BOUNDS pp pp pp
-4.7923493235760546e+00 4.7923493235760546e+00
-4.8159253357934935e+00 4.8159253357934935e+00
-1.0000000000000001e-01 1.0000000000000001e-01
ITEM: ATOMS id type xs ys zs
64 1 0.0382037 0.0415405 0.507012
23 1 0.199081 0.0530145 0.505181
56 1 0.308022 0.0773618 0.49805
76 1 0.432808 0.0381211 0.50623
80 1 0.381634 0.0591847 0.500509
60 1 0.493972 0.0888221 0.497773
1 1 0.61121 0.032216 0.500407
22 1 0.763662 0.00727101 0.497132
3 1 0.941558 0.106341 0.501418
35 1 0.10381 0.105177 0.495718
42 1 0.0290922 0.200909 0.502034
4 1 0.232564 0.186881 0.506865
6 1 0.408456 0.164274 0.499288
19 1 0.569455 0.184387 0.500351
40 1 0.85026 0.223295 0.50113
48 1 0.0633081 0.297124 0.49515
33 1 0.225249 0.322499 0.502441
51 1 0.333594 0.256094 0.510222
25 1 0.480481 0.291701 0.504892
5 1 0.624084 0.324306 0.506302
67 1 0.945138 0.218005 0.503513
39 1 0.111829 0.389596 0.495463
7 1 0.364487 0.375647 0.500403
36 1 0.518091 0.407519 0.50355
15 1 0.78504 0.349633 0.497133
9 1 0.936165 0.318676 0.494766
62 1 0.12281 0.482734 0.504225
8 1 0.235066 0.461137 0.497652
77 1 0.33322 0.529763 0.500411
32 1 0.428615 0.50584 0.499544
55 1 0.524532 0.553776 0.499812
70 1 0.522393 0.495032 0.499939
20 1 0.641007 0.479232 0.498302
13 1 0.00977774 0.615735 0.495056
52 1 0.120851 0.55949 0.504885
30 1 0.361359 0.622201 0.505406
10 1 0.58976 0.658053 0.505386
41 1 0.0464954 0.734302 0.496361
14 1 0.151509 0.676475 0.498783
12 1 0.299277 0.745462 0.497191
16 1 0.69361 0.766042 0.503611
27 1 0.835198 0.772357 0.501622
57 1 0.95009 0.767856 0.500184
31 1 0.0275719 0.851147 0.503484
17 1 0.168247 0.831105 0.492179
21 1 0.302931 0.885285 0.498253
28 1 0.410207 0.825659 0.495379
18 1 0.552864 0.806374 0.495925
58 1 0.811805 0.910392 0.498659
26 1 0.899414 0.866418 0.495205
29 1 0.0973111 0.973378 0.490956
45 1 0.204416 0.950056 0.502118
2 1 0.486734 0.961662 0.502621
49 1 0.595521 0.916545 0.498352
37 1 0.69049 0.904566 0.505723
53 1 0.873645 0.991835 0.497889
34 1 0.972891 0.974271 0.49388
ITEM: TIMESTEP
4000
ITEM: NUMBER OF ATOMS
57
ITEM: BOX BOUNDS pp pp pp
-4.7911471512636430e+00 4.7911471512636430e+00
-4.8232138987632842e+00 4.8232138987632842e+00
-1.0000000000000001e-01 1.0000000000000001e-01
ITEM: ATOMS id type xs ys zs
64 1 0.0376215 0.0413955 0.507975
23 1 0.199363 0.0532203 0.504531
56 1 0.308363 0.0781686 0.49923
76 1 0.432243 0.0376476 0.507976
80 1 0.381959 0.0603345 0.500056
60 1 0.493619 0.088614 0.496504
1 1 0.610544 0.0320704 0.499876
22 1 0.763589 0.0071073 0.498429
3 1 0.941314 0.106001 0.50287
35 1 0.103023 0.104892 0.49575
42 1 0.029247 0.200257 0.502505
4 1 0.231901 0.186989 0.505911
6 1 0.408528 0.164765 0.498673
19 1 0.56945 0.184096 0.498777
40 1 0.851199 0.222354 0.501321
48 1 0.0633009 0.297352 0.495207
33 1 0.224346 0.322048 0.501684
51 1 0.333491 0.256082 0.510956
25 1 0.481038 0.291622 0.501366
5 1 0.622833 0.324825 0.506194
67 1 0.945071 0.217815 0.504176
39 1 0.111647 0.389716 0.496824
7 1 0.365003 0.374169 0.499252
36 1 0.518203 0.407817 0.504179
15 1 0.784352 0.346935 0.497486
9 1 0.936174 0.318064 0.496171
62 1 0.12373 0.482435 0.504516
8 1 0.236452 0.460868 0.497839
77 1 0.333566 0.531308 0.49888
32 1 0.428532 0.505679 0.501437
55 1 0.524253 0.554582 0.502342