LAMMPS (23 Jun 2022 - Update 4)
  using 1 OpenMP thread(s) per MPI task
# Compute elastic constant tensor for a crystal
#
# Written by Aidan Thompson (Sandia, athomps@sandia.gov)
#
#  This script uses the following three include files.
#
#   init.mod      (must be modified for different crystal structures)
# 	       	  Define units, deformation parameters and initial
#		  configuration of the atoms and simulation cell.
#
#
#   potential.mod    (must be modified for different pair styles)
# 		     Define pair style and other attributes
#		     not stored in restart file
#
#
#   displace.mod    (displace.mod should not need to be modified)
# 		    Perform positive and negative box displacements
# 		    in direction ${dir} and size ${up}.
# 		    It uses the resultant changes
#		    in stress to compute one
# 		    row of the elastic stiffness tensor
#
#		    Inputs variables:
#		    	   dir = the Voigt deformation component
#		    		    (1,2,3,4,5,6)
#		    Global constants:
#       	    	   up = the deformation magnitude (strain units)
#       		   cfac = conversion from LAMMPS pressure units to
#               	   output units for elastic constants
#
#
#  To run this on a different system, it should only be necessary to
#  modify the files init.mod and potential.mod. In order to calculate
#  the elastic constants correctly, care must be taken to specify
#  the correct units in init.mod (units, cfac and cunits). It is also
#  important to verify that the minimization of energy w.r.t atom
#  positions in the deformed cell is fully converged.
#  One indication of this is that the elastic constants are insensitive
#  to the choice of the variable ${up} in init.mod. Another is to check
#  the final max and two-norm forces reported in the log file. If you know
#  that minimization is not required, you can set maxiter = 0.0 in
#  init.mod.
#



variable dt equal 0.01
variable strain equal 0.05
variable srate equal 1e-4
variable M equal 1000 # averaging time for properties
variable strainsteps equal ${strain}/${dt}/${srate}
variable strainsteps equal 0.05/${dt}/${srate}
variable strainsteps equal 0.05/0.01/${srate}
variable strainsteps equal 0.05/0.01/0.0001


dimension 2
include init.mod
# NOTE: This script can be modified for different atomic structures,
# units, etc. See in.elastic for more info.
#

# Define the finite deformation size. Try several values of this
# variable to verify that results do not depend on it.
variable up equal 1.0e-1

# Define the amount of random jiggle for atoms
# This prevents atoms from staying on saddle points
variable atomjiggle equal 1.0e-6

# Uncomment one of these blocks, depending on what units
# you are using in LAMMPS and for output

# metal units, elastic constants in eV/A^3
#units		metal
#variable cfac equal 6.2414e-7
#variable cunits string eV/A^3

# Choose potential
# metal units, elastic constants in GPa
units		metal
atom_style	full
#pair_style      lj/cut 1.0
#pair_style      yukawa 1.0 2.0
#pair_modify     mix arithmetic
bond_style      harmonic
angle_style     harmonic
dihedral_style  zero
special_bonds   amber
variable cfac equal 1.0e-4
variable cunits string GPa
boundary	p p p

# Need to set mass to something, just to satisfy LAMMPS
#mass 1 1.0e-20
read_data network.lmp
Reading data file ...
  orthogonal box = (-4.808689 -4.808689 -0.1) to (4.808689 4.808689 0.1)
  1 by 1 by 1 MPI processor grid
WARNING: Atom style in data file differs from currently defined atom style (src/read_data.cpp:538)
  reading atoms ...
  57 atoms
WARNING: Bond style in data file differs from currently defined bond style (src/read_data.cpp:630)
  scanning bonds ...
  6 = max bonds/atom
  reading bonds ...
  134 bonds
Finding 1-2 1-3 1-4 neighbors ...
  special bond factors lj:    0        0        0.5     
  special bond factors coul:  0        0        0.8333333333333334
     9 = max # of 1-2 neighbors
    56 = max # of 1-3 neighbors
   355 = max # of 1-4 neighbors
    29 = max # of special neighbors
  special bonds CPU = 0.000 seconds
  read_data CPU = 0.003 seconds

# real units, elastic constants in GPa
#units		real
#variable cfac equal 1.01325e-4
#variable cunits string GPa

# Define minimization parameters
variable etol equal 0.0
variable ftol equal 5.0e-10
variable maxiter equal 100000
variable maxeval equal 20000
variable dmax equal 1.0e-2


include potential.mod
# NOTE: This script can be modified for different pair styles
# See in.elastic for more info.

# Setup neighbor style
neighbor 3.0 nsq
neigh_modify once no every 1 delay 0 check yes
comm_modify cutoff 2.0

# Setup minimization style
min_style	     cg
min_modify	     dmax ${dmax} line quadratic
min_modify	     dmax 0.01 line quadratic

timestep	0.001


# Setup output
thermo		500
thermo_style custom step temp pe ebond eangle edihed press pxx pyy pzz pxy pxz pyz lx ly lz vol
thermo_modify norm no


#change_box all triclinic
comm_modify mode single cutoff 10.0 vel yes
atom_modify sort 0 0



# Compute initial state

#dump rela all atom 1 traj_relax.lmpstrj
fix 3 all box/relax x 0 y 0 # xy 0  #MS comment: relax if the network is periodic
minimize ${etol} ${ftol} ${maxiter} ${maxeval}
minimize 0 ${ftol} ${maxiter} ${maxeval}
minimize 0 5e-10 ${maxiter} ${maxeval}
minimize 0 5e-10 100000 ${maxeval}
minimize 0 5e-10 100000 20000
Neighbor list info ...
  update every 1 steps, delay 0 steps, check yes
  max neighbors/atom: 2000, page size: 100000
  master list distance cutoff = 0
  ghost atom cutoff = 10
  0 neighbor lists, perpetual/occasional/extra = 0 0 0
WARNING: Inconsistent image flags (src/domain.cpp:819)
Per MPI rank memory allocation (min/avg/max) = 8.902 | 8.902 | 8.902 Mbytes
   Step          Temp          PotEng         E_bond        E_angle        E_dihed         Press           Pxx            Pyy            Pzz            Pxy            Pxz            Pyz             Lx             Ly             Lz           Volume    
         0   0              4.1852856e-11  4.1852856e-11  0              0              0.34327134     0.41018969     0.276353       0             -0.060837952    0              0              9.617378       9.617378       0.2            92.49396     
       352   0              6.9741649e-19  6.9741649e-19  0              0              1.054207e-07   2.7764429e-07 -6.6802882e-08  0             -2.7161558e-05  0              0              9.6173785      9.6173782      0.2            92.493966    
Loop time of 0.0179658 on 1 procs for 352 steps with 57 atoms

96.5% CPU use with 1 MPI tasks x 1 OpenMP threads

Minimization stats:
  Stopping criterion = force tolerance
  Energy initial, next-to-last, final = 
    4.18528563740546e-11 7.39654863092955e-19 6.97416488326855e-19
  Force two-norm initial, final = 4.0450868e-05 4.9083624e-10
  Force max component initial, final = 2.368033e-05 1.2334892e-10
  Final line search alpha, max atom move = 1 1.2334892e-10
  Iterations, force evaluations = 352 704

MPI task timing breakdown:
Section |  min time  |  avg time  |  max time  |%varavg| %total
---------------------------------------------------------------
Pair    | 0          | 0          | 0          |   0.0 |  0.00
Bond    | 0.0025594  | 0.0025594  | 0.0025594  |   0.0 | 14.25
Neigh   | 0          | 0          | 0          |   0.0 |  0.00
Comm    | 0.0056094  | 0.0056094  | 0.0056094  |   0.0 | 31.22
Output  | 0          | 0          | 0          |   0.0 |  0.00
Modify  | 0          | 0          | 0          |   0.0 |  0.00
Other   |            | 0.009797   |            |       | 54.53

Nlocal:             57 ave          57 max          57 min
Histogram: 1 0 0 0 0 0 0 0 0 0
Nghost:            490 ave         490 max         490 min
Histogram: 1 0 0 0 0 0 0 0 0 0
Neighs:              0 ave           0 max           0 min
Histogram: 1 0 0 0 0 0 0 0 0 0

Total # of neighbors = 0
Ave neighs/atom = 0
Ave special neighs/atom = 22.280702
Neighbor list builds = 0
Dangerous builds = 0
#dump rela all atom 1 traj_relax.lmpstrj
thermo 100
unfix 3

fix 2d all enforce2d



#dump dump0 all xyz 1000000 cfg0.xyz
#dump_modify dump0 format line "%d %20.10g %20.10g %20.10g"
#minimize ${etol} ${ftol} ${maxiter} ${maxeval}

#undump rela

#write_restart restart.equil

# These formulas define the derivatives w.r.t. strain components
# Constants uses $, variables use v_


timestep        ${dt}
timestep        0.01
variable nsteps equal round(${strainsteps})
variable nsteps equal round(50000)

fix             4 all nve
fix             5 all langevin 0.1 0.1 1 904297
#fix		6 all press/berendsen y  0.0 0.0 1 x 0.0 0.0 10
fix             6 all nph y 0.0 0.0 10 ptemp 0.1 # x 0.0 0.0 10

# For PLUMED2
# fix 22 all plumed plumedfile plumed.dat outfile plumed.out

#fix             6 all nph x 0.0 0.0 10
fix     	9 all deform 1 x erate -${srate} units box remap x
fix     	9 all deform 1 x erate -0.0001 units box remap x

#fix     8 all deform 1 xy erate ${srate} units box remap x



#fix    10 all ave/time

dump 1 all atom 250 deform_dump.lammpstrj


#To avoid flying ice cube phenomenon:
#fix 21 all momentum 100 linear 1 1 1 angular


run  ${nsteps}
run  50000
WARNING: One or more atoms are time integrated more than once (src/modify.cpp:292)
WARNING: Inconsistent image flags (src/domain.cpp:819)
Per MPI rank memory allocation (min/avg/max) = 7.777 | 7.777 | 7.777 Mbytes
   Step          Temp          PotEng         E_bond        E_angle        E_dihed         Press           Pxx            Pyy            Pzz            Pxy            Pxz            Pyz             Lx             Ly             Lz           Volume    
       352   0              6.9741649e-19  6.9741649e-19  0              0              1.054207e-07   2.7764429e-07 -6.6802882e-08  0             -2.7161558e-05  0              0              9.6173785      9.6173782      0.2            92.493966    
       400   0.13395604     0.00031998958  0.00031998958  0              0              123.34674      201.62864      44.901397      0              106.01862      0              0              9.6169169      9.6190609      0.2            92.505709    
       500   0.2188537      0.00072075406  0.00072075406  0              0              593.784        1327.5348     -140.13951      0             -489.26516      0              0              9.6159551      9.6132536      0.2            92.440615    
       600   0.21142978     0.00099804704  0.00099804704  0              0              545.50656      1155.0968     -64.285419      0             -10.331351      0              0              9.6149934      9.6140115      0.2            92.438657    
       700   0.15228711     0.0010789409   0.0010789409   0              0              473.47972      740.27877      206.51669      0              594.76917      0              0              9.6140317      9.6154426      0.2            92.44317     
       800   0.20588819     0.00086272029  0.00086272029  0              0              465.78168      1014.415      -83.003427      0             -210.88885      0              0              9.6130699      9.6208232      0.2            92.485646    
       900   0.20802277     0.00073209668  0.00073209668  0              0              422.88437      1014.3229     -168.70906      0              133.4896       0              0              9.6121082      9.6272796      0.2            92.538453    
      1000   0.22081849     0.00081041619  0.00081041619  0              0              399.77955      726.13765      73.246291      0             -343.50634      0              0              9.6111464      9.6261943      0.2            92.518763    
      1100   0.17244652     0.00075190821  0.00075190821  0              0              583.83953      1122.987       44.5076        0             -82.022313      0              0              9.6101847      9.6310044      0.2            92.555731    
      1200   0.19431295     0.0010228029   0.0010228029   0              0              64.531714      320.65375     -191.75107      0             -135.41266      0              0              9.609223       9.6340109      0.2            92.575359    
      1300   0.17574881     0.00082635536  0.00082635536  0              0              593.71096      1309.5664     -122.30191      0             -279.67452      0              0              9.6082612      9.6276247      0.2            92.504733    
      1400   0.1989125      0.00084520728  0.00084520728  0              0              662.3232       1237.1805      87.324807      0             -176.99113      0              0              9.6072995      9.6319833      0.2            92.537349    
      1500   0.15077416     0.00085352372  0.00085352372  0              0              518.82672      916.30703      121.15202      0             -233.76634      0              0              9.6063377      9.6307698      0.2            92.516427    
      1600   0.1708112      0.0010224429   0.0010224429   0              0              447.82535      924.01249     -28.549066      0              75.995787      0              0              9.605376       9.6311444      0.2            92.510764    
      1700   0.21525401     0.00090016914  0.00090016914  0              0              300.85568      951.5518      -349.9603       0              104.65268      0              0              9.6044143      9.6291497      0.2            92.482343    
      1800   0.26334831     0.001008624    0.001008624    0              0              295.64476      676.12768     -84.987361      0             -102.84238      0              0              9.6034525      9.6319756      0.2            92.50022     
      1900   0.15957624     0.00086153438  0.00086153438  0              0              1295.5781      1997.2532      593.71889      0             -78.241606      0              0              9.6024908      9.6303993      0.2            92.475821    
      2000   0.20734657     0.00084871177  0.00084871177  0              0              699.31946      1390.0282      8.4579202      0              203.6788       0              0              9.6015291      9.6340667      0.2            92.501771    
      2100   0.205827       0.00084581647  0.00084581647  0              0              373.03492      1246.2118     -500.27878      0              105.2312       0              0              9.6005673      9.6401658      0.2            92.551061    
      2200   0.22080385     0.0010696295   0.0010696295   0              0              539.0182       777.34433      300.47958      0             -91.420585      0              0              9.5996056      9.637555       0.2            92.516727    
      2300   0.23752858     0.0010933108   0.0010933108   0              0              889.97921      1391.8527      387.95574      0             -100.17526      0              0              9.5986438      9.6331863      0.2            92.465525    
      2400   0.18008311     0.0010900447   0.0010900447   0              0              429.71958      1329.3141     -470.07383      0             -882.87164      0              0              9.5976821      9.6369293      0.2            92.492183    
      2500   0.21449796     0.0011285311   0.0011285311   0              0              691.49146      1445.4516     -62.617121      0             -368.35174      0              0              9.5967204      9.6387954      0.2            92.500824    
      2600   0.21255907     0.0010443919   0.0010443919   0              0              1099.8991      1581.651       617.98172      0              269.9985       0              0              9.5957586      9.6324321      0.2            92.430494    
      2700   0.23556038     0.0010549316   0.0010549316   0              0              226.22724      733.82203     -281.56015      0             -62.237893      0              0              9.5947969      9.6329544      0.2            92.426241    
      2800   0.23039143     0.0012442102   0.0012442102   0              0              89.841164      912.67367     -733.14048      0             -254.37512      0              0              9.5938352      9.6418118      0.2            92.501953    
      2900   0.28445308     0.0011576443   0.0011576443   0              0              874.11014      1120.7507      627.26924      0              268.66035      0              0              9.5928734      9.6329737      0.2            92.407897    
      3000   0.20303862     0.0010458257   0.0010458257   0              0              400.66681      508.64877      292.52256      0             -388.75423      0              0              9.5919117      9.6347314      0.2            92.415492    
      3100   0.14510293     0.0012421037   0.0012421037   0              0             -276.9139       185.82026     -739.82315      0             -288.17737      0              0              9.5909499      9.6378421      0.2            92.436062    
      3200   0.23216185     0.0010569377   0.0010569377   0              0              682.81281      1209.8397      155.57937      0             -95.856508      0              0              9.5899882      9.6369546      0.2            92.418281    
      3300   0.19960694     0.0009437958   0.0009437958   0              0              1309.9185      1958.8418      660.8303       0              119.40725      0              0              9.5890265      9.6389012      0.2            92.427679    
      3400   0.17455128     0.0010855724   0.0010855724   0              0              554.28657      1405.4414     -297.05207      0             -290.61606      0              0              9.5880647      9.6416037      0.2            92.44432     
      3500   0.15449138     0.0010309628   0.0010309628   0              0              224.05476      844.42019     -396.48438      0             -66.478494      0              0              9.587103       9.6453704      0.2            92.471159    
      3600   0.24726395     0.00098125247  0.00098125247  0              0              933.94976      1380.9522      486.75527      0             -136.281        0              0              9.5861413      9.6407307      0.2            92.417406    
      3700   0.15837797     0.0010317794   0.0010317794   0              0              363.41632      332.69748      393.96376      0             -40.345405      0              0              9.5851795      9.6329699      0.2            92.333745    
      3800   0.19979726     0.0011594958   0.0011594958   0              0             -48.597291      413.94254     -511.33523      0             -375.9947       0              0              9.5842178      9.6373838      0.2            92.366785    
      3900   0.19929492     0.0009946277   0.0009946277   0              0              65.813966      290.79174     -159.34106      0             -905.44346      0              0              9.583256       9.6342626      0.2            92.327605    
      4000   0.15791292     0.00094555971  0.00094555971  0              0              1237.1789      1795.2477      678.93592      0             -611.24216      0              0              9.5822943      9.6464278      0.2            92.43491     
      4100   0.13781874     0.0011671867   0.0011671867   0              0              371.53553      832.59174     -89.696735      0             -695.62298      0              0              9.5813326      9.6434791      0.2            92.39738     
      4200   0.22899041     0.0010964457   0.0010964457   0              0              296.5879       1284.2725     -691.29832      0             -217.39932      0              0              9.5803708      9.6471557      0.2            92.423329    
      4300   0.20001467     0.001139685    0.001139685    0              0              1331.4873      2151.8665      510.91716      0              109.84547      0              0              9.5794091      9.6440003      0.2            92.383824    
      4400   0.21993377     0.0010649043   0.0010649043   0              0              1075.8922      1428.5713      723.03847      0              109.22835      0              0              9.5784474      9.6376359      0.2            92.313588    
      4500   0.20331887     0.0011678331   0.0011678331   0              0             -19.300163      1144.0052     -1182.7608      0             -238.54417      0              0              9.5774856      9.6595414      0.2            92.514119    
      4600   0.20965418     0.0011191247   0.0011191247   0              0              197.13784      655.67099     -261.57998      0              328.92423      0              0              9.5765239      9.6499909      0.2            92.413368    
      4700   0.2496171      0.00097246896  0.00097246896  0              0              1670.5812      1938.4776      1402.5254      0              289.54354      0              0              9.5755621      9.6397056      0.2            92.3056      
      4800   0.22956987     0.00090397125  0.00090397125  0              0              516.69096      1375.9831     -342.78795      0             -71.780336      0              0              9.5746004      9.6497894      0.2            92.392878    
      4900   0.25319139     0.0011646292   0.0011646292   0              0             -42.501752      1140.2326     -1225.4213      0              309.85321      0              0              9.5736387      9.6598988      0.2            92.480381    
      5000   0.24693518     0.001125969    0.001125969    0              0              1232.9768      1616.3104      849.5102       0             -5.7515599      0              0              9.5726769      9.6395472      0.2            92.276271    
      5100   0.1990382      0.001186664    0.001186664    0              0              1076.5317      1427.7836      725.07339      0              356.92966      0              0              9.5717152      9.6407798      0.2            92.278799    
      5200   0.22109242     0.0010743701   0.0010743701   0              0              7.6031481      1017.5795     -1002.5173      0              399.62252      0              0              9.5707534      9.6497794      0.2            92.355659    
      5300   0.22747263     0.0011636144   0.0011636144   0              0              997.48957      2155.2951     -160.44967      0              355.16622      0              0              9.5697917      9.6387445      0.2            92.240777    
      5400   0.17473237     0.0012535729   0.0012535729   0              0              909.37936      956.47773      862.12959      0              647.33395      0              0              9.56883        9.634804       0.2            92.193801    
      5500   0.27126629     0.0011222968   0.0011222968   0              0              539.16116      1401.4561     -323.31559      0             -403.75753      0              0              9.5678682      9.6408167      0.2            92.242064    
      5600   0.20184518     0.0010558993   0.0010558993   0              0              309.29837      1144.5833     -526.14529      0              490.31676      0              0              9.5669065      9.6423351      0.2            92.247319    
      5700   0.18966967     0.0012428808   0.0012428808   0              0              1386.4799      2231.6336      541.14355      0              1094.2884      0              0              9.5659448      9.6388243      0.2            92.204461    
      5800   0.24647329     0.00096462757  0.00096462757  0              0              864.45297      1428.3726      300.37733      0              683.67833      0              0              9.564983       9.6365837      0.2            92.173759    
      5900   0.21499843     0.0010492982   0.0010492982   0              0              444.41203      1422.4526     -533.78692      0              45.135345      0              0              9.5640213      9.6445216      0.2            92.24041     
      6000   0.19540081     0.0010447143   0.0010447143   0              0              816.00076      1679.4566     -47.6472        0              387.60562      0              0              9.5630595      9.6395101      0.2            92.183209    
      6100   0.23900134     0.00099780586  0.00099780586  0              0              1256.6478      1814.1872      698.91661      0              565.45431      0              0              9.5620978      9.6372934      0.2            92.152742    
      6200   0.18076514     0.0011379472   0.0011379472   0              0              672.81927      1630.2791     -284.8118       0              698.09286      0              0              9.5611361      9.6430883      0.2            92.198879    
      6300   0.21517322     0.00089747742  0.00089747742  0              0              620.08903      1558.1694     -318.15095      0              394.31051      0              0              9.5601743      9.641741       0.2            92.176724    
      6400   0.20500015     0.00099622236  0.00099622236  0              0              1265.9165      2097.3315      434.35332      0              365.72374      0              0              9.5592126      9.6382915      0.2            92.134478    
      6500   0.14576487     0.0011059402   0.0011059402   0              0              196.19866      389.30859      2.9212325      0              546.15533      0              0              9.5582509      9.6349375      0.2            92.093149    
      6600   0.20966392     0.0011283757   0.0011283757   0              0              385.6405       1167.2881     -396.19035      0              53.608794      0              0              9.5572891      9.6346213      0.2            92.080861    
      6700   0.19118192     0.0011930422   0.0011930422   0              0              423.69105      660.54392      186.64367      0              65.219848      0              0              9.5563274      9.6376764      0.2            92.100791    
      6800   0.19768257     0.00095327783  0.00095327783  0              0              1111.9074      1927.077       296.56596      0              415.09624      0              0              9.5553656      9.6375456      0.2            92.090272    
      6900   0.22154427     0.00099875336  0.00099875336  0              0              866.9919       2147.972      -414.14817      0              599.78514      0              0              9.5544039      9.6347188      0.2            92.053995    
      7000   0.18523051     0.0010870168   0.0010870168   0              0              733.88681      1427.4937      40.121339      0             -10.105586      0              0              9.5534422      9.6340011      0.2            92.037872    
      7100   0.18644294     0.0010376122   0.0010376122   0              0              1343.0471      2173.6295      512.2985       0              219.75022      0              0              9.5524804      9.6244689      0.2            91.937551    
      7200   0.2027199      0.0012513382   0.0012513382   0              0              642.80338      1538.907      -253.46284      0              397.74445      0              0              9.5515187      9.6318805      0.2            91.999087    
      7300   0.22402617     0.0010899351   0.0010899351   0              0              725.93273      1737.0367     -285.30663      0             -370.42752      0              0              9.550557       9.635398       0.2            92.023417    
      7400   0.22460217     0.0011258654   0.0011258654   0              0              912.09976      1428.3802      395.65179      0              734.57344      0              0              9.5495952      9.6264266      0.2            91.928477    
      7500   0.22689619     0.0010937574   0.0010937574   0              0              788.41408      1638.8696     -62.216753      0              780.78917      0              0              9.5486335      9.6349585      0.2            92.000687    
      7600   0.1938935      0.0010956763   0.0010956763   0              0              1153.1519      2653.0239     -346.88229      0              295.77243      0              0              9.5476717      9.640847       0.2            92.047642    
      7700   0.21078459     0.0011765847   0.0011765847   0              0              1068.78        1915.9909      221.36083      0              361.08006      0              0              9.54671        9.6329512      0.2            91.962992    
      7800   0.21262113     0.0012091265   0.0012091265   0              0              1024.701       1901.0784      148.14167      0              476.78795      0              0              9.5457483      9.634357       0.2            91.967146    
      7900   0.18736105     0.00096782033  0.00096782033  0              0              347.93366      1017.2363     -321.51379      0              240.94978      0              0              9.5447865      9.640685       0.2            92.01828     
      8000   0.18733977     0.0010622402   0.0010622402   0              0              510.41346      1055.6176     -34.95672       0              666.04869      0              0              9.5438248      9.6361753      0.2            91.965969    
      8100   0.19810856     0.0011293035   0.0011293035   0              0              808.37006      1135.2643      481.29166      0              477.13997      0              0              9.5428631      9.6384251      0.2            91.978171    
      8200   0.2219962      0.0011467027   0.0011467027   0              0              344.77544      882.2985      -192.90836      0              471.31122      0              0              9.5419013      9.6434439      0.2            92.01679     
      8300   0.2072698      0.0013186176   0.0013186176   0              0              468.55122      1156.0234     -219.09454      0              507.15293      0              0              9.5409396      9.6400945      0.2            91.975559    
      8400   0.20385727     0.0011365792   0.0011365792   0              0              980.01994      1622.6772      337.14352      0              727.15425      0              0              9.5399778      9.6481295      0.2            92.042941    
      8500   0.18478024     0.0011590193   0.0011590193   0              0              653.52397      1408.9422     -102.04407      0              385.89774      0              0              9.5390161      9.6426655      0.2            91.981542    
      8600   0.22221516     0.0011685268   0.0011685268   0              0              385.59807      1127.0778     -356.01463      0             -33.578136      0              0              9.5380544      9.6427897      0.2            91.973452    
      8700   0.1924311      0.00098763528  0.00098763528  0              0              1030.5479      1988.95        71.975055      0              135.19111      0              0              9.5370926      9.6502004      0.2            92.034855    
      8800   0.18654654     0.00098332318  0.00098332318  0              0              998.96802      1755.1554      242.64342      0              222.59287      0              0              9.5361309      9.6433277      0.2            91.960035    
      8900   0.21542614     0.0013122901   0.0013122901   0              0              671.65922      1629.1696     -286.03015      0             -520.64632      0              0              9.5351691      9.6475229      0.2            91.990763    
      9000   0.20518426     0.001170853    0.001170853    0              0              354.67098      805.58467     -96.416139      0              456.30049      0              0              9.5342074      9.6452411      0.2            91.959729    
      9100   0.23180654     0.0010963443   0.0010963443   0              0              942.81971      1524.7429      360.75823      0              359.37108      0              0              9.5332457      9.6446294      0.2            91.944622    
      9200   0.17269247     0.0013249768   0.0013249768   0              0              568.01483      1246.5616     -110.68547      0              13.983558      0              0              9.5322839      9.6489681      0.2            91.976704    
      9300   0.24297251     0.0015447874   0.0015447874   0              0              851.62267      1933.0249     -229.94512      0             -322.52382      0              0              9.5313222      9.6447937      0.2            91.927637    
      9400   0.25029148     0.0010335153   0.0010335153   0              0              1037.9481      1894.3835      181.35655      0              535.53319      0              0              9.5303605      9.6417312      0.2            91.889174    
      9500   0.20278828     0.0010254012   0.0010254012   0              0              372.43732      632.52142      112.18791      0              732.81838      0              0              9.5293987      9.6352448      0.2            91.818089    
      9600   0.21231487     0.0011292009   0.0011292009   0              0              526.40215      1353.8862     -301.23071      0              362.00025      0              0              9.528437       9.6456817      0.2            91.90827     
      9700   0.22460763     0.0013407186   0.0013407186   0              0              548.26376      1018.7564      77.624056      0              673.92999      0              0              9.5274752      9.6399712      0.2            91.844587    
      9800   0.21477171     0.0010199801   0.0010199801   0              0              827.84434      1237.9425      417.60279      0              853.1695       0              0              9.5265135      9.6411857      0.2            91.846886    
      9900   0.16663833     0.0010572619   0.0010572619   0              0              653.73386      1517.2417     -209.93429      0              102.56146      0              0              9.5255518      9.6431865      0.2            91.856672    
     10000   0.22317903     0.0010096339   0.0010096339   0              0              664.64057      1635.9053     -306.77029      0             -612.51608      0              0              9.52459        9.6430983      0.2            91.846558    
     10100   0.17416221     0.0010006619   0.0010006619   0              0              1189.1964      1875.8214      502.40773      0              642.31387      0              0              9.5236283      9.6392973      0.2            91.801085    
     10200   0.18880025     0.0010793589   0.0010793589   0              0              877.13442      1642.6775      111.45023      0              89.5677        0              0              9.5226666      9.6451082      0.2            91.847149    
     10300   0.17144893     0.00095838969  0.00095838969  0              0              446.26984      1471.2488     -578.86791      0              325.93413      0              0              9.5217048      9.6512132      0.2            91.896003    
     10400   0.18552286     0.0011773842   0.0011773842   0              0              498.7964       807.83019      189.57189      0              203.25482      0              0              9.5207431      9.6527603      0.2            91.901451    
     10500   0.22922884     0.0011280638   0.0011280638   0              0              940.5717       1379.7916      501.20157      0             -236.73231      0              0              9.5197813      9.6539341      0.2            91.903342    
     10600   0.23019512     0.0010921185   0.0010921185   0              0              840.76434      2198.596      -517.23772      0              8.2818859      0              0              9.5188196      9.6550053      0.2            91.904254    
     10700   0.21689626     0.0012045897   0.0012045897   0              0              642.02066      1614.5812     -330.74043      0             -148.7264       0              0              9.5178579      9.6604738      0.2            91.947017    
     10800   0.18817849     0.0012209839   0.0012209839   0              0              1348.669       2078.7635      618.41576      0              641.32483      0              0              9.5168961      9.6511911      0.2            91.849383    
     10900   0.18866309     0.0012391358   0.0012391358   0              0              918.85079      2062.4782     -224.92359      0              225.50113      0              0              9.5159344      9.6508496      0.2            91.836852    
     11000   0.20706313     0.001185524    0.001185524    0              0              626.03026      1728.5041     -476.57279      0              181.92797      0              0              9.5149727      9.6603023      0.2            91.917513    
     11100   0.21921138     0.0011437537   0.0011437537   0              0              1066.6545      1699.3756      433.78343      0             -16.823146      0              0              9.5140109      9.6507781      0.2            91.817608    
     11200   0.22285807     0.0010784035   0.0010784035   0              0              731.3668       1118.9998      343.53795      0              377.2443       0              0              9.5130492      9.6545398      0.2            91.844112    
     11300   0.20919662     0.0014734312   0.0014734312   0              0              401.96418      1431.6493     -627.90082      0              342.90922      0              0              9.5120874      9.6445153      0.2            91.739473    
     11400   0.2661397      0.0012004235   0.0012004235   0              0              589.17478      1167.8641      10.332039      0              558.09853      0              0              9.5111257      9.6532931      0.2            91.813684    
     11500   0.25158153     0.0010146455   0.0010146455   0              0              1067.9055      1387.4229      748.22218      0             -147.38736      0              0              9.510164       9.6571869      0.2            91.841431    
     11600   0.22894437     0.0015457859   0.0015457859   0              0              971.77413      2314.7849     -371.36653      0             -443.99295      0              0              9.5092022      9.6601254      0.2            91.860086    
     11700   0.18707271     0.0012573001   0.0012573001   0              0              690.65103      1887.4745     -506.36223      0             -234.75094      0              0              9.5082405      9.6534512      0.2            91.787336    
     11800   0.23004408     0.0012767091   0.0012767091   0              0              1180.4702      1667.2417      693.53465      0             -27.269387      0              0              9.5072788      9.6591882      0.2            91.832595    
     11900   0.20580819     0.0015113285   0.0015113285   0              0              588.4138       1124.2286      52.403305      0              457.23166      0              0              9.506317       9.6574748      0.2            91.807017    
     12000   0.18745545     0.0012300542   0.0012300542   0              0              580.73696      2045.3026     -883.99935      0              24.723327      0              0              9.5053553      9.661279       0.2            91.833889    
     12100   0.14408591     0.0012694813   0.0012694813   0              0              1256.5843      2274.9839      238.01814      0             -81.193096      0              0              9.5043935      9.6523266      0.2            91.73951     
     12200   0.20589241     0.0010611371   0.0010611371   0              0              1259.8513      1778.6698      740.90354      0              52.674756      0              0              9.5034318      9.6531009      0.2            91.737586    
     12300   0.16368367     0.0012236343   0.0012236343   0              0              555.47529      1745.9573     -635.19356      0             -253.78392      0              0              9.5024701      9.6608141      0.2            91.801597    
     12400   0.17554472     0.0011518579   0.0011518579   0              0              232.48809      842.14935     -377.3586       0             -110.61827      0              0              9.5015083      9.6595948      0.2            91.780721    
     12500   0.21801508     0.0012634121   0.0012634121   0              0              922.3158       1124.5287      719.91425      0              224.71024      0              0              9.5005466      9.6522199      0.2            91.701365    
     12600   0.26226756     0.0012597538   0.0012597538   0              0              708.63607      1264.9571      152.18086      0              419.48817      0              0              9.4995848      9.6556822      0.2            91.724973    
     12700   0.13794055     0.0011186947   0.0011186947   0              0              25.130778      899.37424     -849.26501      0             -109.86872      0              0              9.4986231      9.6627421      0.2            91.782745    
     12800   0.19156042     0.0010479389   0.0010479389   0              0              770.29343      1248.4153      292.00968      0              408.25918      0              0              9.4976614      9.6527878      0.2            91.67891     
     12900   0.19154345     0.0012012176   0.0012012176   0              0              1314.2894      1626.5352      1001.87        0              192.20832      0              0              9.4966996      9.6452142      0.2            91.597702    
     13000   0.22886941     0.0012042887   0.0012042887   0              0              519.43023      1617.762      -579.096        0              333.59307      0              0              9.4957379      9.6599971      0.2            91.7288      
     13100   0.20141135     0.00138021     0.00138021     0              0              387.29064      1500.5852     -726.15863      0             -207.24856      0              0              9.4947762      9.661448       0.2            91.733287    
     13200   0.16836815     0.0012974957   0.0012974957   0              0              1129.0587      1238.807       1019.137       0              487.61308      0              0              9.4938144      9.6587302      0.2            91.698192    
     13300   0.19393537     0.0012955557   0.0012955557   0              0              389.70278      672.78224      106.45909      0             -221.32218      0              0              9.4928527      9.6625243      0.2            91.724919    
     13400   0.24682179     0.0013375412   0.0013375412   0              0             -632.22488     -105.53953     -1159.0543      0              135.72501      0              0              9.4918909      9.6721019      0.2            91.806536    
     13500   0.18574243     0.0013770692   0.0013770692   0              0              847.81983      1294.4055      401.10584      0              260.90156      0              0              9.4909292      9.6624183      0.2            91.705328    
     13600   0.23269878     0.0014165159   0.0014165159   0              0              1395.0749      1903.9995      886.00899      0             -299.84095      0              0              9.4899675      9.6614856      0.2            91.687184    
     13700   0.28760186     0.0013135066   0.0013135066   0              0              294.43937      1337.9947     -749.27535      0             -348.22706      0              0              9.4890057      9.6739732      0.2            91.796387    
     13800   0.19575066     0.0012041066   0.0012041066   0              0              126.53216      896.97895     -644.10572      0             -616.25348      0              0              9.488044       9.6698163      0.2            91.747643    
     13900   0.20810595     0.0010824887   0.0010824887   0              0              1503.8858      1878.3572      1129.2731      0              531.66629      0              0              9.4870823      9.6537608      0.2            91.586023    
     14000   0.17655036     0.0010796255   0.0010796255   0              0              597.83733      1171.0515      24.433153      0              522.94346      0              0              9.4861205      9.6625401      0.2            91.66002     
     14100   0.24227742     0.0013603445   0.0013603445   0              0             -44.975987      1147.9902     -1238.1015      0              375.60686      0              0              9.4851588      9.6722407      0.2            91.742739    
     14200   0.24486124     0.0012478906   0.0012478906   0              0              1179.2162      1811.4048      546.85258      0              81.697561      0              0              9.484197       9.6620028      0.2            91.636338    
     14300   0.23156907     0.0014618912   0.0014618912   0              0              1087.9948      1501.8642      673.92702      0              222.59586      0              0              9.4832353      9.6660821      0.2            91.665731    
     14400   0.24467425     0.001260612    0.001260612    0              0             -434.57137      52.548664     -921.85092      0              90.479028      0              0              9.4822736      9.6641247      0.2            91.637874    
     14500   0.1599783      0.0012038214   0.0012038214   0              0              1202.0471      2473.4159     -69.549009      0              186.99156      0              0              9.4813118      9.6483999      0.2            91.479488    
     14600   0.22069422     0.0012834723   0.0012834723   0              0              1348.0266      1912.0119      783.87726      0              719.13564      0              0              9.4803501      9.6576923      0.2            91.558304    
     14700   0.15421837     0.0012085641   0.0012085641   0              0              558.49008      1468.036      -351.19711      0              625.3951       0              0              9.4793884      9.6522767      0.2            91.49768     
     14800   0.20560364     0.0013754177   0.0013754177   0              0              535.77928      1496.6822     -425.24465      0              23.076562      0              0              9.4784266      9.6602565      0.2            91.564033    
     14900   0.25272906     0.0011586076   0.0011586076   0              0              1448.9496      2321.5742      576.16875      0              215.80095      0              0              9.4774649      9.6530849      0.2            91.486773    
     15000   0.25700925     0.0012937546   0.0012937546   0              0              1086.5395      2005.4875      167.42136      0             -244.60618      0              0              9.4765031      9.6498732      0.2            91.447054    
     15100   0.23854832     0.0012968583   0.0012968583   0              0              2.5401601      617.34077     -612.43634      0              445.58515      0              0              9.4755414      9.6649902      0.2            91.581015    
     15200   0.18330619     0.001369737    0.001369737    0              0              265.81551      220.44906      310.98536      0              550.95403      0              0              9.4745797      9.6545183      0.2            91.472502    
     15300   0.23049126     0.0013164343   0.0013164343   0              0              680.54758      954.25514      406.65617      0              511.47655      0              0              9.4736179      9.6573144      0.2            91.489707    
     15400   0.21340956     0.0012171407   0.0012171407   0              0             -381.62774     -351.26781     -412.13049      0              965.99308      0              0              9.4726562      9.6648102      0.2            91.551424    
     15500   0.18355451     0.0013154943   0.0013154943   0              0              96.405871      525.76691     -333.12755      0              1359.4972      0              0              9.4716944      9.6602242      0.2            91.498692    
     15600   0.20744979     0.0015534921   0.0015534921   0              0              1212.6459      1894.8252      530.24075      0              907.75479      0              0              9.4707327      9.6560488      0.2            91.449858    
     15700   0.18791481     0.0013409489   0.0013409489   0              0              742.75498      1509.4193     -24.094859      0              380.06384      0              0              9.469771       9.6553807      0.2            91.434244    
     15800   0.19988202     0.0012704616   0.0012704616   0              0              1099.612       2696.5943     -497.58139      0              130.72657      0              0              9.4688092      9.6550131      0.2            91.421477    
     15900   0.23439222     0.0013416015   0.0013416015   0              0              606.80788      902.45572      310.9917       0              518.24599      0              0              9.4678475      9.6572526      0.2            91.433395    
     16000   0.20196046     0.0011769676   0.0011769676   0              0              1441.9019      2673.2053      210.45517      0              88.233119      0              0              9.4668858      9.652361       0.2            91.377799    
     16100   0.2494226      0.0013573654   0.0013573654   0              0             -106.48522      299.88582     -513.05264      0              546.75515      0              0              9.465924       9.6594656      0.2            91.435768    
     16200   0.18348779     0.0013988098   0.0013988098   0              0              834.9512       1468.1519      201.56054      0              714.86184      0              0              9.4649623      9.6538212      0.2            91.373054    
     16300   0.16314352     0.0015466892   0.0015466892   0              0              1561.3609      2665.0829      457.47307      0             -1.5074547      0              0              9.4640005      9.6619807      0.2            91.440991    
     16400   0.17445853     0.0013580113   0.0013580113   0              0              437.92839      1592.2411     -716.53798      0              15.457614      0              0              9.4630388      9.6600518      0.2            91.413445    
     16500   0.1881715      0.0013593793   0.0013593793   0              0              832.45209      1739.0612     -74.362235      0              247.6297       0              0              9.4620771      9.6556732      0.2            91.362724    
     16600   0.23824657     0.0013490718   0.0013490718   0              0              1707.7365      2806.1643      609.10616      0             -182.23917      0              0              9.4611153      9.651182       0.2            91.310946    
     16700   0.20834716     0.0013858288   0.0013858288   0              0              924.90978      2244.7814     -395.16578      0              511.72941      0              0              9.4601536      9.6609647      0.2            91.39421     
     16800   0.2045523      0.0013758842   0.0013758842   0              0              671.85727      1711.9726     -368.43334      0              245.63566      0              0              9.4591919      9.6663938      0.2            91.436274    
     16900   0.18603161     0.0014097151   0.0014097151   0              0              1636.5267      2729.0801      543.83575      0              673.07393      0              0              9.4582301      9.6601631      0.2            91.368045    
     17000   0.25551461     0.0014728537   0.0014728537   0              0              1062.8793      2088.1373      37.450129      0              449.74023      0              0              9.4572684      9.6590281      0.2            91.348021    
     17100   0.24939549     0.0017761864   0.0017761864   0              0              249.57214      1042.3435     -543.36208      0              375.12638      0              0              9.4563066      9.6610008      0.2            91.357386    
     17200   0.16284644     0.0017560513   0.0017560513   0              0              1685.4286      2979.9398      390.74045      0              58.658722      0              0              9.4553449      9.6636168      0.2            91.37283     
     17300   0.24927356     0.0013888063   0.0013888063   0              0              1372.3477      2252.5496      491.97435      0              324.62068      0              0              9.4543832      9.6614984      0.2            91.343507    
     17400   0.21971876     0.001518011    0.001518011    0              0              496.24868      1567.6052     -575.27234      0              161.70053      0              0              9.4534214      9.6710444      0.2            91.424458    
     17500   0.18607756     0.0014095412   0.0014095412   0              0              1338.3855      2674.4159      2.193784       0             -95.942405      0              0              9.4524597      9.6560519      0.2            91.273442    
     17600   0.14802793     0.0015362895   0.0015362895   0              0              1280.8118      2093.6566      467.82005      0              326.92958      0              0              9.451498       9.6665108      0.2            91.363007    
     17700   0.24846378     0.0012935241   0.0012935241   0              0             -19.203925      381.39049     -419.95924      0              258.28356      0              0              9.4505362      9.6718147      0.2            91.403835    
     17800   0.23494057     0.0013589238   0.0013589238   0              0              1146.2202      2550.4387     -258.16837      0              659.07992      0              0              9.4495745      9.6696953      0.2            91.374506    
     17900   0.22742721     0.0015653064   0.0015653064   0              0              1558.2583      2618.5358      497.82439      0              184.09596      0              0              9.4486127      9.6709005      0.2            91.376594    
     18000   0.17730897     0.0014115087   0.0014115087   0              0              1282.8715      2618.1696     -52.598231      0             -42.852311      0              0              9.447651       9.6683838      0.2            91.343515    
     18100   0.21770944     0.0012902399   0.0012902399   0              0              1236.4918      3110.5356     -637.76237      0              181.73267      0              0              9.4466893      9.6657138      0.2            91.308995    
     18200   0.18278841     0.0013770029   0.0013770029   0              0              1830.1586      3210.2004      449.9307       0              685.08827      0              0              9.4457275      9.6635361      0.2            91.279129    
     18300   0.1963197      0.0013552033   0.0013552033   0              0              1680.115       2917.036       443.04457      0              625.7664       0              0              9.4447658      9.6637989      0.2            91.272317    
     18400   0.22275582     0.0016188267   0.0016188267   0              0              710.58858      2242.3491     -821.35919      0              509.30798      0              0              9.4438041      9.6672616      0.2            91.295724    
     18500   0.19599234     0.0014976798   0.0014976798   0              0              1445.4146      2811.236       79.447667      0              642.73828      0              0              9.4428423      9.6579873      0.2            91.198851    
     18600   0.21211096     0.0016412463   0.0016412463   0              0              1613.5326      2512.2655      714.6427       0              1046.1615      0              0              9.4418806      9.6565442      0.2            91.175937    
     18700   0.17747993     0.0013513176   0.0013513176   0              0              823.86999      2275.5154     -627.96888      0              924.42789      0              0              9.4409188      9.6673341      0.2            91.268517    
     18800   0.17602296     0.0015773576   0.0015773576   0              0              1454.8001      3301.2936     -391.88338      0              76.518259      0              0              9.4399571      9.6627343      0.2            91.215797    
     18900   0.20456242     0.0013541943   0.0013541943   0              0              2412.0725      3838.9794      984.97732      0              654.86288      0              0              9.4389954      9.6585528      0.2            91.167035    
     19000   0.21836414     0.0013300543   0.0013300543   0              0              1788.8602      3613.4023     -35.839202      0              718.37961      0              0              9.4380336      9.6611051      0.2            91.181835    
     19100   0.17865884     0.0013398099   0.0013398099   0              0              220.78314      1497.4576     -1056.0759      0              526.50503      0              0              9.4370719      9.6676088      0.2            91.233919    
     19200   0.15733943     0.0012768668   0.0012768668   0              0              2039.3798      3288.9011      789.71236      0             -219.62712      0              0              9.4361101      9.6612036      0.2            91.164181    
     19300   0.19999468     0.0013955973   0.0013955973   0              0              2083.1458      3331.6457      834.48075      0              39.228573      0              0              9.4351484      9.6622068      0.2            91.164355    
     19400   0.18710613     0.0015185345   0.0015185345   0              0              320.27888      2051.8547     -1411.4649      0             -492.59475      0              0              9.4341867      9.6804612      0.2            91.327278    
     19500   0.19176784     0.0014539724   0.0014539724   0              0              1398.0523      2855.3066     -59.326703      0              73.69831       0              0              9.4332249      9.6791182      0.2            91.305299    
     19600   0.20448217     0.0014910927   0.0014910927   0              0              2754.875       4106.9118      1402.6998      0              227.89431      0              0              9.4322632      9.6628892      0.2            91.142915    
     19700   0.192976       0.0015374645   0.0015374645   0              0              603.11398      2102.8974     -896.85         0              418.9843       0              0              9.4313015      9.6762058      0.2            91.259214    
     19800   0.21576731     0.0017049313   0.0017049313   0              0              299.91705      1481.4023     -881.73902      0              462.33657      0              0              9.4303397      9.6772144      0.2            91.25942     
     19900   0.18639654     0.001934637    0.001934637    0              0              1841.2113      2248.2093      1434.0485      0              940.34356      0              0              9.429378       9.6688686      0.2            91.171417    
     20000   0.19803628     0.0020349685   0.0020349685   0              0              425.94486      872.87966     -21.139714      0              75.434572      0              0              9.4284162      9.6765141      0.2            91.234202    
     20100   0.24546188     0.0017941235   0.0017941235   0              0              381.74794      2046.9864     -1283.6726      0              397.1717       0              0              9.4274545      9.668518       0.2            91.149514    
     20200   0.19958069     0.0016614336   0.0016614336   0              0              1448.8441      2146.229       751.28371      0              958.31356      0              0              9.4264928      9.6624171      0.2            91.082704    
     20300   0.19637147     0.0013309256   0.0013309256   0              0              1743.8625      2744.3861      743.16452      0              485.13216      0              0              9.425531       9.6523556      0.2            90.978577    
     20400   0.21159622     0.0018175601   0.0018175601   0              0              482.27951      1938.2129     -973.80528      0             -246.18751      0              0              9.4245693      9.6666081      0.2            91.103618    
     20500   0.23004389     0.0015030939   0.0015030939   0              0              805.67152      1632.2748     -21.082024      0              459.06538      0              0              9.4236076      9.6596777      0.2            91.029012    
     20600   0.20090565     0.0014077377   0.0014077377   0              0              1034.2212      1219.6186      848.6193       0              797.96719      0              0              9.4226458      9.644443       0.2            90.87617     
     20700   0.22532653     0.0015966908   0.0015966908   0              0             -202.27496      97.138164     -501.8458       0              741.24334      0              0              9.4216841      9.6626794      0.2            91.038713    
     20800   0.17240919     0.0015308337   0.0015308337   0              0              653.97118      1709.2198     -401.43131      0              552.60939      0              0              9.4207223      9.6716919      0.2            91.114324    
     20900   0.16654238     0.0014146894   0.0014146894   0              0              884.82157      1251.4681      517.98999      0              520.28639      0              0              9.4197606      9.6647791      0.2            91.039905    
     21000   0.19418063     0.0016982752   0.0016982752   0              0              708.14354      1454.0845     -37.964369      0             -603.40405      0              0              9.4187989      9.6627826      0.2            91.011806    
     21100   0.22117393     0.0017407063   0.0017407063   0              0              918.4895       2393.3786     -556.5722       0              74.896833      0              0              9.4178371      9.6674714      0.2            91.046672    
     21200   0.19863884     0.0016340429   0.0016340429   0              0              1846.3937      3092.9913      599.60176      0              527.93141      0              0              9.4168754      9.6543246      0.2            90.913572    
     21300   0.24539387     0.0016239829   0.0016239829   0              0              1161.8769      2030.5857      292.99391      0              219.67307      0              0              9.4159137      9.6555439      0.2            90.915768    
     21400   0.26163122     0.0017864073   0.0017864073   0              0              146.8676       931.14713     -637.57034      0              449.56085      0              0              9.4149519      9.6586092      0.2            90.935341    
     21500   0.18435618     0.001351861    0.001351861    0              0              1255.9082      2269.0441      242.57901      0              90.229886      0              0              9.4139902      9.656324       0.2            90.904539    
     21600   0.17908173     0.0014543058   0.0014543058   0              0              850.44224      1312.4294      388.26788      0             -2.9549162      0              0              9.4130284      9.6557495      0.2            90.889845    
     21700   0.21592279     0.0014397791   0.0014397791   0              0              384.0096       1200.1113     -432.2667       0              155.75456      0              0              9.4120667      9.6593935      0.2            90.914856    
     21800   0.22101166     0.0015705412   0.0015705412   0              0              470.96245      1194.5367     -252.77899      0             -737.02022      0              0              9.411105       9.6534038      0.2            90.849196    
     21900   0.22593186     0.0015038817   0.0015038817   0              0              1069.1098      1687.1368      450.89624      0             -20.336347      0              0              9.4101432      9.6491398      0.2            90.799787    
     22000   0.21882903     0.0016780181   0.0016780181   0              0              932.02985      1770.2861      93.582074      0             -439.7716       0              0              9.4091815      9.6531462      0.2            90.828205    
     22100   0.20683269     0.0016029615   0.0016029615   0              0             -133.22183      245.54589     -512.17912      0              300.98872      0              0              9.4082198      9.6581383      0.2            90.865888    
     22200   0.22592863     0.0015288729   0.0015288729   0              0              1481.7248      2693.7635      269.50385      0             -268.09264      0              0              9.407258       9.6529364      0.2            90.807663    
     22300   0.20617042     0.0014071606   0.0014071606   0              0              318.98518      194.98896      442.81687      0              711.45106      0              0              9.4062963      9.6513388      0.2            90.783352    
     22400   0.18090082     0.0016609832   0.0016609832   0              0              156.00626      974.67311     -662.82049      0             -41.031846      0              0              9.4053345      9.6608549      0.2            90.863572    
     22500   0.18572488     0.0016714543   0.0016714543   0              0              837.47412      1945.0538     -270.27857      0              69.167137      0              0              9.4043728      9.6559556      0.2            90.808206    
     22600   0.18079594     0.001505847    0.001505847    0              0              1679.0126      2516.6398      841.19584      0              637.06318      0              0              9.4034111      9.6499924      0.2            90.742846    
     22700   0.19755513     0.0015195938   0.0015195938   0              0              681.6313       1444.3392     -81.236384      0              859.00096      0              0              9.4024493      9.6516956      0.2            90.749579    
     22800   0.24371965     0.0013509185   0.0013509185   0              0              648.36103      2112.2317     -815.7197       0              249.06981      0              0              9.4014876      9.6611593      0.2            90.829269    
     22900   0.19151672     0.0015444558   0.0015444558   0              0              1584.1816      2621.2117      546.98812      0              13.393472      0              0              9.4005258      9.655711       0.2            90.768761    
     23000   0.21273128     0.0016956607   0.0016956607   0              0              1344.1686      1999.957       688.23094      0              335.93042      0              0              9.3995641      9.6538941      0.2            90.742396    
     23100   0.23583969     0.0016719909   0.0016719909   0              0              522.97672      2032.4383     -986.69978      0              513.95169      0              0              9.3986024      9.6565776      0.2            90.758333    
     23200   0.23953713     0.0015627446   0.0015627446   0              0              1334.975       2806.2348     -136.46552      0              618.05497      0              0              9.3976406      9.6559625      0.2            90.743266    
     23300   0.17672728     0.0015976423   0.0015976423   0              0              1084.5451      1189.7074      979.18527      0              267.24349      0              0              9.3966789      9.6466326      0.2            90.646309    
     23400   0.20440722     0.001588005    0.001588005    0              0              930.61148      2097.7247     -236.64193      0             -130.09339      0              0              9.3957172      9.6567485      0.2            90.732078    
     23500   0.14951878     0.001538998    0.001538998    0              0              811.67735      2442.9946     -819.79045      0              165.06162      0              0              9.3947554      9.6653796      0.2            90.803877    
     23600   0.18160854     0.0015338504   0.0015338504   0              0              1421.6536      2141.1946      701.97004      0              167.81716      0              0              9.3937937      9.6549967      0.2            90.697047    
     23700   0.23939706     0.0016247376   0.0016247376   0              0              1348.4666      2248.833       447.89655      0              266.15181      0              0              9.3928319      9.6575005      0.2            90.71128     
     23800   0.17450599     0.0015040433   0.0015040433   0              0              495.62879      2021.2733     -1030.1755      0              421.13518      0              0              9.3918702      9.6732943      0.2            90.850325    
     23900   0.19675752     0.0014995623   0.0014995623   0              0              1136.0038      2085.7263      186.09506      0              339.71637      0              0              9.3909085      9.6536314      0.2            90.656369    
     24000   0.17887053     0.001611527    0.001611527    0              0              967.06826      1208.8957      725.06722      0              644.05721      0              0              9.3899467      9.6593552      0.2            90.700831    
     24100   0.19689473     0.0017308685   0.0017308685   0              0              776.25223      2218.2253     -665.90203      0              321.20138      0              0              9.388985       9.6648168      0.2            90.74282     
     24200   0.21563708     0.0018633994   0.0018633994   0              0              496.39676      1279.7678     -287.16431      0              369.39353      0              0              9.3880233      9.6580742      0.2            90.670225    
     24300   0.22082964     0.0016408851   0.0016408851   0              0              1531.161       2256.0421      806.11652      0              277.15698      0              0              9.3870615      9.6513312      0.2            90.59764     
     24400   0.22244768     0.0014594407   0.0014594407   0              0              450.85493      1058.7659     -157.26427      0              983.84403      0              0              9.3860998      9.6561152      0.2            90.63326     
     24500   0.20851101     0.0018349917   0.0018349917   0              0              765.59814      2065.7428     -534.70813      0              417.08406      0              0              9.385138       9.6600459      0.2            90.660865    
     24600   0.21432971     0.0017855581   0.0017855581   0              0              1181.7994      1950.7283      412.69216      0              922.4267       0              0              9.3841763      9.6488382      0.2            90.546399    
     24700   0.26112424     0.0015342407   0.0015342407   0              0              1261.5116      2328.9559      193.91225      0              478.69274      0              0              9.3832146      9.6491015      0.2            90.53959     
     24800   0.25871475     0.0015049351   0.0015049351   0              0              429.86527      1426.9094     -567.32353      0              267.105        0              0              9.3822528      9.6488407      0.2            90.527863    
     24900   0.2229556      0.001672857    0.001672857    0              0              756.88111      1429.1666      84.406493      0              554.16974      0              0              9.3812911      9.6493791      0.2            90.523634    
     25000   0.17185593     0.0016277755   0.0016277755   0              0              1222.5959      2065.8732      379.14319      0              253.42649      0              0              9.3803294      9.6454876      0.2            90.47785     
     25100   0.18957897     0.0016370807   0.0016370807   0              0              789.20065      1901.5847     -323.32945      0             -125.65484      0              0              9.3793676      9.653984       0.2            90.548265    
     25200   0.220018       0.001387599    0.001387599    0              0              653.47181      1452.4842     -145.7173       0             -27.796792      0              0              9.3784059      9.6543886      0.2            90.542775    
     25300   0.22870833     0.0016292838   0.0016292838   0              0              1186.5009      1952.7019      420.14943      0              503.12729      0              0              9.3774441      9.6475132      0.2            90.469017    
     25400   0.20453552     0.0016344831   0.0016344831   0              0              394.89327      870.86112     -81.258095      0              884.63662      0              0              9.3764824      9.6527278      0.2            90.508632    
     25500   0.19520819     0.0015821383   0.0015821383   0              0              508.26222      1375.2973     -358.94251      0              3.9814032      0              0              9.3755207      9.655285       0.2            90.523324    
     25600   0.19264297     0.0016992369   0.0016992369   0              0              1430.2734      2692.8772      167.49232      0              232.12839      0              0              9.3745589      9.6527456      0.2            90.490233    
     25700   0.21663281     0.0017746662   0.0017746662   0              0              771.09648      1163.4513      378.57236      0              368.10605      0              0              9.3735972      9.6551299      0.2            90.503298    
     25800   0.22316131     0.0014994959   0.0014994959   0              0              1018.5295      2506.7504     -469.84615      0              315.46351      0              0              9.3726355      9.6524491      0.2            90.468887    
     25900   0.17803421     0.001518963    0.001518963    0              0              450.66483      1131.1756     -229.9901       0              164.7703       0              0              9.3716737      9.6482717      0.2            90.420454    
     26000   0.2148033      0.0018847117   0.0018847117   0              0              1748.6745      2863.7651      633.42881      0             -29.036286      0              0              9.370712       9.6505396      0.2            90.432427    
     26100   0.16015073     0.0018281013   0.0018281013   0              0              859.97548      1903.9133     -184.10978      0             -318.64446      0              0              9.3697502      9.653806       0.2            90.453751    
     26200   0.14367756     0.0016457021   0.0016457021   0              0              804.29079      2033.2993     -424.88496      0             -44.604456      0              0              9.3687885      9.6477328      0.2            90.387569    
     26300   0.22942471     0.0014816968   0.0014816968   0              0              832.45389      1312.1013      352.59677      0              649.11841      0              0              9.3678268      9.6457846      0.2            90.360039    
     26400   0.19595708     0.0016572586   0.0016572586   0              0              1083.9013      1730.2581      437.3927       0              78.963132      0              0              9.366865       9.6435896      0.2            90.330202    
     26500   0.26350371     0.0015059275   0.0015059275   0              0              60.601125      647.41755     -526.41508      0              448.45096      0              0              9.3659033      9.6506475      0.2            90.387031    
     26600   0.13970043     0.0014319933   0.0014319933   0              0              226.16995      545.34564     -93.134445      0              259.96324      0              0              9.3649415      9.6483603      0.2            90.35633     
     26700   0.18015696     0.0013211187   0.0013211187   0              0              1085.8201      1524.5389      646.91093      0              192.3603       0              0              9.3639798      9.6479931      0.2            90.343613    
     26800   0.20475765     0.0015333865   0.0015333865   0              0              1108.8925      2451.7484     -234.13198      0              660.85668      0              0              9.3630181      9.653986       0.2            90.390445    
     26900   0.25334018     0.001819142    0.001819142    0              0              773.39177      1971.7802     -425.18381      0              766.65828      0              0              9.3620563      9.6531065      0.2            90.372927    
     27000   0.25738218     0.0017149511   0.0017149511   0              0              1805.5305      3032.0181      578.82631      0              434.83939      0              0              9.3610946      9.6557625      0.2            90.388506    
     27100   0.20405846     0.0016717399   0.0016717399   0              0              1329.8148      2524.28        135.16715      0              710.29191      0              0              9.3601329      9.6514488      0.2            90.338843    
     27200   0.18891914     0.0015879521   0.0015879521   0              0              246.77065      1176.7014     -683.34765      0              38.693203      0              0              9.3591711      9.6542231      0.2            90.355526    
     27300   0.11820159     0.0016369943   0.0016369943   0              0              855.46815      1177.716       533.03957      0              1006.9096      0              0              9.3582094      9.651879       0.2            90.324304    
     27400   0.21043015     0.0016143022   0.0016143022   0              0              1499.1878      2405.3713      592.81213      0              484.69328      0              0              9.3572476      9.648751       0.2            90.285753    
     27500   0.19874103     0.0015987736   0.0015987736   0              0              353.5467       1596.0442     -889.12738      0              56.884984      0              0              9.3562859      9.6572732      0.2            90.356209    
     27600   0.20061402     0.0018647632   0.0018647632   0              0              1177.3075      2334.8244      19.619922      0              168.32965      0              0              9.3553242      9.6493609      0.2            90.272899    
     27700   0.18728738     0.0016953681   0.0016953681   0              0              1526.0884      2198.2259      853.7665       0             -361.85072      0              0              9.3543624      9.6481077      0.2            90.251897    
     27800   0.19701864     0.0014671554   0.0014671554   0              0              445.87198      1711.9905     -820.42672      0             -36.164521      0              0              9.3534007      9.6454571      0.2            90.217825    
     27900   0.21659521     0.0017367382   0.0017367382   0              0             -222.1025       83.548091     -527.91555      0              359.97393      0              0              9.352439       9.6466435      0.2            90.219645    
     28000   0.17566028     0.0014146201   0.0014146201   0              0              1493.7911      1709.8628      1277.5458      0              508.2062       0              0              9.3514772      9.6371151      0.2            90.121263    
     28100   0.18608363     0.0016758913   0.0016758913   0              0              710.52017      1652.57       -231.70954      0              374.34554      0              0              9.3505155      9.6531293      0.2            90.261735    
[...]
     43100   0.21631314     0.0023424927   0.0023424927   0              0              1031.1117      2523.9211     -461.83928      0              813.64346      0              0              9.2062548      9.6273135      0.2            88.631501    
     43200   0.19869081     0.0026326604   0.0026326604   0              0              1957.8972      3211.9904      703.64858      0              1369.8671      0              0              9.2052931      9.6210505      0.2            88.564589    
     43300   0.18465099     0.0022415088   0.0022415088   0              0              1153.4473      2623.2607     -316.56823      0              851.72956      0              0              9.2043313      9.6251515      0.2            88.593083    
     43400   0.16623654     0.0027053662   0.0027053662   0              0              1058.2129      2452.4152     -336.1816       0              900.1987       0              0              9.2033696      9.633341       0.2            88.659198    
     43500   0.18449181     0.0026624178   0.0026624178   0              0              1636.934       2481.9273      791.78039      0              1116.4274      0              0              9.2024079      9.6273172      0.2            88.594499    
     43600   0.26982172     0.0025219572   0.0025219572   0              0              736.58288      1827.7532     -354.78282      0              536.99928      0              0              9.2014461      9.6379438      0.2            88.68302     
     43700   0.15502241     0.0024781615   0.0024781615   0              0              524.6131       1370.9442     -321.89288      0              784.11129      0              0              9.2004844      9.6349907      0.2            88.646581    
     43800   0.22348658     0.0025276769   0.0025276769   0              0              1701.2641      3002.7769      399.57224      0              975.80389      0              0              9.1995226      9.6253426      0.2            88.548557    
     43900   0.21640881     0.0026739139   0.0026739139   0              0              1063.1516      2242.8197     -116.68108      0              1262.4753      0              0              9.1985609      9.6252812      0.2            88.538735    
     44000   0.19027814     0.002528164    0.002528164    0              0              1383.4577      2978.4579     -211.71434      0              425.63973      0              0              9.1975992      9.6266466      0.2            88.542037    
     44100   0.18082804     0.0025174945   0.0025174945   0              0              1078.9023      1966.5384      191.08729      0              778.7165       0              0              9.1966374      9.6283326      0.2            88.548284    
     44200   0.1886412      0.0025835388   0.0025835388   0              0              820.70245      1506.6783      134.54189      0              859.86497      0              0              9.1956757      9.6302581      0.2            88.556731    
     44300   0.17513102     0.0025927762   0.0025927762   0              0              473.98622      1192.0397     -244.25331      0              1353.9407      0              0              9.1947139      9.6326778      0.2            88.569717    
     44400   0.22027159     0.0025757907   0.0025757907   0              0              1332.0256      2668.6268     -4.776622       0              783.96429      0              0              9.1937522      9.6318107      0.2            88.552481    
     44500   0.22279192     0.0025308867   0.0025308867   0              0              1615.9147      3010.9696      220.68157      0              783.54549      0              0              9.1927905      9.6290912      0.2            88.518217    
     44600   0.25477692     0.0025532561   0.0025532561   0              0              1044.6736      2281.7852     -192.64956      0              638.92245      0              0              9.1918287      9.6254562      0.2            88.475545    
     44700   0.18018506     0.0024959417   0.0024959417   0              0              1573.3306      3258.2601     -111.7794       0              667.65909      0              0              9.190867       9.6311739      0.2            88.518838    
     44800   0.20007786     0.0027619817   0.0027619817   0              0              897.44428      1612.3603      182.36583      0              1107.4163      0              0              9.1899053      9.6291846      0.2            88.491294    
     44900   0.24325331     0.0024928325   0.0024928325   0              0              560.96071      1410.0174     -288.24887      0              908.81943      0              0              9.1889435      9.6251628      0.2            88.445077    
     45000   0.28559433     0.0025443154   0.0025443154   0              0              1027.9505      2035.9412      19.75427       0              406.34622      0              0              9.1879818      9.6265587      0.2            88.448646    
     45100   0.22073714     0.0025469835   0.0025469835   0              0              1360.4296      2485.4583      235.18135      0              815.85746      0              0              9.18702        9.6329123      0.2            88.497758    
     45200   0.19576281     0.0025110291   0.0025110291   0              0              961.46333      2017.104      -94.326284      0              554.85427      0              0              9.1860583      9.6301179      0.2            88.462825    
     45300   0.17963042     0.002577709    0.002577709    0              0              672.09193      1522.0762     -178.09268      0              540.42675      0              0              9.1850966      9.6222308      0.2            88.381119    
     45400   0.20956015     0.0027950534   0.0027950534   0              0              1189.09        2141.6658      236.30593      0              167.49354      0              0              9.1841348      9.6207761      0.2            88.358505    
     45500   0.19940005     0.0024256778   0.0024256778   0              0              842.44923      1763.5114     -78.788716      0              649.60575      0              0              9.1831731      9.620682       0.2            88.348388    
     45600   0.19173467     0.0024376745   0.0024376745   0              0              897.21739      1804.5075     -10.263287      0              826.53512      0              0              9.1822114      9.615614       0.2            88.2926      
     45700   0.16776234     0.0024984767   0.0024984767   0              0              1235.2533      2271.9049      198.42159      0              293.13571      0              0              9.1812496      9.6102478      0.2            88.234084    
     45800   0.18735239     0.0025793563   0.0025793563   0              0              1112.7074      2345.4826     -120.22822      0              9.8154427      0              0              9.1802879      9.6176568      0.2            88.292858    
     45900   0.16383427     0.002878454    0.002878454    0              0              1526.3575      2988.3698      64.140046      0             -48.486375      0              0              9.1793261      9.614651       0.2            88.256018    
     46000   0.18091183     0.0027353748   0.0027353748   0              0              1527.5874      2968.8236      86.195621      0              941.581        0              0              9.1783644      9.6130221      0.2            88.23182     
     46100   0.18122223     0.0026592212   0.0026592212   0              0              982.43847      2207.5375     -242.83635      0             -41.137811      0              0              9.1774027      9.6104373      0.2            88.198852    
     46200   0.20318517     0.0026096179   0.0026096179   0              0              881.90079      1775.5839     -11.993487      0              232.3059       0              0              9.1764409      9.6126929      0.2            88.210309    
     46300   0.1822238      0.0023356932   0.0023356932   0              0              1473.6346      2646.4801      300.58119      0              493.40568      0              0              9.1754792      9.6036759      0.2            88.118329    
     46400   0.2090261      0.0026418084   0.0026418084   0              0              438.32292      1230.7399     -354.26245      0              244.18014      0              0              9.1745175      9.6030444      0.2            88.103299    
     46500   0.24115694     0.0028281114   0.0028281114   0              0              1361.5591      2992.2691     -269.33836      0              324.95352      0              0              9.1735557      9.6079352      0.2            88.138929    
     46600   0.22780842     0.002730572    0.002730572    0              0              1334.7376      2244.7881      424.52274      0              664.9154       0              0              9.172594       9.6009144      0.2            88.06529     
     46700   0.21930855     0.0026921429   0.0026921429   0              0              1060.5129      2177.6152     -56.778619      0              518.07348      0              0              9.1716322      9.6007367      0.2            88.054426    
     46800   0.18806978     0.0025601005   0.0025601005   0              0              1716.1059      3581.2398     -149.1796       0              632.60666      0              0              9.1706705      9.6070935      0.2            88.103489    
     46900   0.15800401     0.0026683111   0.0026683111   0              0              1476.9722      2642.1522      311.6163       0              195.71502      0              0              9.1697088      9.5950629      0.2            87.983932    
     47000   0.20839746     0.002682492    0.002682492    0              0              373.54231      813.47471     -66.57855       0              511.30827      0              0              9.168747       9.598286       0.2            88.004256    
     47100   0.20759152     0.0025157341   0.0025157341   0              0              1340.1667      2924.9434     -244.77699      0              695.83322      0              0              9.1677853      9.5998464      0.2            88.009331    
     47200   0.23063462     0.0024350905   0.0024350905   0              0              1424.9914      2492.6023      357.20432      0              665.87914      0              0              9.1668236      9.5942346      0.2            87.948656    
     47300   0.16314634     0.0024190812   0.0024190812   0              0              1367.9042      2722.5209      13.111539      0             -142.17898      0              0              9.1658618      9.5949319      0.2            87.94582     
     47400   0.14294995     0.0027620191   0.0027620191   0              0              869.92339      2121.9881     -382.31973      0              339.74614      0              0              9.1649001      9.5997547      0.2            87.980793    
     47500   0.20138136     0.0026643055   0.0026643055   0              0              1681.4278      3232.8331      129.85253      0              43.278395      0              0              9.1639383      9.6022418      0.2            87.994352    
     47600   0.26289031     0.0026232262   0.0026232262   0              0              1128.4024      2092.2204      164.40727      0             -31.386684      0              0              9.1629766      9.6054032      0.2            88.014085    
     47700   0.21130456     0.0028446552   0.0028446552   0              0              1070.7367      2600.7603     -459.44067      0              371.08928      0              0              9.1620149      9.6084632      0.2            88.032883    
     47800   0.25174706     0.0028078641   0.0028078641   0              0              1144.0109      2233.3778      54.479479      0              832.01511      0              0              9.1610531      9.5973116      0.2            87.921481    
     47900   0.24407684     0.0026388837   0.0026388837   0              0              1522.6975      2626.5764      418.65105      0              268.86988      0              0              9.1600914      9.5963416      0.2            87.903366    
     48000   0.23602677     0.0027593119   0.0027593119   0              0              1271.8612      3026.2974     -482.72622      0             -543.42531      0              0              9.1591296      9.6022541      0.2            87.94829     
     48100   0.19239207     0.0028613931   0.0028613931   0              0              1555.198       3135.1375     -24.876011      0             -74.833246      0              0              9.1581679      9.5981183      0.2            87.901179    
     48200   0.23050078     0.00272216     0.00272216     0              0              1435.7353      2437.1635      434.08714      0              218.74706      0              0              9.1572062      9.5959868      0.2            87.87243     
     48300   0.19068701     0.0025931047   0.0025931047   0              0              639.08094      1719.1602     -441.14571      0              29.579519      0              0              9.1562444      9.5967442      0.2            87.870136    
     48400   0.21834142     0.0028363721   0.0028363721   0              0              880.68575      1999.9151     -238.72243      0              43.825892      0              0              9.1552827      9.5930058      0.2            87.82668     
     48500   0.19781082     0.0026579609   0.0026579609   0              0              1357.4762      2172.6699      542.08054      0              572.31137      0              0              9.154321       9.5878818      0.2            87.770548    
     48600   0.22319029     0.0028455198   0.0028455198   0              0              977.88309      2233.4347     -277.86654      0              1144.3542      0              0              9.1533592      9.5875768      0.2            87.758535    
     48700   0.2019802      0.002956693    0.002956693    0              0              1050.1225      2596.6738     -496.57366      0              556.86065      0              0              9.1523975      9.5894126      0.2            87.766116    
     48800   0.17230937     0.0028361632   0.0028361632   0              0              1886.6866      3128.389       644.82475      0              390.37773      0              0              9.1514357      9.58054        0.2            87.675696    
     48900   0.19479125     0.0026747066   0.0026747066   0              0              996.86538      1725.0923      268.47519      0              118.26256      0              0              9.150474       9.5750928      0.2            87.616638    
     49000   0.17683103     0.0024396244   0.0024396244   0              0              449.05866      1821.7451     -923.78933      0              264.27523      0              0              9.1495123      9.5852855      0.2            87.700687    
     49100   0.16636891     0.0026829347   0.0026829347   0              0              1352.0554      2589.2289      114.72396      0              438.93083      0              0              9.1485505      9.5721845      0.2            87.571614    
     49200   0.1690665      0.002774885    0.002774885    0              0              1302.6071      1947.4057      657.65544      0              423.96818      0              0              9.1475888      9.5684964      0.2            87.52867     
     49300   0.17181557     0.0027489709   0.0027489709   0              0              896.62309      2444.5492     -651.46489      0              282.24179      0              0              9.1466271      9.5785369      0.2            87.611305    
     49400   0.20421351     0.0025258955   0.0025258955   0              0              1239.7269      2803.0682     -323.81873      0              1058.9545      0              0              9.1456653      9.5746514      0.2            87.566557    
     49500   0.18715114     0.002667851    0.002667851    0              0              2050.21        3260.8379      839.42743      0              627.61225      0              0              9.1447036      9.5663872      0.2            87.481775    
     49600   0.20252947     0.0026559909   0.0026559909   0              0              472.43991      1062.8648     -118.19939      0              521.74821      0              0              9.1437418      9.5598579      0.2            87.412873    
     49700   0.18118411     0.0024954819   0.0024954819   0              0              379.21242      1718.7929     -960.56948      0              283.53163      0              0              9.1427801      9.5698109      0.2            87.494676    
     49800   0.19521725     0.0027710972   0.0027710972   0              0              1246.4247      2003.116       489.53466      0              693.89985      0              0              9.1418184      9.5568923      0.2            87.367374    
     49900   0.19531983     0.0025429066   0.0025429066   0              0              1174.8118      1577.6644      771.78494      0              647.36724      0              0              9.1408566      9.5550645      0.2            87.341474    
     50000   0.17684625     0.0025981766   0.0025981766   0              0              352.87861      1592.8218     -887.23212      0             -72.433602      0              0              9.1398949      9.5621664      0.2            87.397196    
     50100   0.19982611     0.00298707     0.00298707     0              0              623.56832      1537.7192     -290.78329      0              1122.8288      0              0              9.1389332      9.5572777      0.2            87.343322    
     50200   0.17987122     0.002725592    0.002725592    0              0              1479.5038      1794.2115      1164.6105      0              889.87739      0              0              9.1379714      9.5530212      0.2            87.295235    
     50300   0.24061729     0.0024984378   0.0024984378   0              0              202.40219      827.10762     -422.45772      0              786.89779      0              0              9.1370097      9.5623491      0.2            87.371276    
     50352   0.17092808     0.0028080593   0.0028080593   0              0              883.23292      652.06001      1114.2249      0              1279.2529      0              0              9.1365096      9.5510892      0.2            87.263618    
Loop time of 1.0963 on 1 procs for 50000 steps with 57 atoms

Performance: 39405.388 ns/day, 0.001 hours/ns, 45608.088 timesteps/s
99.0% CPU use with 1 MPI tasks x 1 OpenMP threads

MPI task timing breakdown:
Section |  min time  |  avg time  |  max time  |%varavg| %total
---------------------------------------------------------------
Pair    | 0          | 0          | 0          |   0.0 |  0.00
Bond    | 0.16435    | 0.16435    | 0.16435    |   0.0 | 14.99
Neigh   | 0          | 0          | 0          |   0.0 |  0.00
Comm    | 0.37619    | 0.37619    | 0.37619    |   0.0 | 34.31
Output  | 0.0095683  | 0.0095683  | 0.0095683  |   0.0 |  0.87
Modify  | 0.52014    | 0.52014    | 0.52014    |   0.0 | 47.45
Other   |            | 0.02605    |            |       |  2.38

Nlocal:             57 ave          57 max          57 min
Histogram: 1 0 0 0 0 0 0 0 0 0
Nghost:            490 ave         490 max         490 min
Histogram: 1 0 0 0 0 0 0 0 0 0
Neighs:              0 ave           0 max           0 min
Histogram: 1 0 0 0 0 0 0 0 0 0

Total # of neighbors = 0
Ave neighs/atom = 0
Ave special neighs/atom = 22.280702
Neighbor list builds = 0
Dangerous builds = 0


Total wall time: 0:00:01
