LAMMPS data file.

     57 atoms
    134 bonds
      0 angles
      0 dihedrals
      0 impropers
      1 atom types
    134 bond types
      0 angle types
      0 dihedral types
      0 improper types
  -4.808689   4.808689 xlo xhi
  -4.808689   4.808689 ylo yhi
  -0.100000   0.100000 zlo zhi

Masses # ['atom_id', 'mass']

1 10000.0

Atoms # ['atomID', 'moleculeID', 'atomType', 'charge', 'x', 'y', 'z']

     64      1      1   0.000000  -4.439496  -4.398990   0.000000
     23      1      1   0.000000  -2.893642  -4.283223   0.000000
     56      1      1   0.000000  -1.841004  -4.102416   0.000000
     76      1      1   0.000000  -0.647082  -4.474129   0.000000
     80      1      1   0.000000  -1.133150  -4.261846   0.000000
     60      1      1   0.000000  -0.069363  -3.972112   0.000000
      1      1      1   0.000000   1.064117  -4.499976   0.000000
     22      1      1   0.000000   2.548234  -4.736514   0.000000
      3      1      1   0.000000   4.249133  -3.778972   0.000000
     35      1      1   0.000000  -3.811404  -3.786571   0.000000
     42      1      1   0.000000  -4.521055  -2.877822   0.000000
      4      1      1   0.000000  -2.552367  -2.998597   0.000000
      6      1      1   0.000000  -0.894538  -3.247055   0.000000
     19      1      1   0.000000   0.644442  -3.039180   0.000000
     40      1      1   0.000000   3.387608  -2.651251   0.000000
     48      1      1   0.000000  -4.190778  -1.948330   0.000000
     33      1      1   0.000000  -2.639535  -1.698043   0.000000
     51      1      1   0.000000  -1.578220  -2.335615   0.000000
     25      1      1   0.000000  -0.216594  -2.011481   0.000000
      5      1      1   0.000000   1.208120  -1.703697   0.000000
     67      1      1   0.000000   4.291296  -2.696849   0.000000
     39      1      1   0.000000  -3.727329  -1.062913   0.000000
      7      1      1   0.000000  -1.306743  -1.180406   0.000000
     36      1      1   0.000000   0.189921  -0.910683   0.000000
     15      1      1   0.000000   2.752585  -1.441038   0.000000
      9      1      1   0.000000   4.207542  -1.728814   0.000000
     62      1      1   0.000000  -3.627969  -0.167583   0.000000
      8      1      1   0.000000  -2.549409  -0.356815   0.000000
     77      1      1   0.000000  -1.597875   0.287961   0.000000
     32      1      1   0.000000  -0.675228   0.069814   0.000000
     55      1      1   0.000000   0.262987   0.500272   0.000000
     70      1      1   0.000000   0.217430  -0.063970   0.000000
     20      1      1   0.000000   1.357937  -0.210026   0.000000
     13      1      1   0.000000  -4.686278   1.101407   0.000000
     52      1      1   0.000000  -3.617215   0.572487   0.000000
     30      1      1   0.000000  -1.349907   1.179787   0.000000
     10      1      1   0.000000   0.870810   1.518125   0.000000
     41      1      1   0.000000  -4.361174   2.249142   0.000000
     14      1      1   0.000000  -3.339389   1.703941   0.000000
     12      1      1   0.000000  -1.928673   2.372410   0.000000
     16      1      1   0.000000   1.866186   2.566569   0.000000
     27      1      1   0.000000   3.231240   2.626870   0.000000
     57      1      1   0.000000   4.333696   2.578982   0.000000
     31      1      1   0.000000  -4.537839   3.378267   0.000000
     17      1      1   0.000000  -3.186629   3.197733   0.000000
     21      1      1   0.000000  -1.887956   3.719503   0.000000
     28      1      1   0.000000  -0.857278   3.129422   0.000000
     18      1      1   0.000000   0.510639   2.940724   0.000000
     58      1      1   0.000000   3.011386   3.948223   0.000000
     26      1      1   0.000000   3.853741   3.525260   0.000000
     29      1      1   0.000000  -3.868899   4.567834   0.000000
     45      1      1   0.000000  -2.843127   4.342024   0.000000
      2      1      1   0.000000  -0.116104   4.418057   0.000000
     49      1      1   0.000000   0.931719   4.001380   0.000000
     37      1      1   0.000000   1.840089   3.899759   0.000000
     53      1      1   0.000000   3.604054   4.736464   0.000000
     34      1      1   0.000000   4.555759   4.565904   0.000000

Bond Coeffs # ['bondID', 'bondCoeff', 'd']

      1   0.833958   1.095035
      2   1.468814   0.825119
      3   0.475908   1.449568
      4   1.468814   0.825119
      5   1.221405   0.904837
      6   1.059203   0.971651
      7   0.920187   1.042466
      8   0.531348   1.371862
      9   0.656087   1.234580
     10   0.656087   1.234580
     11   1.001254   0.999374
     12   0.531348   1.371862
     13   1.299448   0.877244
     14   0.720197   1.178350
     15   1.230356   0.901539
     16   0.510518   1.399570
     17   1.230356   0.901539
     18   0.880585   1.065649
     19   0.880585   1.065649
     20   0.836723   1.093224
     21   0.724700   1.174684
     22   0.745553   1.158140
     23   0.653678   1.236853
     24   0.653678   1.236853
     25   0.634611   1.255297
     26   0.821220   1.103495
     27   0.836723   1.093224
     28   0.769300   1.140124
     29   0.938489   1.032251
     30   0.535616   1.366386
     31   0.700577   1.194736
     32   0.656521   1.234172
     33   0.711503   1.185527
     34   0.828761   1.098463
     35   0.583676   1.308923
     36   0.539031   1.362050
     37   0.562405   1.333446
     38   0.478468   1.445685
     39   0.630245   1.259637
     40   0.639625   1.250367
     41   3.120665   0.566078
     42   0.756915   1.149414
     43   1.825421   0.740148
     44   0.588568   1.303472
     45   0.770331   1.139361
     46   1.899422   0.725587
     47   0.524438   1.380871
     48   1.232304   0.900826
     49   0.906455   1.050333
     50   0.581073   1.311852
     51   0.791743   1.123849
     52   0.791743   1.123849
     53   0.600384   1.290582
     54   0.553399   1.344253
     55   0.556314   1.340726
     56   1.707126   0.765363
     57   1.069712   0.966867
     58   1.013298   0.993417
     59   0.736715   1.165065
     60   1.013298   0.993417
     61   1.125544   0.942581
     62   0.432891   1.519886
     63   0.888259   1.061036
     64   0.708971   1.187642
     65   0.756380   1.149821
     66   0.496529   1.419147
     67   0.876626   1.068053
     68   1.112513   0.948085
     69   1.196940   0.914037
     70   0.407438   1.566640
     71   0.443508   1.501582
     72   0.651766   1.238666
     73   0.614462   1.275712
     74   0.651766   1.238666
     75   0.505689   1.406236
     76   0.410345   1.561080
     77   0.532167   1.370807
     78   0.650037   1.240312
     79   0.702913   1.192750
     80   0.459315   1.475519
     81   0.922229   1.041312
     82   0.922229   1.041312
     83   0.852683   1.082944
     84   1.335469   0.865333
     85   1.227389   0.902628
     86   1.393382   0.847159
     87   0.702746   1.192891
     88   1.335469   0.865333
     89   0.479665   1.443879
     90   0.479665   1.443879
     91   0.414650   1.552956
     92   1.167076   0.925658
     93   0.449939   1.490813
     94   0.918316   1.043528
     95   0.663030   1.228099
     96   0.663030   1.228099
     97   0.837092   1.092983
     98   0.535370   1.366700
     99   0.710122   1.186680
    100   0.530203   1.373342
    101   0.454605   1.483143
    102   0.767873   1.141183
    103   0.613346   1.276872
    104   0.593532   1.298010
    105   0.593532   1.298010
    106   0.489169   1.429785
    107   0.765619   1.142862
    108   0.509721   1.400664
    109   0.566016   1.329185
    110   0.786441   1.127631
    111   0.569049   1.325639
    112   1.041865   0.979703
    113   1.041865   0.979703
    114   0.538109   1.363217
    115   0.464358   1.467484
    116   1.237864   0.898801
    117   0.503461   1.409345
    118   0.683043   1.209973
    119   1.237864   0.898801
    120   0.683043   1.209973
    121   0.592686   1.298935
    122   1.027709   0.986427
    123   0.625623   1.264281
    124   0.702945   1.192722
    125   0.702945   1.192722
    126   0.443754   1.501166
    127   0.801926   1.116691
    128   1.028193   0.986195
    129   0.550564   1.347709
    130   0.801926   1.116691
    131   0.726210   1.173461
    132   3.554605   0.530401
    133   0.441772   1.504531
    134   0.650037   1.240312

Bonds # ['ID', 'type', 'atom1', 'atom2']

         1         1        62         8
         2         2        42        67
         3         3        19         5
         4         4        67        42
         5         5        40        67
         6         6        67         9
         7         7        80         6
         8         8         1         2
         9         9        31        26
        10        10        26        31
        11        11        48        39
        12        12         2         1
        13        13        64        35
        14        14         4        51
        15        15        64        34
        16        16        17        21
        17        17        34        64
        18        18        22        53
        19        19        53        22
        20        20        57        31
        21        21        60        19
        22        22        41        14
        23        23         3        42
        24        24        42         3
        25        25        26        34
        26        26        27        57
        27        27        31        57
        28        28        21        45
        29        29        32        55
        30        30        16        27
        31        31        17        45
        32        32        40         9
        33        33        55        10
        34        34        60         6
        35        35         3        34
        36        36        36        20
        37        37        16        37
        38        38        10        16
        39        39        33        39
        40        40        60         1
        41        41        55        70
        42        42         8        77
        43        43        62        52
        44        44         4        33
        45        45         6        51
        46        46        56        80
        47        47        28        18
        48        48        39        62
        49        49        29        45
        50        50        12        28
        51        51         1        49
        52        52        49         1
        53        53         5        36
        54        54        33         8
        55        55        19        25
        56        56        76        60
        57        57        53        34
        58        58        23        45
        59        59        52        14
        60        60        45        23
        61        61        58        26
        62        62         1        19
        63        63        57        26
        64        64        21        28
        65        65        70        20
        66        66         3        40
        67        67        23        56
        68        68        77        32
        69        69        49        37
        70        70         5        15
        71        71        14        17
        72        72        48         9
        73        73        56         6
        74        74         9        48
        75        75        16        18
        76        76        14        12
        77        77        25         7
        78        78        23        29
        79        79        13        52
        80        80        13        14
        81        81        22        58
        82        82        58        22
        83        83         3        67
        84        84        64        29
        85        85        32        70
        86        86        36        70
        87        87        13        41
        88        88        29        64
        89        89         1        37
        90        90        37         1
        91        91         6        19
        92        92        77        30
        93        93         7         8
        94        94        23        35
        95        95        60         2
        96        96         2        60
        97        97        27        26
        98        98        40        15
        99        99        51         7
       100       100        39         8
       101       101        15         9
       102       102        18        49
       103       103         3        53
       104       104        31        34
       105       105        34        31
       106       106        33         7
       107       107        41        31
       108       108         7        32
       109       109        23         4
       110       110         2        49
       111       111        30        12
       112       112        41        57
       113       113        57        41
       114       114        31        17
       115       115        10        18
       116       116        76         2
       117       117         6        25
       118       118        22        37
       119       119         2        76
       120       120        37        22
       121       121        32        30
       122       122        42        48
       123       123        35        29
       124       124        29        34
       125       125        34        29
       126       126         5        20
       127       127        64         3
       128       128        58        53
       129       129        12        21
       130       130         3        64
       131       131        25        36
       132       132        76        80
       133       133        12        17
       134       134        29        23
