LAMMPS data file via write_data, version 23 Jun 2022, timestep = 10000

80 atoms
4 atom types

-4.802776595158977 4.802776595158977 xlo xhi
-4.802776595158977 4.802776595158977 ylo yhi
-0.1 0.1 zlo zhi

Atoms # sphere

34 2 1.3 0.4551661356395083 -3.3316777719940545 -3.752314695148735 0 0 1 0
11 1 1.6 0.2441406249999999 -2.2897358042856935 4.367639520836932 0 0 -1 0
58 3 1 1 -1.0290227125289113 -4.584181337763197 0 0 0 0
77 4 0.7 2.915451895043732 1.0789020405853265 -4.629968296105831 0 0 0 0
65 4 0.7 2.915451895043732 0.6093458873961293 -4.002778294833707 0 0 0 0
51 3 1 1 1.784579761455845 -4.301742804920707 0 0 1 0
54 3 1 1 3.711376263133249 -3.9868597227052263 0 0 0 0
16 1 1.6 0.2441406249999999 -4.5695827461712994 -4.511909029399416 0 0 0 0
47 3 1 1 -4.528665686958053 -3.299602939051111 0 1 1 0
73 4 0.7 2.915451895043732 -2.612192905874225 -4.195479236422874 0 0 0 0
43 3 1 1 -2.685900719368289 -2.954135594862897 0 0 0 0
1 1 1.6 0.2441406249999999 -1.674402207886284 -3.6030152860984006 0 0 0 0
27 2 1.3 0.4551661356395083 -0.2796076903036955 -3.798168331299393 0 0 0 0
2 1 1.6 0.2441406249999999 1.3210391635470158 -3.084159795729377 0 0 1 0
21 2 1.3 0.4551661356395083 2.6842100437207836 -3.5893446882666935 0 0 0 0
57 3 1 1 3.7738374030727497 -2.970974272989003 0 0 0 0
69 4 0.7 2.915451895043732 4.252226599777461 -3.4843220980565714 0 -1 0 0
70 4 0.7 2.915451895043732 4.744371400653438 -1.7064749103133394 0 0 1 0
3 1 1.6 0.2441406249999999 -3.747417892650095 -2.4351498332983876 0 0 0 0
23 2 1.3 0.4551661356395083 -2.097819977572128 -2.0614109192864922 0 0 0 0
13 1 1.6 0.2441406249999999 -0.7380767354898774 -2.5203093728959765 0 0 1 0
75 4 0.7 2.915451895043732 0.27010462739402286 -3.1027432804654334 0 0 0 0
38 2 1.3 0.4551661356395083 0.5080419333267514 -1.9685627017683225 0 0 0 0
79 4 0.7 2.915451895043732 1.5207629801019573 -2.089370647705656 0 0 0 0
17 1 1.6 0.2441406249999999 2.6851358388529976 -2.2191466809256917 0 0 0 0
49 3 1 1 4.633517497149046 -2.5523694864292032 0 -1 0 0
32 2 1.3 0.4551661356395083 3.874809240799455 -1.860953679226792 0 -1 0 0
10 1 1.6 0.2441406249999999 -3.9088809246283445 -1.0441024779635377 0 1 0 0
20 1 1.6 0.2441406249999999 -2.56910023393414 -0.49427193812988435 0 0 0 0
15 1 1.6 0.2441406249999999 -1.1357348339082525 -1.0558246418968786 0 0 0 0
30 2 1.3 0.4551661356395083 0.38698848370815053 -0.6930452541754084 0 0 0 0
5 1 1.6 0.2441406249999999 1.6481883021641313 -1.201315953668261 0 0 0 0
50 3 1 1 2.8005999714225958 -0.9844398211763421 0 0 0 0
64 4 0.7 2.915451895043732 3.5872052594688855 -0.9896792197010931 0 0 0 0
36 2 1.3 0.4551661356395083 4.4527839574375205 -0.7899129714419235 0 0 0 0
46 3 1 1 -4.302224252298968 0.09180033775770102 0 1 0 0
62 4 0.7 2.915451895043732 -3.5550290561485935 0.04276979987996388 0 0 0 0
66 4 0.7 2.915451895043732 -2.198846020325757 0.6346155718206896 0 1 0 0
22 2 1.3 0.4551661356395083 -1.330258944076022 0.5147307966643986 0 0 0 0
76 4 0.7 2.915451895043732 -0.6725329536911602 -0.18056958593911254 0 0 0 0
55 3 1 1 1.0931732375333683 0.003849023013360764 0 0 0 0
29 2 1.3 0.4551661356395083 2.1946357979957964 -0.0207840974691873 0 0 0 0
35 2 1.3 0.4551661356395083 3.3285910703086605 -0.1006467368757713 0 0 0 0
74 4 0.7 2.915451895043732 4.7240500775265195 0.9140571092985432 0 -1 -1 0
68 4 0.7 2.915451895043732 4.588757009159486 0.2782157014228446 0 -1 0 0
41 3 1 1 -4.2798963069134786 1.2166631001578363 0 1 0 0
71 4 0.7 2.915451895043732 -3.614444759744231 1.5989785157771648 0 1 0 0
25 2 1.3 0.4551661356395083 -3.1282077428200186 0.8340061510815593 0 0 0 0
33 2 1.3 0.4551661356395083 -1.893701387126998 1.5730731432277265 0 0 0 0
42 3 1 1 -0.7817546617492317 1.4158498121543177 0 0 0 0
19 1 1.6 0.2441406249999999 0.03530389197648098 0.5721174744770394 0 0 0 0
14 1 1.6 0.2441406249999999 1.4891673445105837 1.2368686005569085 0 0 0 0
53 3 1 1 2.7694776194716306 0.8659806498615383 0 0 0 0
80 4 0.7 2.915451895043732 3.8110609598279295 1.8938326077456757 0 0 1 0
37 2 1.3 0.4551661356395083 3.76093441287865 0.9577938181709351 0 0 0 0
56 3 1 1 -3.833227622191322 2.134336971145639 0 0 0 0
59 3 1 1 -2.9776207824042986 1.90115617802988 0 0 0 0
60 3 1 1 -3.332325123887171 2.7063504942731136 0 0 -1 0
44 3 1 1 -2.45865868342942 2.506794947225199 0 0 -1 0
12 1 1.6 0.2441406249999999 -1.0730618269555112 2.7079048554127674 0 0 0 0
31 2 1.3 0.4551661356395083 0.0735878631657263 1.907591709560207 0 0 -1 0
63 4 0.7 2.915451895043732 0.9644141536304938 2.1728236032365986 0 0 0 0
26 2 1.3 0.4551661356395083 2.663662476845661 1.922803533024446 0 0 0 0
52 3 1 1 3.561087626197323 2.603042165283691 0 0 0 0
6 1 1.6 0.2441406249999999 4.726363085045253 2.342879161474377 0 -1 0 0
8 1 1.6 0.2441406249999999 -3.9826424723935503 3.7750606135134985 0 0 -1 0
78 4 0.7 2.915451895043732 -1.7916781911563229 3.4832705488681333 0 1 -1 0
7 1 1.6 0.2441406249999999 0.48307910289435174 3.15839796912309 0 -1 0 0
40 2 1.3 0.4551661356395083 1.8137130215796766 2.690575130134264 0 -1 0 0
24 2 1.3 0.4551661356395083 2.7857135622065385 3.326510318012839 0 0 0 0
45 3 1 1 -3.443258790738808 4.710643457203365 0 0 0 0
67 4 0.7 2.915451895043732 -3.0105172840084977 3.7595366401898653 0 0 -1 0
48 3 1 1 -2.5132844426499816 3.198747782870213 0 1 0 0
61 4 0.7 2.915451895043732 -0.30168240108665323 3.785165389245422 0 0 0 0
39 2 1.3 0.4551661356395083 -1.1379883123196817 4.035628107381979 0 0 0 0
28 2 1.3 0.4551661356395083 -0.020526805650895597 4.568070589225221 0 -1 0 0
4 1 1.6 0.2441406249999999 1.6215004352122042 4.068882897918898 0 0 -1 0
9 1 1.6 0.2441406249999999 2.904672450145247 4.73698954489777 0 0 -1 0
72 4 0.7 2.915451895043732 3.9952542503945354 -4.664076100349028 0 -1 0 0
18 1 1.6 0.2441406249999999 4.1270768913723 3.824775424963982 0 -1 -1 0

Velocities

34 -0.03978676777245017 0.020502832034945292 0 0 0 0
11 0.22076682966268243 -0.050954864503986154 0 0 0 0
58 -0.04479674827886555 0.11703601727325219 0 0 0 0
77 0.0967235959191757 0.21539511606400413 0 0 0 0
65 0.03036099360173939 -0.019126367057274385 0 0 0 0
51 0.05522193557325745 0.026834275496289972 0 0 0 0
54 0.06837589902377268 0.13068628014139044 0 0 0 0
16 -0.10536932406936106 0.008171951661963247 0 0 0 0
47 -0.06503980176915104 -0.05909956717953752 0 0 0 0
73 -0.07493414351919662 0.1057791208831483 0 0 0 0
43 -0.0800103357538379 0.05899408329865455 0 0 0 0
1 0.015757100661381238 -0.23992117096263793 0 0 0 0
27 -0.0456817106844116 0.1131754998449084 0 0 0 0
2 0.09221195208424456 0.2916152092551893 0 0 0 0
21 -0.19155011439495806 -0.09265710469708131 0 0 0 0
57 0.011987055591634327 -0.041468580808635004 0 0 0 0
69 0.01593307919662357 -0.043400308541747985 0 0 0 0
70 0.12603679490553374 0.010253680556347369 0 0 0 0
3 0.12967967023908056 0.09920928014102974 0 0 0 0
23 -0.04846906861725677 0.022825713978009192 0 0 0 0
13 -0.10403038102937832 -0.09806637278652998 0 0 0 0
75 -0.08741801438658624 0.07167248857279555 0 0 0 0
38 -0.13057354708559288 -0.13646685933148356 0 0 0 0
79 0.15122071002502346 -0.19485036418803683 0 0 0 0
17 -0.11197292188547807 0.07850186039579078 0 0 0 0
49 -0.013440330993294777 -0.002494789490198518 0 0 0 0
32 0.0006268857154212803 -0.02031475404890681 0 0 0 0
10 -0.026855305985536832 0.01616088236340277 0 0 0 0
20 0.10330417285150836 -0.17245770041055192 0 0 0 0
15 -0.23971233283710278 0.06345104899700701 0 0 0 0
30 0.02858321262682708 -0.09703871864760624 0 0 0 0
5 0.2580215530688881 -0.03926001332087234 0 0 0 0
50 -0.28018100969900944 0.03267960096368512 0 0 0 0
64 0.04316802021670532 -0.07519763757422594 0 0 0 0
36 0.04053838364488389 -0.20010786829341443 0 0 0 0
46 -0.025572039894073088 0.015840532909114288 0 0 0 0
62 -0.008699621873827338 0.009419351837070152 0 0 0 0
66 -0.04359599521354007 0.07276488929322497 0 0 0 0
22 -0.09446759598072754 -0.05781272336696485 0 0 0 0
76 -0.01337841487417818 0.007826286603801143 0 0 0 0
55 0.23488017049641388 0.06875242823235975 0 0 0 0
29 -0.06674412818001578 0.023964150879392385 0 0 0 0
35 0.052972475124469225 -0.03450549772438833 0 0 0 0
74 -0.10023533960001382 0.03982193778950441 0 0 0 0
68 0.007719994999122909 0.22483854263154363 0 0 0 0
41 0.18914701381062166 0.15132005992947917 0 0 0 0
71 -0.20076139293715917 0.056919824380580304 0 0 0 0
25 -0.23163764575854595 0.08910582499116097 0 0 0 0
33 -0.039749292338840836 -0.039682500202891866 0 0 0 0
42 0.18723511073229188 0.012780722733840545 0 0 0 0
19 0.02679404857105459 0.07146969894032719 0 0 0 0
14 0.13523347125879118 -0.14583486867101267 0 0 0 0
53 0.09908595306531806 0.3153558532691125 0 0 0 0
80 -0.04531939355889619 0.18133656134144951 0 0 0 0
37 0.002257574824205562 0.13390056270654963 0 0 0 0
56 0.013635111046655983 -0.07924675021211798 0 0 0 0
59 0.08529849262887147 -0.16026730468811995 0 0 0 0
60 -0.011338598694061704 -0.22583751953741085 0 0 0 0
44 0.057399344337237916 -0.17555289373044347 0 0 0 0
12 0.010469575804049377 0.05675489982009739 0 0 0 0
31 0.11291021522186959 -0.09154078977968794 0 0 0 0
63 0.04536360660407788 0.05060066143140417 0 0 0 0
26 0.0103184696523005 -0.1512017243583462 0 0 0 0
52 -0.10414598032648326 0.04211338941658477 0 0 0 0
6 -0.0372568548419363 0.07513615418663927 0 0 0 0
8 0.0518583959270104 -0.1254651737073192 0 0 0 0
78 0.13965253606915054 -0.051521944861432405 0 0 0 0
7 -0.21022167051849958 0.06777357593627321 0 0 0 0
40 -0.04828118458011186 -0.1330340612601799 0 0 0 0
24 0.1793896654927753 0.10103889760167528 0 0 0 0
45 -0.11688779162069686 0.011393301576663292 0 0 0 0
67 0.10477099704664465 0.1479625574224019 0 0 0 0
48 -0.14552514350983767 -0.11602348297909812 0 0 0 0
61 0.0025691096360251128 0.004655819157432696 0 0 0 0
39 0.15917562805122767 -0.0910372040447549 0 0 0 0
28 -0.010278156642863922 0.007897298376762405 0 0 0 0
4 -0.12303911889382578 -0.15152164881194125 0 0 0 0
9 -0.16157791557441215 -0.09412562166585882 0 0 0 0
72 0.09241948707860667 -0.012724303908460792 0 0 0 0
18 0.039460842086840545 -0.0038696699630965357 0 0 0 0
