LAMMPS data file.

     70 atoms
    163 bonds
      0 angles
      0 dihedrals
      0 impropers
      1 atom types
    163 bond types
      0 angle types
      0 dihedral types
      0 improper types
  -4.802777   4.802777 xlo xhi
  -4.802777   4.802777 ylo yhi
  -0.100000   0.100000 zlo zhi

Masses # ['atom_id', 'mass']

1 10000.0

Atoms # ['atomID', 'moleculeID', 'atomType', 'charge', 'x', 'y', 'z']

     34      1      1   0.000000  -3.331678  -3.752315   0.000000
     11      1      1   0.000000  -2.289736   4.367640   0.000000
     58      1      1   0.000000  -1.029023  -4.584181   0.000000
     51      1      1   0.000000   1.784580  -4.301743   0.000000
     54      1      1   0.000000   3.711376  -3.986860   0.000000
     16      1      1   0.000000  -4.569583  -4.511909   0.000000
     47      1      1   0.000000  -4.528666  -3.299603   0.000000
     73      1      1   0.000000  -2.612193  -4.195479   0.000000
     43      1      1   0.000000  -2.685901  -2.954136   0.000000
      1      1      1   0.000000  -1.674402  -3.603015   0.000000
     27      1      1   0.000000  -0.279608  -3.798168   0.000000
     21      1      1   0.000000   2.684210  -3.589345   0.000000
     57      1      1   0.000000   3.773837  -2.970974   0.000000
     69      1      1   0.000000   4.252227  -3.484322   0.000000
      3      1      1   0.000000  -3.747418  -2.435150   0.000000
     23      1      1   0.000000  -2.097820  -2.061411   0.000000
     13      1      1   0.000000  -0.738077  -2.520309   0.000000
     38      1      1   0.000000   0.508042  -1.968563   0.000000
     17      1      1   0.000000   2.685136  -2.219147   0.000000
     49      1      1   0.000000   4.633517  -2.552369   0.000000
     32      1      1   0.000000   3.874809  -1.860954   0.000000
     10      1      1   0.000000  -3.908881  -1.044102   0.000000
     20      1      1   0.000000  -2.569100  -0.494272   0.000000
     15      1      1   0.000000  -1.135735  -1.055825   0.000000
     30      1      1   0.000000   0.386988  -0.693045   0.000000
      5      1      1   0.000000   1.648188  -1.201316   0.000000
     50      1      1   0.000000   2.800600  -0.984440   0.000000
     64      1      1   0.000000   3.587205  -0.989679   0.000000
     36      1      1   0.000000   4.452784  -0.789913   0.000000
     62      1      1   0.000000  -3.555029   0.042770   0.000000
     66      1      1   0.000000  -2.198846   0.634616   0.000000
     22      1      1   0.000000  -1.330259   0.514731   0.000000
     76      1      1   0.000000  -0.672533  -0.180570   0.000000
     55      1      1   0.000000   1.093173   0.003849   0.000000
     29      1      1   0.000000   2.194636  -0.020784   0.000000
     35      1      1   0.000000   3.328591  -0.100647   0.000000
     71      1      1   0.000000  -3.614445   1.598979   0.000000
     25      1      1   0.000000  -3.128208   0.834006   0.000000
     33      1      1   0.000000  -1.893701   1.573073   0.000000
     42      1      1   0.000000  -0.781755   1.415850   0.000000
     19      1      1   0.000000   0.035304   0.572117   0.000000
     14      1      1   0.000000   1.489167   1.236869   0.000000
     53      1      1   0.000000   2.769478   0.865981   0.000000
     80      1      1   0.000000   3.811061   1.893833   0.000000
     37      1      1   0.000000   3.760934   0.957794   0.000000
     56      1      1   0.000000  -3.833228   2.134337   0.000000
     59      1      1   0.000000  -2.977621   1.901156   0.000000
     60      1      1   0.000000  -3.332325   2.706350   0.000000
     44      1      1   0.000000  -2.458659   2.506795   0.000000
     12      1      1   0.000000  -1.073062   2.707905   0.000000
     31      1      1   0.000000   0.073588   1.907592   0.000000
     63      1      1   0.000000   0.964414   2.172824   0.000000
     26      1      1   0.000000   2.663662   1.922804   0.000000
     52      1      1   0.000000   3.561088   2.603042   0.000000
      6      1      1   0.000000   4.726363   2.342879   0.000000
      8      1      1   0.000000  -3.982642   3.775061   0.000000
     78      1      1   0.000000  -1.791678   3.483271   0.000000
      7      1      1   0.000000   0.483079   3.158398   0.000000
     40      1      1   0.000000   1.813713   2.690575   0.000000
     24      1      1   0.000000   2.785714   3.326510   0.000000
     45      1      1   0.000000  -3.443259   4.710643   0.000000
     67      1      1   0.000000  -3.010517   3.759537   0.000000
     48      1      1   0.000000  -2.513284   3.198748   0.000000
     61      1      1   0.000000  -0.301682   3.785165   0.000000
     39      1      1   0.000000  -1.137988   4.035628   0.000000
     28      1      1   0.000000  -0.020527   4.568071   0.000000
      4      1      1   0.000000   1.621500   4.068883   0.000000
      9      1      1   0.000000   2.904672   4.736990   0.000000
     72      1      1   0.000000   3.995254  -4.664076   0.000000
     18      1      1   0.000000   4.127077   3.824775   0.000000

Bond Coeffs # ['bondID', 'bondCoeff', 'd']

      1   0.962074   1.019520
      2   0.762261   1.145376
      3   0.477807   1.446685
      4   1.312096   0.873006
      5   0.771709   1.138343
      6   1.237269   0.899017
      7   1.400456   0.845017
      8   0.701483   1.193965
      9   0.609162   1.281249
     10   0.529492   1.374264
     11   0.700195   1.195062
     12   0.736579   1.165173
     13   0.700195   1.195062
     14   1.166507   0.925883
     15   0.644479   1.245649
     16   0.644479   1.245649
     17   0.793355   1.122706
     18   0.898576   1.054928
     19   0.516348   1.391646
     20   0.502653   1.410477
     21   1.187881   0.917516
     22   0.812226   1.109587
     23   0.812226   1.109587
     24   1.445110   0.831859
     25   1.091648   0.957103
     26   1.291734   0.879860
     27   1.217124   0.906427
     28   0.509868   1.400461
     29   0.620397   1.269595
     30   0.620397   1.269595
     31   0.875047   1.069017
     32   0.540556   1.360127
     33   0.532639   1.370198
     34   1.094951   0.955658
     35   0.903959   1.051782
     36   0.936706   1.033233
     37   0.788584   1.126098
     38   0.903959   1.051782
     39   0.847860   1.086020
     40   2.012655   0.704880
     41   0.948661   1.026702
     42   0.773854   1.136764
     43   0.499101   1.415487
     44   0.839621   1.091335
     45   0.690480   1.203440
     46   0.895420   1.056785
     47   0.801940   1.116681
     48   0.540843   1.359766
     49   1.365357   0.855809
     50   1.616095   0.786623
     51   0.943517   1.029497
     52   0.857449   1.079931
     53   0.577301   1.316130
     54   0.560238   1.336023
     55   0.410490   1.560806
     56   0.410490   1.560806
     57   0.824342   1.101403
     58   0.590926   1.300869
     59   0.679643   1.212996
     60   0.765402   1.143023
     61   0.488053   1.431418
     62   0.889196   1.060477
     63   1.010739   0.994673
     64   0.638956   1.251021
     65   1.324618   0.868870
     66   1.324618   0.868870
     67   1.106844   0.950510
     68   0.579939   1.313133
     69   1.271559   0.886812
     70   0.538434   1.362805
     71   0.970714   1.014973
     72   0.434245   1.517514
     73   1.016710   0.991748
     74   1.016710   0.991748
     75   0.485557   1.435092
     76   0.473655   1.453011
     77   0.716248   1.181594
     78   0.650266   1.240094
     79   0.949042   1.026496
     80   1.157515   0.929473
     81   0.480913   1.442004
     82   1.027305   0.986621
     83   0.693473   1.200840
     84   1.780232   0.749483
     85   0.511429   1.398323
     86   1.854569   0.734308
     87   0.991387   1.004335
     88   0.535316   1.366768
     89   0.516312   1.391694
     90   1.026888   0.986821
     91   0.476798   1.448215
     92   1.267213   0.888332
     93   0.488395   1.430917
     94   0.817965   1.105688
     95   0.764984   1.143336
     96   0.817965   1.105688
     97   0.759390   1.147539
     98   0.596250   1.295048
     99   2.989763   0.578338
    100   1.400194   0.845096
    101   1.400194   0.845096
    102   0.504150   1.408381
    103   0.879100   1.066549
    104   0.391365   1.598487
    105   1.572030   0.797571
    106   0.647826   1.242427
    107   1.019755   0.990266
    108   0.524519   1.380764
    109   0.790889   1.124455
    110   0.790889   1.124455
    111   1.008658   0.995699
    112   0.696013   1.198647
    113   0.446430   1.496660
    114   0.446430   1.496660
    115   0.823841   1.101738
    116   0.481481   1.441154
    117   0.868525   1.073023
    118   0.804932   1.114604
    119   0.724917   1.174508
    120   0.391296   1.598628
    121   0.741181   1.161550
    122   0.706074   1.190076
    123   1.057901   0.972249
    124   0.706566   1.189662
    125   0.706566   1.189662
    126   0.421963   1.539441
    127   1.124461   0.943035
    128   1.768456   0.751974
    129   1.834650   0.738284
    130   0.727226   1.172641
    131   1.729796   0.760331
    132   0.565910   1.329310
    133   1.662044   0.775673
    134   0.894773   1.057167
    135   1.015890   0.992148
    136   0.480040   1.443316
    137   0.812701   1.109263
    138   0.831227   1.096832
    139   0.695625   1.198981
    140   0.524174   1.381218
    141   0.886469   1.062107
    142   0.675136   1.217039
    143   0.725057   1.174394
    144   0.692437   1.201738
    145   0.779715   1.132484
    146   2.030943   0.701700
    147   2.075625   0.694106
    148   1.245151   0.896167
    149   1.093757   0.956180
    150   0.634561   1.255346
    151   0.634561   1.255346
    152   0.652650   1.237827
    153   0.792930   1.123007
    154   0.470591   1.457733
    155   1.300702   0.876821
    156   0.860966   1.077722
    157   0.429847   1.525256
    158   0.542559   1.357615
    159   1.138069   0.937380
    160   0.839879   1.091168
    161   0.839879   1.091168
    162   0.509922   1.400387
    163   0.879100   1.066549

Bonds # ['ID', 'type', 'atom1', 'atom2']

         1         1        80         6
         2         2        26        40
         3         3         4         9
         4         4        61        39
         5         5        50        29
         6         6        62        25
         7         7        34        73
         8         8        52         6
         9         9        38        30
        10        10        38         5
        11        11        54         9
        12        12        47         3
        13        13         9        54
        14        14        64        35
        15        15        51         4
        16        16         4        51
        17        17        20        62
        18        18        22        42
        19        19        40         4
        20        20         7        40
        21        21        32        64
        22        22         9        72
        23        23        72         9
        24        24        61        28
        25        25        22        76
        26        26        59        60
        27        27        71        25
        28        28        33        12
        29        29        10        36
        30        30        36        10
        31        31        43        23
        32        32        14        26
        33        33        21        17
        34        34        60        48
        35        35        16        72
        36        36        76        19
        37        37        26        52
        38        38        72        16
        39        39        58        27
        40        40        71        59
        41        41        34        43
        42        42        29        35
        43        43        24         9
        44        44        33        44
        45        45        11        45
        46        46        29        53
        47        47        35        53
        48        48        30         5
        49        49        78        39
        50        50        50        64
        51        51        50        35
        52        52         8        45
        53        53        31         7
        54        54        19        31
        55        55        16        18
        56        56        18        16
        57        57        54        21
        58        58         5        29
        59        59        16        47
        60        60        10        62
        61        61         1        13
        62        62        52        24
        63        63        63        40
        64        64        60         8
        65        65        47        49
        66        66        49        47
        67        67        66        25
        68        68        30        19
        69        69        56        59
        70        70        13        38
        71        71        11        78
        72        72        13        15
        73        73        58        39
        74        74        39        58
        75        75        23        13
        76        76        17         5
        77        77        43         3
        78        78        17        50
        79        79        49        32
        80        80        31        63
        81        81        29        14
        82        82        42        31
        83        83        55        19
        84        84        67        48
        85        85        12        31
        86        86        54        72
        87        87         7        61
        88        88        22        19
        89        89        23        15
        90        90        66        33
        91        91        10        20
        92        92        64        36
        93        93        24        18
        94        94        58        28
        95        95        35        37
        96        96        28        58
        97        97        51        21
        98        98        55        14
        99        99        71        56
       100       100        47        69
       101       101        69        47
       102       102         1        27
       103       103         6        56
       104       104         6        18
       105       105        59        44
       106       106        17        32
       107       107        15        76
       108       108        24         4
       109       109        72        18
       110       110        18        72
       111       111        53        37
       112       112        11        39
       113       113         8        18
       114       114        18         8
       115       115        55        29
       116       116        20        25
       117       117        14        63
       118       118        57        32
       119       119        42        19
       120       120        19        14
       121       121        40        24
       122       122        11        48
       123       123         8        67
       124       124        16        45
       125       125        45        16
       126       126        20        15
       127       127        11        67
       128       128        80        52
       129       129        54        69
       130       130         5        50
       131       131        56        60
       132       132        12        39
       133       133        78        48
       134       134        12        78
       135       135        30        55
       136       136         8        16
       137       137        73         1
       138       138        63         7
       139       139        22        33
       140       140        34         3
       141       141        53        26
       142       142        32        36
       143       143        58         1
       144       144        43         1
       145       145        33        59
       146       146        57        69
       147       147        44        48
       148       148        60        44
       149       149        57        49
       150       150        51         9
       151       151         9        51
       152       152        39        28
       153       153        33        42
       154       154         7         4
       155       155        66        22
       156       156        25        59
       157       157         9        18
       158       158        27        13
       159       159        80        37
       160       160        11        73
       161       161        73        11
       162       162         3        10
       163       163        56         6
