ITEM: TIMESTEP
0
ITEM: NUMBER OF ATOMS
80
ITEM: BOX BOUNDS pp pp pp
-1.0000000000000000e+01 1.0000000000000000e+01
-1.0000000000000000e+01 1.0000000000000000e+01
-1.0000000000000001e-01 1.0000000000000001e-01
ITEM: ATOMS id type xs ys zs
67 4 0.0693762 0.00628653 0.5
16 1 0.141312 0.0302743 0.5
72 4 0.236273 0.0485073 0.5
27 2 0.533827 0.0253815 0.5
69 4 0.0449255 0.062287 0.5
11 1 0.324573 0.0953919 0.5
77 4 0.501344 0.0916953 0.5
68 4 0.604397 0.105225 0.5
75 4 0.609335 0.0966004 0.5
60 3 0.0576622 0.127981 0.5
41 3 0.363902 0.106595 0.5
21 2 0.783015 0.137935 0.5
74 4 0.179162 0.172039 0.5
78 4 0.268115 0.203937 0.5
58 3 0.324341 0.199433 0.5
18 1 0.00917677 0.233954 0.5
73 4 0.0225048 0.238244 0.5
19 1 0.61589 0.26246 0.5
65 4 0.58721 0.235791 0.5
4 1 0.633202 0.226137 0.5
35 2 0.711384 0.225639 0.5
31 2 0.9708 0.236762 0.5
32 2 0.0700477 0.292459 0.5
1 1 0.298643 0.293873 0.5
64 4 0.399375 0.297124 0.5
55 3 0.784988 0.287015 0.5
9 1 0.826518 0.288606 0.5
44 3 0.829611 0.264189 0.5
10 1 0.987522 0.285361 0.5
54 3 0.954797 0.275013 0.5
49 3 0.0206085 0.366702 0.5
25 2 0.322326 0.328903 0.5
5 1 0.426272 0.357713 0.5
14 1 0.758039 0.358246 0.5
17 1 0.907082 0.329769 0.5
59 3 0.089451 0.403178 0.5
8 1 0.136336 0.393004 0.5
20 1 0.145559 0.416999 0.5
23 2 0.274493 0.398477 0.5
50 3 0.468638 0.397603 0.5
66 4 0.681168 0.393074 0.5
46 3 0.892509 0.390465 0.5
48 3 0.998952 0.386474 0.5
71 4 0.950578 0.372185 0.5
15 1 0.159664 0.47061 0.5
22 2 0.227609 0.422182 0.5
43 3 0.243498 0.465877 0.5
38 2 0.345894 0.445728 0.5
30 2 0.669093 0.440527 0.5
39 2 0.178348 0.497352 0.5
7 1 0.0999308 0.537787 0.5
79 4 0.324244 0.577222 0.5
24 2 0.601746 0.553023 0.5
36 2 0.718246 0.568853 0.5
52 3 0.755672 0.573822 0.5
76 4 0.529459 0.625363 0.5
29 2 0.60193 0.630469 0.5
63 4 0.672135 0.579425 0.5
26 2 0.934348 0.587997 0.5
3 1 0.100593 0.666156 0.5
28 2 0.0626324 0.662396 0.5
6 1 0.302056 0.656949 0.5
53 3 0.665713 0.645692 0.5
70 4 0.743419 0.641189 0.5
33 2 0.371375 0.700968 0.5
34 2 0.518754 0.691991 0.5
80 4 0.996293 0.697084 0.5
45 3 0.158672 0.796725 0.5
2 1 0.603905 0.824559 0.5
37 2 0.656322 0.80631 0.5
57 3 0.702614 0.834264 0.5
13 1 0.721657 0.890888 0.5
61 4 0.512817 0.907591 0.5
40 2 0.165287 0.984396 0.5
56 3 0.172901 0.950902 0.5
42 3 0.350744 0.962788 0.5
62 4 0.398226 0.991795 0.5
12 1 0.663234 0.9802 0.5
47 3 0.83459 0.951039 0.5
51 3 0.983994 0.988741 0.5
ITEM: TIMESTEP
10
ITEM: NUMBER OF ATOMS
80
ITEM: BOX BOUNDS pp pp pp
-9.2694039511449802e+00 9.2694039511449802e+00
-9.2694039511449802e+00 9.2694039511449802e+00
-1.0000000000000001e-01 1.0000000000000001e-01
ITEM: ATOMS id type xs ys zs
67 4 0.0693762 0.00628653 0.5
16 1 0.141275 0.0303441 0.5
72 4 0.236273 0.0485073 0.5
27 2 0.533827 0.0253815 0.5
69 4 0.0449255 0.062287 0.5
11 1 0.324486 0.0953671 0.5
77 4 0.501344 0.0916953 0.5
68 4 0.604351 0.105305 0.5
75 4 0.609381 0.0965201 0.5
60 3 0.0576622 0.127981 0.5
41 3 0.363989 0.10662 0.5
21 2 0.783015 0.137935 0.5
74 4 0.179162 0.172039 0.5
78 4 0.268115 0.203937 0.5
58 3 0.324341 0.199433 0.5
18 1 0.00918624 0.233811 0.5
73 4 0.0226582 0.238293 0.5
19 1 0.615877 0.262641 0.5
65 4 0.587119 0.235752 0.5
4 1 0.633306 0.225995 0.5
35 2 0.711384 0.225639 0.5
31 2 0.970671 0.23664 0.5
32 2 0.0700477 0.292459 0.5
1 1 0.29858 0.293779 0.5
64 4 0.399375 0.297124 0.5
55 3 0.784898 0.287013 0.5
9 1 0.826587 0.288757 0.5
44 3 0.829631 0.26404 0.5
10 1 0.987621 0.285556 0.5
54 3 0.954665 0.275034 0.5
49 3 0.0206656 0.366649 0.5
25 2 0.322389 0.328996 0.5
5 1 0.426252 0.357694 0.5
14 1 0.758039 0.358246 0.5
17 1 0.907085 0.329756 0.5
59 3 0.0893592 0.403185 0.5
8 1 0.136327 0.392802 0.5
20 1 0.145636 0.417103 0.5
23 2 0.274536 0.398455 0.5
50 3 0.468658 0.397622 0.5
66 4 0.68117 0.393068 0.5
46 3 0.892506 0.390477 0.5
48 3 0.998895 0.386526 0.5
71 4 0.950578 0.372185 0.5
15 1 0.159603 0.47058 0.5
22 2 0.227551 0.422164 0.5
43 3 0.243512 0.465917 0.5
38 2 0.345894 0.445728 0.5
30 2 0.669091 0.440533 0.5
39 2 0.178433 0.497474 0.5
7 1 0.0999308 0.537787 0.5
79 4 0.324244 0.577222 0.5
24 2 0.601746 0.553023 0.5
36 2 0.718185 0.56884 0.5
52 3 0.755745 0.573831 0.5
76 4 0.529459 0.625363 0.5
29 2 0.60193 0.630469 0.5
63 4 0.672123 0.579427 0.5
26 2 0.934348 0.587997 0.5
3 1 0.10072 0.666168 0.5
28 2 0.062505 0.662384 0.5
6 1 0.302056 0.656949 0.5
53 3 0.665713 0.645692 0.5
70 4 0.743419 0.641189 0.5
33 2 0.371375 0.700968 0.5
34 2 0.518754 0.691991 0.5
80 4 0.996293 0.697084 0.5
45 3 0.158672 0.796725 0.5
2 1 0.603843 0.82458 0.5
37 2 0.656371 0.806281 0.5
57 3 0.70262 0.834251 0.5
13 1 0.721664 0.890909 0.5
61 4 0.512817 0.907591 0.5
40 2 0.165305 0.984411 0.5
56 3 0.17292 0.950818 0.5
42 3 0.350744 0.962788 0.5
62 4 0.398226 0.991795 0.5
12 1 0.663234 0.9802 0.5
47 3 0.83459 0.951039 0.5
51 3 0.983994 0.988741 0.5
ITEM: TIMESTEP
20
ITEM: NUMBER OF ATOMS
80
ITEM: BOX BOUNDS pp pp pp
-8.3520570071147908e+00 8.3520570071147908e+00
-8.3520570071147908e+00 8.3520570071147908e+00
-1.0000000000000001e-01 1.0000000000000001e-01
ITEM: ATOMS id type xs ys zs
67 4 0.0693762 0.00628653 0.5
16 1 0.141136 0.0306105 0.5
72 4 0.236273 0.0485073 0.5
27 2 0.533827 0.0253815 0.5
69 4 0.0449255 0.062287 0.5
11 1 0.324163 0.0952752 0.5
77 4 0.501344 0.0916953 0.5
68 4 0.604189 0.105589 0.5
75 4 0.609544 0.0962361 0.5
60 3 0.0576622 0.127981 0.5
41 3 0.364312 0.106712 0.5
21 2 0.783015 0.137935 0.5
74 4 0.179162 0.172039 0.5
78 4 0.268115 0.203937 0.5
58 3 0.324341 0.199433 0.5
18 1 0.00925558 0.233269 0.5
73 4 0.0232282 0.238451 0.5
19 1 0.615837 0.263302 0.5
65 4 0.586768 0.235608 0.5
4 1 0.633684 0.225478 0.5
35 2 0.711396 0.225639 0.5
31 2 0.970184 0.236173 0.5
32 2 0.0700494 0.292459 0.5
1 1 0.298347 0.293436 0.5
64 4 0.399375 0.297123 0.5
55 3 0.784543 0.287013 0.5
9 1 0.826847 0.289299 0.5
44 3 0.829724 0.263497 0.5
10 1 0.987966 0.286307 0.5
54 3 0.954168 0.275131 0.5
49 3 0.0208754 0.366458 0.5
25 2 0.322621 0.32934 0.5
5 1 0.42616 0.357608 0.5
14 1 0.758039 0.358246 0.5
17 1 0.907091 0.329678 0.5
59 3 0.0889894 0.403208 0.5
8 1 0.136304 0.392042 0.5
20 1 0.145925 0.417456 0.5
23 2 0.27471 0.398367 0.5
50 3 0.46875 0.397709 0.5
66 4 0.681181 0.393023 0.5
46 3 0.892488 0.390549 0.5
48 3 0.998685 0.386718 0.5
71 4 0.950589 0.372195 0.5
15 1 0.159401 0.470525 0.5
22 2 0.227321 0.42209 0.5
43 3 0.243571 0.466078 0.5
38 2 0.345894 0.445728 0.5
30 2 0.66908 0.440577 0.5
39 2 0.178739 0.49791 0.5
7 1 0.0999287 0.537789 0.5
79 4 0.324244 0.577222 0.5
24 2 0.601746 0.553023 0.5
36 2 0.717974 0.568789 0.5
52 3 0.756021 0.573868 0.5
76 4 0.529459 0.625363 0.5
29 2 0.601929 0.630469 0.5
63 4 0.672058 0.579442 0.5
26 2 0.934348 0.587997 0.5
3 1 0.101183 0.666214 0.5
28 2 0.0620423 0.662338 0.5
6 1 0.302054 0.656948 0.5
53 3 0.665714 0.645692 0.5
70 4 0.743419 0.641189 0.5
33 2 0.371377 0.700969 0.5
34 2 0.518754 0.691991 0.5
80 4 0.996293 0.697084 0.5
45 3 0.158672 0.796725 0.5
2 1 0.603603 0.824664 0.5
37 2 0.656542 0.806155 0.5
57 3 0.702655 0.834191 0.5
13 1 0.721698 0.89101 0.5
61 4 0.512817 0.907591 0.5
40 2 0.165373 0.984456 0.5
56 3 0.172991 0.950506 0.5
42 3 0.350744 0.962788 0.5
62 4 0.398226 0.991795 0.5
12 1 0.663234 0.9802 0.5
47 3 0.83459 0.951039 0.5
51 3 0.983994 0.988741 0.5
ITEM: TIMESTEP
30
ITEM: NUMBER OF ATOMS
80
ITEM: BOX BOUNDS pp pp pp
-7.6757786987405368e+00 7.6757786987405368e+00
-7.6757786987405368e+00 7.6757786987405368e+00
-1.0000000000000001e-01 1.0000000000000001e-01
ITEM: ATOMS id type xs ys zs
67 4 0.0693762 0.00628653 0.5
16 1 0.140848 0.0311601 0.5
72 4 0.236273 0.0485073 0.5
27 2 0.533827 0.0253815 0.5
69 4 0.0449255 0.062287 0.5
11 1 0.323515 0.0950907 0.5
77 4 0.501344 0.0916953 0.5
68 4 0.603877 0.106133 0.5
75 4 0.609855 0.0956925 0.5
60 3 0.0576622 0.127981 0.5
41 3 0.36496 0.106896 0.5
21 2 0.783015 0.137935 0.5
74 4 0.179162 0.172039 0.5
78 4 0.268115 0.203937 0.5
58 3 0.324341 0.199433 0.5
18 1 0.00946085 0.232131 0.5
73 4 0.0243824 0.238728 0.5
19 1 0.615772 0.264609 0.5
65 4 0.58604 0.235321 0.5
4 1 0.634397 0.224458 0.5
35 2 0.711477 0.225639 0.5
31 2 0.969187 0.235215 0.5
32 2 0.0700976 0.292474 0.5
1 1 0.297886 0.292754 0.5
64 4 0.399366 0.297103 0.5
55 3 0.7838 0.287013 0.5
9 1 0.827345 0.290326 0.5
44 3 0.829936 0.262428 0.5
10 1 0.98861 0.287853 0.5
54 3 0.953174 0.275338 0.5
49 3 0.0212922 0.366077 0.5
25 2 0.323083 0.330022 0.5
5 1 0.425954 0.357426 0.5
14 1 0.758029 0.358266 0.5
17 1 0.907068 0.3295 0.5
59 3 0.0881947 0.403251 0.5
8 1 0.136277 0.3905 0.5
20 1 0.146474 0.418088 0.5
23 2 0.275084 0.398179 0.5
50 3 0.468965 0.397911 0.5
66 4 0.681214 0.392892 0.5
46 3 0.892441 0.390747 0.5
48 3 0.998276 0.387101 0.5
71 4 0.950635 0.372246 0.5
15 1 0.15904 0.470511 0.5
22 2 0.226883 0.421917 0.5
43 3 0.2437 0.466426 0.5
38 2 0.345894 0.445728 0.5
30 2 0.669046 0.440709 0.5
39 2 0.179343 0.498767 0.5
7 1 0.0998928 0.537827 0.5
79 4 0.324244 0.577222 0.5
24 2 0.601746 0.553014 0.5
36 2 0.717588 0.568675 0.5
52 3 0.756578 0.573942 0.5
76 4 0.529459 0.625363 0.5
29 2 0.601903 0.630473 0.5
63 4 0.671888 0.579482 0.5
26 2 0.934348 0.587997 0.5
3 1 0.102093 0.666304 0.5
28 2 0.0611327 0.662248 0.5
6 1 0.302023 0.656928 0.5
53 3 0.66574 0.645698 0.5
70 4 0.743419 0.641189 0.5
33 2 0.371408 0.700989 0.5
34 2 0.518754 0.691991 0.5
80 4 0.996293 0.697084 0.5
45 3 0.158672 0.796725 0.5
2 1 0.603097 0.82484 0.5
37 2 0.65687 0.805871 0.5
57 3 0.702749 0.83405 0.5
13 1 0.721782 0.891259 0.5
61 4 0.512817 0.907591 0.5
40 2 0.16552 0.98453 0.5
56 3 0.173132 0.949882 0.5
42 3 0.350744 0.962788 0.5
62 4 0.398226 0.991795 0.5
12 1 0.663234 0.9802 0.5
47 3 0.83459 0.951039 0.5
51 3 0.983994 0.988741 0.5
ITEM: TIMESTEP
40
ITEM: NUMBER OF ATOMS
80
ITEM: BOX BOUNDS pp pp pp
-7.1994928859597040e+00 7.1994928859597040e+00
-7.1994928859597040e+00 7.1994928859597040e+00
-1.0000000000000001e-01 1.0000000000000001e-01
ITEM: ATOMS id type xs ys zs
67 4 0.0693724 0.00628517 0.5
16 1 0.140374 0.0320708 0.5
72 4 0.236273 0.0485073 0.5
27 2 0.533827 0.0253815 0.5
69 4 0.0449255 0.062287 0.5
11 1 0.322469 0.0947928 0.5
77 4 0.501344 0.0916953 0.5
68 4 0.603393 0.106979 0.5
75 4 0.610339 0.0948464 0.5
60 3 0.0576622 0.127981 0.5
41 3 0.366006 0.107194 0.5
21 2 0.783015 0.137935 0.5
74 4 0.179162 0.172039 0.5
78 4 0.268113 0.203937 0.5
58 3 0.324343 0.199433 0.5
18 1 0.00984984 0.230191 0.5
73 4 0.0262486 0.239147 0.5
19 1 0.615684 0.266699 0.5
65 4 0.584839 0.234856 0.5
4 1 0.635464 0.222831 0.5
35 2 0.711698 0.225641 0.5
31 2 0.96755 0.233648 0.5
32 2 0.0702917 0.292541 0.5
1 1 0.297147 0.29166 0.5
64 4 0.39933 0.297021 0.5
55 3 0.782575 0.286974 0.5
9 1 0.828122 0.291873 0.5
44 3 0.830304 0.260726 0.5
10 1 0.989591 0.290362 0.5
54 3 0.951591 0.275664 0.5
49 3 0.0219647 0.365476 0.5
25 2 0.32383 0.331105 0.5
5 1 0.425604 0.357145 0.5
14 1 0.757959 0.358386 0.5
17 1 0.90696 0.329233 0.5
59 3 0.0868499 0.403323 0.5
8 1 0.136258 0.387976 0.5
20 1 0.14727 0.41897 0.5
23 2 0.275712 0.397864 0.5
50 3 0.469351 0.398275 0.5
66 4 0.681282 0.392628 0.5
46 3 0.892349 0.39113 0.5
48 3 0.997655 0.387726 0.5
71 4 0.950724 0.372364 0.5
15 1 0.158491 0.470613 0.5
22 2 0.226269 0.421588 0.5
43 3 0.243943 0.467011 0.5
38 2 0.345899 0.445731 0.5
30 2 0.668979 0.440973 0.5
39 2 0.180339 0.500159 0.5
7 1 0.0997434 0.537969 0.5
79 4 0.324244 0.577222 0.5
24 2 0.601746 0.55295 0.5
36 2 0.717009 0.568478 0.5
52 3 0.757484 0.574063 0.5
76 4 0.52946 0.625362 0.5
29 2 0.601809 0.630513 0.5
63 4 0.67156 0.579558 0.5
26 2 0.934348 0.587997 0.5
3 1 0.103539 0.666448 0.5
28 2 0.0596861 0.662105 0.5
6 1 0.301912 0.656858 0.5
53 3 0.665834 0.645721 0.5
70 4 0.743419 0.641189 0.5
33 2 0.371519 0.70106 0.5
34 2 0.518754 0.691992 0.5
80 4 0.996293 0.697084 0.5
45 3 0.158672 0.796725 0.5
2 1 0.602251 0.825137 0.5
37 2 0.657379 0.805369 0.5
57 3 0.702933 0.833797 0.5
13 1 0.721937 0.891715 0.5
61 4 0.512817 0.907591 0.5
40 2 0.165773 0.984629 0.5
56 3 0.173358 0.948875 0.5
42 3 0.350741 0.962786 0.5
62 4 0.39823 0.991797 0.5
12 1 0.663233 0.980202 0.5
47 3 0.83459 0.951039 0.5
51 3 0.983994 0.988741 0.5
ITEM: TIMESTEP
50
ITEM: NUMBER OF ATOMS
80
ITEM: BOX BOUNDS pp pp pp
-6.8849253498005050e+00 6.8849253498005050e+00
-6.8849253498005050e+00 6.8849253498005050e+00
-1.0000000000000001e-01 1.0000000000000001e-01
ITEM: ATOMS id type xs ys zs
67 4 0.0693398 0.00627327 0.5
16 1 0.139713 0.0333978 0.5
72 4 0.236273 0.0485073 0.5
27 2 0.533827 0.0253815 0.5
69 4 0.0449255 0.062287 0.5
11 1 0.320993 0.0943722 0.5
77 4 0.501344 0.0916953 0.5
68 4 0.60273 0.108138 0.5
75 4 0.611003 0.0936878 0.5
60 3 0.0576622 0.127981 0.5
41 3 0.367482 0.107615 0.5
21 2 0.783015 0.137935 0.5
74 4 0.179162 0.172039 0.5
78 4 0.268093 0.203939 0.5
58 3 0.324363 0.199431 0.5
18 1 0.010447 0.227319 0.5
73 4 0.028853 0.239729 0.5
19 1 0.615578 0.269622 0.5
65 4 0.583129 0.234202 0.5
4 1 0.636858 0.220552 0.5
35 2 0.712119 0.225651 0.5
31 2 0.96522 0.231429 0.5
32 2 0.0707232 0.292696 0.5
1 1 0.296109 0.290125 0.5
64 4 0.399248 0.296835 0.5
55 3 0.780834 0.286848 0.5
9 1 0.829195 0.293911 0.5
44 3 0.830837 0.258356 0.5
10 1 0.990901 0.293855 0.5
54 3 0.94941 0.276092 0.5
49 3 0.0229313 0.364684 0.5
25 2 0.32491 0.332581 0.5
5 1 0.425098 0.356776 0.5
14 1 0.757773 0.358688 0.5
17 1 0.906722 0.328904 0.5
59 3 0.0848946 0.403435 0.5
8 1 0.136236 0.384365 0.5
20 1 0.148259 0.420033 0.5
23 2 0.276588 0.397404 0.5
50 3 0.46994 0.398828 0.5
66 4 0.681391 0.392198 0.5
46 3 0.892203 0.391744 0.5
48 3 0.996834 0.388621 0.5
71 4 0.950851 0.372566 0.5
15 1 0.157712 0.470898 0.5
22 2 0.225559 0.421068 0.5
43 3 0.244367 0.467866 0.5
38 2 0.345935 0.445756 0.5
30 2 0.66887 0.441403 0.5
39 2 0.181781 0.502158 0.5
7 1 0.0993999 0.53828 0.5
79 4 0.324245 0.577222 0.5
24 2 0.601746 0.55279 0.5
36 2 0.716245 0.568181 0.5
52 3 0.758771 0.574237 0.5
76 4 0.529462 0.625348 0.5
29 2 0.601606 0.630626 0.5
63 4 0.671038 0.579682 0.5
26 2 0.934348 0.587997 0.5
3 1 0.105556 0.666647 0.5
28 2 0.0576699 0.661905 0.5
6 1 0.301678 0.656709 0.5
53 3 0.666037 0.645769 0.5
70 4 0.743419 0.641189 0.5
33 2 0.371753 0.701208 0.5
34 2 0.518751 0.692006 0.5
80 4 0.996293 0.697084 0.5
45 3 0.158672 0.796725 0.5
2 1 0.601023 0.825569 0.5
37 2 0.658071 0.804608 0.5
57 3 0.703232 0.833416 0.5
13 1 0.722194 0.892393 0.5
61 4 0.512817 0.907591 0.5
40 2 0.166148 0.984746 0.5
56 3 0.173676 0.947442 0.5
42 3 0.350718 0.962771 0.5
62 4 0.398253 0.991811 0.5
12 1 0.663212 0.980234 0.5
47 3 0.83459 0.951039 0.5
51 3 0.983994 0.988741 0.5
ITEM: TIMESTEP
60
ITEM: NUMBER OF ATOMS
80
ITEM: BOX BOUNDS pp pp pp
-6.6742419300440465e+00 6.6742419300440465e+00
-6.6742419300440465e+00 6.6742419300440465e+00
-1.0000000000000001e-01 1.0000000000000001e-01
ITEM: ATOMS id type xs ys zs
67 4 0.0692517 0.00623991 0.5
16 1 0.138879 0.035173 0.5
72 4 0.236273 0.0485073 0.5
27 2 0.533827 0.0253812 0.5
69 4 0.0449255 0.062287 0.5
11 1 0.319087 0.0938291 0.5
77 4 0.501344 0.0916956 0.5
68 4 0.601894 0.109598 0.5
75 4 0.611839 0.0922275 0.5
60 3 0.0576622 0.127981 0.5
41 3 0.369389 0.108158 0.5
21 2 0.783015 0.137935 0.5
74 4 0.179162 0.172039 0.5
78 4 0.268034 0.203943 0.5
58 3 0.324423 0.199423 0.5
18 1 0.0112585 0.223465 0.5
73 4 0.03213 0.240477 0.5
19 1 0.615456 0.273369 0.5
65 4 0.580923 0.23336 0.5
4 1 0.638521 0.217622 0.5
35 2 0.712785 0.225675 0.5
31 2 0.962209 0.228578 0.5
32 2 0.0714688 0.292972 0.5
1 1 0.294774 0.288157 0.5
64 4 0.39911 0.296517 0.5
55 3 0.778585 0.286591 0.5
9 1 0.830554 0.296388 0.5
44 3 0.831523 0.25533 0.5
10 1 0.992508 0.298248 0.5
54 3 0.946679 0.276583 0.5
49 3 0.0242137 0.363757 0.5
25 2 0.326329 0.334409 0.5
5 1 0.424449 0.356342 0.5
14 1 0.757431 0.359234 0.5
17 1 0.906325 0.328539 0.5
59 3 0.082328 0.403605 0.5
8 1 0.136195 0.379636 0.5
20 1 0.149377 0.421199 0.5
23 2 0.277682 0.396794 0.5
50 3 0.470745 0.399585 0.5
66 4 0.681543 0.391586 0.5
46 3 0.891996 0.392613 0.5
48 3 0.995842 0.389801 0.5
71 4 0.951011 0.37286 0.5
15 1 0.156667 0.471415 0.5
22 2 0.224841 0.420326 0.5
43 3 0.245024 0.469002 0.5
38 2 0.34603 0.445822 0.5
30 2 0.668714 0.442017 0.5
39 2 0.183683 0.504804 0.5
7 1 0.0988051 0.538803 0.5
79 4 0.324247 0.577215 0.5
24 2 0.601746 0.552499 0.5
36 2 0.715315 0.567774 0.5
52 3 0.760443 0.574464 0.5
76 4 0.529466 0.625297 0.5
29 2 0.601273 0.630836 0.5
63 4 0.670295 0.579861 0.5
26 2 0.934348 0.587997 0.5
3 1 0.108135 0.666903 0.5
28 2 0.0551036 0.661642 0.5
6 1 0.301291 0.656472 0.5
53 3 0.666375 0.645849 0.5
70 4 0.743419 0.641189 0.5
33 2 0.372138 0.701453 0.5
34 2 0.518743 0.692057 0.5
80 4 0.99628 0.697091 0.5
45 3 0.158672 0.796725 0.5
2 1 0.599403 0.826144 0.5
37 2 0.658935 0.803564 0.5
57 3 0.703663 0.8329 0.5
13 1 0.722582 0.893284 0.5
61 4 0.512817 0.907591 0.5
40 2 0.166659 0.984878 0.5
56 3 0.174087 0.945569 0.5
42 3 0.350656 0.962734 0.5
62 4 0.398315 0.991849 0.5
12 1 0.663149 0.980328 0.5
47 3 0.83459 0.951039 0.5
51 3 0.983994 0.988741 0.5
ITEM: TIMESTEP
70
ITEM: NUMBER OF ATOMS
80
ITEM: BOX BOUNDS pp pp pp
-6.5477301107144070e+00 6.5477301107144070e+00
-6.5477301107144070e+00 6.5477301107144070e+00
-1.0000000000000001e-01 1.0000000000000001e-01
ITEM: ATOMS id type xs ys zs
67 4 0.06909 0.00617602 0.5
16 1 0.137895 0.0373897 0.5
72 4 0.236273 0.0485073 0.5
27 2 0.53383 0.0253743 0.5
69 4 0.0449255 0.062287 0.5
11 1 0.316777 0.0931714 0.5
77 4 0.501341 0.0917025 0.5
68 4 0.600901 0.111331 0.5
75 4 0.612831 0.0904942 0.5
60 3 0.0576622 0.127981 0.5
41 3 0.371698 0.108816 0.5
21 2 0.783015 0.137935 0.5
74 4 0.179162 0.172039 0.5
78 4 0.267923 0.203952 0.5
58 3 0.324543 0.199386 0.5
18 1 0.0122744 0.218669 0.5
73 4 0.0359509 0.241386 0.5
19 1 0.61532 0.277873 0.5
65 4 0.578272 0.232347 0.5
4 1 0.640372 0.214081 0.5
35 2 0.713721 0.225727 0.5
31 2 0.958588 0.225171 0.5
32 2 0.0725715 0.293373 0.5
1 1 0.293153 0.285807 0.5
64 4 0.398906 0.296046 0.5
55 3 0.775875 0.286165 0.5
9 1 0.832163 0.299237 0.5
44 3 0.832335 0.251705 0.5
10 1 0.994358 0.303345 0.5
54 3 0.943495 0.277084 0.5
49 3 0.025796 0.362754 0.5
25 2 0.328054 0.336524 0.5
5 1 0.423704 0.355871 0.5
14 1 0.756929 0.36005 0.5
17 1 0.90576 0.328168 0.5
59 3 0.0792181 0.40386 0.5
8 1 0.136133 0.373843 0.5
20 1 0.150555 0.42239 0.5
23 2 0.278952 0.396042 0.5
50 3 0.471765 0.400544 0.5
66 4 0.681719 0.390797 0.5
46 3 0.89172 0.393746 0.5
48 3 0.994715 0.391294 0.5
71 4 0.951195 0.373249 0.5
15 1 0.155336 0.472192 0.5
22 2 0.224185 0.419354 0.5
43 3 0.245939 0.470401 0.5
38 2 0.346206 0.445945 0.5
30 2 0.66851 0.442817 0.5
39 2 0.186031 0.508092 0.5
7 1 0.0979267 0.539563 0.5
79 4 0.324256 0.577184 0.5
24 2 0.601739 0.552058 0.5
36 2 0.714247 0.567253 0.5
52 3 0.762484 0.574745 0.5
76 4 0.529458 0.625191 0.5
29 2 0.600809 0.631162 0.5
63 4 0.669331 0.580104 0.5
26 2 0.934348 0.587997 0.5
3 1 0.111233 0.66721 0.5
28 2 0.0520555 0.661305 0.5
6 1 0.300731 0.656153 0.5
53 3 0.666862 0.645964 0.5
70 4 0.743419 0.641189 0.5
33 2 0.372689 0.701802 0.5
34 2 0.518726 0.69216 0.5
80 4 0.99623 0.697122 0.5
45 3 0.158672 0.796725 0.5
2 1 0.597404 0.826861 0.5
37 2 0.659947 0.802228 0.5
57 3 0.704237 0.832254 0.5
13 1 0.723119 0.894366 0.5
61 4 0.512817 0.907591 0.5
40 2 0.167309 0.98502 0.5
56 3 0.174583 0.943273 0.5
42 3 0.350545 0.962666 0.5
62 4 0.398426 0.991917 0.5
12 1 0.663025 0.980511 0.5
47 3 0.83459 0.951039 0.5
51 3 0.983994 0.988741 0.5
ITEM: TIMESTEP
80
ITEM: NUMBER OF ATOMS
80
ITEM: BOX BOUNDS pp pp pp
-6.4946683680698483e+00 6.4946683680698483e+00
-6.4946683680698483e+00 6.4946683680698483e+00
-1.0000000000000001e-01 1.0000000000000001e-01
ITEM: ATOMS id type xs ys zs
67 4 0.0688469 0.00607539 0.5
16 1 0.136789 0.0400093 0.5
72 4 0.236273 0.0485073 0.5
27 2 0.533841 0.0253521 0.5
69 4 0.0449255 0.062287 0.5
11 1 0.314123 0.0924153 0.5
77 4 0.50133 0.0917247 0.5
68 4 0.59978 0.11329 0.5
75 4 0.613953 0.0885356 0.5
60 3 0.0576631 0.127979 0.5
41 3 0.374352 0.109572 0.5
21 2 0.783015 0.137935 0.5
74 4 0.179162 0.172039 0.5
78 4 0.267749 0.20395 0.5
58 3 0.32474 0.199296 0.5
18 1 0.0134667 0.213072 0.5
73 4 0.0401556 0.242435 0.5
19 1 0.615172 0.283003 0.5
65 4 0.575267 0.231194 0.5
4 1 0.642315 0.21001 0.5
35 2 0.714926 0.225813 0.5
31 2 0.95447 0.221336 0.5
32 2 0.0740182 0.29384 0.5
1 1 0.291281 0.283173 0.5
64 4 0.398635 0.295414 0.5
55 3 0.772795 0.285552 0.5
9 1 0.833953 0.302369 0.5
44 3 0.833232 0.247583 0.5
10 1 0.996385 0.308855 0.5
54 3 0.939998 0.27753 0.5
49 3 0.0276365 0.361744 0.5
25 2 0.330029 0.338843 0.5
5 1 0.422919 0.355393 0.5
14 1 0.756279 0.361137 0.5
17 1 0.905039 0.327817 0.5
59 3 0.0756855 0.404229 0.5
8 1 0.136077 0.36716 0.5
20 1 0.151728 0.423533 0.5
23 2 0.280345 0.395174 0.5
50 3 0.472985 0.401688 0.5
66 4 0.681897 0.389851 0.5
46 3 0.891377 0.395134 0.5
48 3 0.993496 0.393113 0.5
71 4 0.951381 0.373747 0.5
15 1 0.153719 0.473226 0.5
22 2 0.223636 0.418165 0.5
43 3 0.247107 0.472022 0.5
38 2 0.346472 0.446136 0.5
30 2 0.668262 0.443792 0.5
39 2 0.188782 0.511959 0.5
7 1 0.0967615 0.540561 0.5
79 4 0.324276 0.577116 0.5
24 2 0.601714 0.551456 0.5
36 2 0.713079 0.56662 0.5
52 3 0.764848 0.575076 0.5
76 4 0.529427 0.625022 0.5
29 2 0.600227 0.631609 0.5
63 4 0.668162 0.580418 0.5
26 2 0.934348 0.587997 0.5
3 1 0.114771 0.66756 0.5
28 2 0.0486274 0.660886 0.5
6 1 0.299996 0.655767 0.5
53 3 0.667499 0.646112 0.5
70 4 0.743419 0.641189 0.5
33 2 0.373404 0.702256 0.5
34 2 0.5187 0.692325 0.5
80 4 0.99612 0.69719 0.5
45 3 0.158672 0.796725 0.5
2 1 0.59507 0.827708 0.5
37 2 0.661071 0.800612 0.5
57 3 0.704954 0.831497 0.5
13 1 0.723807 0.895608 0.5
61 4 0.512817 0.907591 0.5
40 2 0.168095 0.985171 0.5
56 3 0.175146 0.940604 0.5
42 3 0.350379 0.962564 0.5
62 4 0.398592 0.992019 0.5
12 1 0.662831 0.980795 0.5
47 3 0.83459 0.951039 0.5
51 3 0.983994 0.988741 0.5
ITEM: TIMESTEP
90
ITEM: NUMBER OF ATOMS
80
ITEM: BOX BOUNDS pp pp pp
-6.5008448491758717e+00 6.5008448491758717e+00
-6.5008448491758717e+00 6.5008448491758717e+00
-1.0000000000000001e-01 1.0000000000000001e-01
ITEM: ATOMS id type xs ys zs
67 4 0.0685252 0.00593564 0.5
16 1 0.135586 0.0429747 0.5
72 4 0.236272 0.0485067 0.5
27 2 0.533861 0.0253111 0.5
69 4 0.0449255 0.062287 0.5
11 1 0.311204 0.0915841 0.5
77 4 0.50131 0.0917658 0.5
68 4 0.598564 0.115413 0.5
75 4 0.615168 0.0864123 0.5
60 3 0.0576775 0.127951 0.5
41 3 0.377272 0.110403 0.5
21 2 0.783015 0.137935 0.5
74 4 0.179162 0.172039 0.5
78 4 0.267506 0.203915 0.5
58 3 0.325019 0.199139 0.5
18 1 0.0147835 0.206921 0.5
73 4 0.0445915 0.2436 0.5
19 1 0.61501 0.288585 0.5
65 4 0.572024 0.229945 0.5
4 1 0.644248 0.205529 0.5
35 2 0.716363 0.225927 0.5
31 2 0.949978 0.21723 0.5
32 2 0.0757507 0.294298 0.5
1 1 0.289212 0.280374 0.5
64 4 0.398302 0.294626 0.5
55 3 0.769479 0.284763 0.5
9 1 0.835835 0.305683 0.5
44 3 0.834163 0.243102 0.5
10 1 0.998504 0.314448 0.5
54 3 0.936349 0.277857 0.5
49 3 0.0296901 0.36079 0.5
25 2 0.332186 0.341275 0.5
5 1 0.422145 0.354936 0.5
14 1 0.755506 0.362468 0.5
17 1 0.904199 0.327511 0.5
59 3 0.0718794 0.404726 0.5
8 1 0.136063 0.35984 0.5
20 1 0.152839 0.424566 0.5
23 2 0.281805 0.39423 0.5
50 3 0.474374 0.402989 0.5
66 4 0.682055 0.388778 0.5
46 3 0.890979 0.396747 0.5
48 3 0.992228 0.39525 0.5
71 4 0.951536 0.374355 0.5
15 1 0.151843 0.474487 0.5
22 2 0.223207 0.416797 0.5
43 3 0.248499 0.473801 0.5
38 2 0.34683 0.446398 0.5
30 2 0.667976 0.444916 0.5
39 2 0.191865 0.516297 0.5
7 1 0.0953338 0.54178 0.5
79 4 0.324308 0.577007 0.5
24 2 0.601663 0.550702 0.5
36 2 0.711856 0.565882 0.5
52 3 0.767474 0.575448 0.5
76 4 0.529365 0.624789 0.5
29 2 0.599547 0.63217 0.5
63 4 0.666816 0.580808 0.5
26 2 0.934348 0.587997 0.5
3 1 0.118641 0.667945 0.5
28 2 0.0449413 0.660381 0.5
6 1 0.2991 0.655328 0.5
53 3 0.668271 0.64629 0.5
70 4 0.743419 0.641189 0.5
33 2 0.374267 0.702804 0.5
34 2 0.518664 0.69255 0.5
80 4 0.995936 0.69731 0.5
45 3 0.158672 0.796725 0.5
2 1 0.592463 0.828666 0.5
37 2 0.662262 0.798741 0.5
57 3 0.705807 0.830653 0.5
13 1 0.724638 0.896976 0.5
61 4 0.512817 0.907591 0.5
40 2 0.169005 0.985328 0.5
56 3 0.175761 0.937621 0.5
42 3 0.350159 0.96243 0.5
62 4 0.398812 0.992153 0.5
12 1 0.662562 0.981184 0.5
47 3 0.83459 0.951039 0.5
51 3 0.983994 0.988741 0.5
ITEM: TIMESTEP
100
ITEM: NUMBER OF ATOMS
80
ITEM: BOX BOUNDS pp pp pp
-6.5433595934471267e+00 6.5433595934471267e+00
-6.5433595934471267e+00 6.5433595934471267e+00
-1.0000000000000001e-01 1.0000000000000001e-01
ITEM: ATOMS id type xs ys zs
67 4 0.0681357 0.00575814 0.5
16 1 0.134311 0.0462199 0.5
72 4 0.23626 0.0484993 0.5
27 2 0.53389 0.0252527 0.5
69 4 0.0449255 0.062287 0.5
11 1 0.308116 0.0907082 0.5
77 4 0.501281 0.0918241 0.5
68 4 0.597289 0.11764 0.5
75 4 0.616443 0.0841854 0.5
60 3 0.0577249 0.127863 0.5
41 3 0.380373 0.111287 0.5
21 2 0.783015 0.137935 0.5
74 4 0.179162 0.172039 0.5
78 4 0.267196 0.203825 0.5
58 3 0.325378 0.198909 0.5
18 1 0.0161837 0.200489 0.5
73 4 0.0491216 0.244849 0.5
19 1 0.614834 0.294434 0.5
65 4 0.568666 0.228647 0.5
4 1 0.646084 0.200764 0.5
35 2 0.717987 0.226062 0.5
31 2 0.945241 0.21301 0.5
32 2 0.0776848 0.294672 0.5
1 1 0.286999 0.27752 0.5
64 4 0.397912 0.293695 0.5
55 3 0.766052 0.283827 0.5
9 1 0.837709 0.309084 0.5
44 3 0.835085 0.238399 0.5
10 1 0.000624039 0.319819 0.5
54 3 0.932678 0.278026 0.5
49 3 0.0319218 0.359936 0.5
25 2 0.334459 0.34374 0.5
5 1 0.421429 0.354518 0.5
14 1 0.754644 0.364002 0.5
17 1 0.903292 0.327272 0.5
59 3 0.0679482 0.405354 0.5
8 1 0.136129 0.35216 0.5
20 1 0.153851 0.425446 0.5
23 2 0.283281 0.39325 0.5
50 3 0.475898 0.404413 0.5
66 4 0.682177 0.387612 0.5
46 3 0.89054 0.398545 0.5
48 3 0.990949 0.397679 0.5
71 4 0.95163 0.375065 0.5
15 1 0.149755 0.475923 0.5
22 2 0.222895 0.415281 0.5
43 3 0.250063 0.47567 0.5
38 2 0.347274 0.446728 0.5
30 2 0.667661 0.446157 0.5
39 2 0.195187 0.520989 0.5
7 1 0.0936868 0.543194 0.5
79 4 0.324353 0.57686 0.5
24 2 0.601584 0.549814 0.5
36 2 0.710618 0.56505 0.5
52 3 0.770293 0.575855 0.5
76 4 0.52927 0.624497 0.5
29 2 0.59879 0.632832 0.5
63 4 0.665322 0.581272 0.5
26 2 0.934348 0.587997 0.5
3 1 0.122735 0.668352 0.5
28 2 0.0411155 0.659791 0.5
6 1 0.298069 0.65485 0.5
53 3 0.66916 0.646491 0.5
70 4 0.743419 0.641189 0.5
33 2 0.375254 0.70343 0.5
34 2 0.51862 0.692829 0.5
80 4 0.995668 0.697494 0.5
45 3 0.158672 0.796725 0.5
2 1 0.589655 0.829712 0.5
37 2 0.663477 0.796651 0.5
57 3 0.706785 0.829751 0.5
13 1 0.725595 0.898435 0.5
61 4 0.512817 0.907591 0.5
40 2 0.170022 0.985491 0.5
56 3 0.176408 0.934391 0.5
42 3 0.349893 0.962268 0.5
62 4 0.399078 0.992315 0.5
12 1 0.66222 0.981671 0.5
47 3 0.83459 0.951039 0.5
51 3 0.983994 0.988741 0.5
ITEM: TIMESTEP
110
ITEM: NUMBER OF ATOMS
80
ITEM: BOX BOUNDS pp pp pp
-6.5940642973303651e+00 6.5940642973303651e+00
-6.5940642973303651e+00 6.5940642973303651e+00
-1.0000000000000001e-01 1.0000000000000001e-01
ITEM: ATOMS id type xs ys zs
67 4 0.0676921 0.00554681 0.5
16 1 0.132975 0.0496901 0.5
72 4 0.23622 0.0484762 0.5
27 2 0.533925 0.0251813 0.5
69 4 0.0449255 0.062287 0.5
11 1 0.304942 0.0898158 0.5
77 4 0.501246 0.0918955 0.5
68 4 0.595983 0.119922 0.5
75 4 0.61775 0.0819035 0.5
60 3 0.0578247 0.127684 0.5
41 3 0.383587 0.112202 0.5
21 2 0.783015 0.137935 0.5
74 4 0.179162 0.172039 0.5
78 4 0.266827 0.203665 0.5
58 3 0.325812 0.198606 0.5
18 1 0.0176381 0.193999 0.5
73 4 0.0536539 0.246144 0.5
19 1 0.61464 0.300388 0.5
65 4 0.565293 0.227339 0.5
4 1 0.647758 0.195828 0.5
35 2 0.719754 0.226205 0.5
31 2 0.940343 0.208753 0.5
32 2 0.0797402 0.294909 0.5
1 1 0.284688 0.274695 0.5
64 4 0.397472 0.292635 0.5
55 3 0.762601 0.282796 0.5
9 1 0.839484 0.312499 0.5
44 3 0.835987 0.233572 0.5
10 1 0.00267399 0.32478 0.5
54 3 0.929067 0.278022 0.5
49 3 0.0343178 0.359206 0.5
25 2 0.336796 0.346179 0.5
5 1 0.420809 0.354153 0.5
14 1 0.753724 0.365697 0.5
17 1 0.902376 0.327117 0.5
59 3 0.064011 0.406108 0.5
8 1 0.136308 0.34435 0.5
20 1 0.154741 0.426154 0.5
23 2 0.284739 0.392265 0.5
50 3 0.477526 0.405933 0.5
66 4 0.682248 0.386382 0.5
46 3 0.890076 0.400498 0.5
48 3 0.989683 0.400375 0.5
71 4 0.95164 0.375865 0.5
15 1 0.147499 0.47749 0.5
22 2 0.222681 0.413639 0.5
43 3 0.251755 0.477574 0.5
38 2 0.347794 0.447123 0.5
30 2 0.667325 0.447485 0.5
39 2 0.198662 0.52594 0.5
7 1 0.0918675 0.544778 0.5
79 4 0.32441 0.576678 0.5
24 2 0.601478 0.548812 0.5
36 2 0.709398 0.564132 0.5
52 3 0.773252 0.576288 0.5
76 4 0.52914 0.624156 0.5
29 2 0.597975 0.633578 0.5
63 4 0.663701 0.58181 0.5
26 2 0.934348 0.587997 0.5
3 1 0.126961 0.668773 0.5
28 2 0.0372433 0.659113 0.5
6 1 0.296927 0.654345 0.5
53 3 0.670144 0.64671 0.5
70 4 0.743419 0.641189 0.5
33 2 0.376338 0.704117 0.5
34 2 0.518568 0.693152 0.5
80 4 0.995314 0.69775 0.5
45 3 0.158672 0.796725 0.5
2 1 0.586702 0.830825 0.5
37 2 0.664679 0.794371 0.5
57 3 0.707879 0.828816 0.5
13 1 0.726661 0.899961 0.5
61 4 0.512817 0.907591 0.5
40 2 0.171133 0.98566 0.5
56 3 0.177077 0.930962 0.5
42 3 0.349588 0.962081 0.5
62 4 0.399383 0.992501 0.5
12 1 0.661811 0.982246 0.5
47 3 0.83459 0.951039 0.5
51 3 0.983994 0.988741 0.5
ITEM: TIMESTEP
120
ITEM: NUMBER OF ATOMS
80
ITEM: BOX BOUNDS pp pp pp
-6.6286188533383070e+00 6.6286188533383070e+00
-6.6286188533383070e+00 6.6286188533383070e+00
-1.0000000000000001e-01 1.0000000000000001e-01
ITEM: ATOMS id type xs ys zs
67 4 0.0672071 0.00530635 0.5
16 1 0.13158 0.0533526 0.5
72 4 0.23614 0.0484288 0.5
27 2 0.533964 0.0251014 0.5
69 4 0.0449255 0.062287 0.5
11 1 0.301742 0.088929 0.5
77 4 0.501207 0.0919754 0.5
68 4 0.594663 0.122228 0.5
75 4 0.61907 0.0795979 0.5
60 3 0.0579979 0.127385 0.5
41 3 0.386867 0.113137 0.5
21 2 0.783015 0.137935 0.5
74 4 0.179162 0.172039 0.5
78 4 0.266403 0.203417 0.5
58 3 0.326315 0.198232 0.5
18 1 0.0191149 0.187546 0.5
73 4 0.0581508 0.24743 0.5
19 1 0.614427 0.306342 0.5
65 4 0.561958 0.226046 0.5
4 1 0.649236 0.190799 0.5
35 2 0.721629 0.226342 0.5
31 2 0.935322 0.204479 0.5
32 2 0.0818616 0.294997 0.5
1 1 0.282306 0.271955 0.5
64 4 0.396986 0.291452 0.5
55 3 0.759171 0.281725 0.5
9 1 0.841067 0.315885 0.5
44 3 0.83687 0.228677 0.5
10 1 0.00458886 0.329299 0.5
54 3 0.925577 0.277829 0.5
49 3 0.0368892 0.358606 0.5
25 2 0.339162 0.348555 0.5
5 1 0.420313 0.353846 0.5
14 1 0.752771 0.367522 0.5
17 1 0.901509 0.327062 0.5
59 3 0.0601525 0.406978 0.5
8 1 0.136626 0.336535 0.5
20 1 0.155501 0.426682 0.5