ITEM: TIMESTEP
500
ITEM: NUMBER OF ATOMS
42
ITEM: BOX BOUNDS pp pp pp
-4.8127677087100968e+00 4.8127677087100968e+00
-4.8135895854956878e+00 4.8135895854956878e+00
-1.0000000000000001e-01 1.0000000000000001e-01
ITEM: ATOMS id type xs ys zs
66 1 0.168388 0.0637798 0.499825
68 1 0.188592 0.148196 0.502011
33 1 0.370427 0.0363638 0.500617
26 1 0.498869 0.012856 0.501898
74 1 0.589361 0.00903464 0.500241
27 1 0.583239 0.109406 0.49931
32 1 0.798198 0.0874429 0.50043
80 1 0.910092 0.0806202 0.498865
73 1 0.950852 0.0336872 0.500485
10 1 0.00354709 0.136661 0.498378
22 1 0.113061 0.200739 0.499792
28 1 0.265217 0.0920058 0.500724
76 1 0.210981 0.208944 0.499526
63 1 0.364525 0.136661 0.498628
24 1 0.458117 0.134726 0.499047
50 1 0.749516 0.232946 0.501591
18 1 0.869271 0.219146 0.500403
55 1 0.193187 0.279583 0.502333
37 1 0.306377 0.211572 0.499528
30 1 0.418805 0.268056 0.499369
40 1 0.527115 0.239083 0.498991
31 1 0.633618 0.211023 0.501745
35 1 0.692511 0.32207 0.500786
4 1 0.276335 0.3562 0.500395
13 1 0.420406 0.413018 0.50061
8 1 0.562353 0.367477 0.498228
46 1 0.649011 0.461805 0.501029
34 1 0.803003 0.348599 0.499831
20 1 0.537488 0.513136 0.501279
45 1 0.667839 0.544631 0.498929
1 1 0.775226 0.488953 0.500589
3 1 0.341516 0.763768 0.499974
5 1 0.502424 0.779233 0.500415
62 1 0.417643 0.83685 0.500721
2 1 0.0797986 0.991857 0.500986
21 1 0.21337 0.9732 0.500521
11 1 0.326973 0.913461 0.498617
56 1 0.452901 0.911832 0.499912
29 1 0.572002 0.907815 0.49931
19 1 0.706063 0.989598 0.498383
7 1 0.852756 0.978272 0.501529
53 1 0.976753 0.950774 0.499692
ITEM: TIMESTEP
750
ITEM: NUMBER OF ATOMS
42
ITEM: BOX BOUNDS pp pp pp
-4.8115642748927216e+00 4.8115642748927216e+00
-4.8114907689059123e+00 4.8114907689059123e+00
-1.0000000000000001e-01 1.0000000000000001e-01
ITEM: ATOMS id type xs ys zs
66 1 0.168277 0.0626478 0.500659
68 1 0.188154 0.148482 0.502054
33 1 0.370332 0.0371134 0.50072
26 1 0.499391 0.0127988 0.501161
74 1 0.589689 0.00863507 0.499744
27 1 0.584166 0.108346 0.498714
32 1 0.799211 0.0874404 0.502164
80 1 0.910663 0.0802205 0.499001
73 1 0.950914 0.0334124 0.500768
10 1 0.00447644 0.13602 0.499499
22 1 0.112718 0.202016 0.499652
28 1 0.264497 0.0919258 0.501081
76 1 0.210264 0.210322 0.498085
63 1 0.365656 0.137221 0.497454
24 1 0.458901 0.136492 0.498839
50 1 0.74836 0.232516 0.500116
18 1 0.868019 0.2193 0.500001
55 1 0.193369 0.281186 0.50138
37 1 0.306441 0.211605 0.500317
30 1 0.418511 0.267847 0.500533
40 1 0.526865 0.241094 0.496352
31 1 0.633083 0.210915 0.502209
35 1 0.692336 0.322165 0.499303
4 1 0.277121 0.357566 0.500274
13 1 0.421026 0.413556 0.500795
8 1 0.562993 0.369078 0.497931
46 1 0.649054 0.463014 0.500693
34 1 0.803571 0.349602 0.499729
20 1 0.537477 0.513829 0.501833
45 1 0.667795 0.545899 0.500795
1 1 0.774959 0.48966 0.502177
3 1 0.342039 0.764309 0.498526
5 1 0.503341 0.779045 0.501377
62 1 0.417959 0.836906 0.499914
2 1 0.0796593 0.990845 0.50247
21 1 0.21376 0.972501 0.502439
11 1 0.327572 0.913805 0.499168
56 1 0.453072 0.911962 0.500026
29 1 0.572007 0.907495 0.500054
19 1 0.706818 0.989584 0.497404
7 1 0.853126 0.977963 0.500747
53 1 0.976484 0.950794 0.501589
ITEM: TIMESTEP
1000
ITEM: NUMBER OF ATOMS
42
ITEM: BOX BOUNDS pp pp pp
-4.8103608410753473e+00 4.8103608410753473e+00
-4.8192592178501563e+00 4.8192592178501563e+00
-1.0000000000000001e-01 1.0000000000000001e-01
ITEM: ATOMS id type xs ys zs
66 1 0.168749 0.0622242 0.501371
68 1 0.188499 0.148349 0.501288
33 1 0.371232 0.0379129 0.500287
26 1 0.499422 0.0133962 0.50198
74 1 0.589343 0.00819953 0.500899
27 1 0.584813 0.108269 0.497527
32 1 0.798113 0.0881775 0.501587
80 1 0.9116 0.0806279 0.500012
73 1 0.951741 0.0332168 0.500753
10 1 0.00553135 0.135255 0.499795
22 1 0.113038 0.201914 0.49878
28 1 0.264855 0.091648 0.500914
76 1 0.211164 0.209337 0.498798
63 1 0.365972 0.137698 0.499418
24 1 0.459471 0.136327 0.499036
50 1 0.748556 0.233249 0.498936
18 1 0.867994 0.219197 0.499123
55 1 0.194684 0.280119 0.502611
37 1 0.30721 0.211446 0.498652
30 1 0.418474 0.269001 0.501294
40 1 0.526883 0.242189 0.495891
31 1 0.633418 0.210987 0.502996
35 1 0.692622 0.322243 0.499162
4 1 0.277411 0.356609 0.502517
13 1 0.420724 0.413741 0.499683
8 1 0.563482 0.369999 0.498899
46 1 0.649681 0.463457 0.500375
34 1 0.803625 0.349463 0.499215
20 1 0.537905 0.514246 0.502962
45 1 0.668931 0.546043 0.502576
1 1 0.775725 0.48937 0.503061
3 1 0.341208 0.764924 0.498379
5 1 0.503016 0.779138 0.49953
62 1 0.41762 0.837449 0.499579
2 1 0.0803661 0.990828 0.502721
21 1 0.21415 0.972362 0.503413
11 1 0.328228 0.914258 0.499277
56 1 0.454541 0.911862 0.500603
29 1 0.571411 0.907354 0.499329
19 1 0.706322 0.98862 0.497176
7 1 0.853227 0.978913 0.499254
53 1 0.97688 0.950436 0.502337
ITEM: TIMESTEP
1250
ITEM: NUMBER OF ATOMS
42
ITEM: BOX BOUNDS pp pp pp
-4.8091574072579721e+00 4.8091574072579721e+00
-4.8200445681105437e+00 4.8200445681105437e+00
-1.0000000000000001e-01 1.0000000000000001e-01
ITEM: ATOMS id type xs ys zs
66 1 0.167414 0.0617679 0.50195
68 1 0.188694 0.14875 0.503817
33 1 0.370602 0.0383946 0.500552
26 1 0.499554 0.0139029 0.501287
74 1 0.589331 0.00876016 0.499788
27 1 0.584433 0.108967 0.496812
32 1 0.797898 0.0877315 0.499868
80 1 0.911558 0.0805781 0.501738
73 1 0.951488 0.0330684 0.500421
10 1 0.0061509 0.134492 0.497538
22 1 0.113728 0.202241 0.498541
28 1 0.264085 0.0919397 0.499219
76 1 0.212002 0.209458 0.498386
63 1 0.36655 0.138366 0.499692
24 1 0.45944 0.13665 0.500331
50 1 0.748528 0.232689 0.497151
18 1 0.868993 0.21933 0.498147
55 1 0.195727 0.280071 0.504101
37 1 0.307554 0.211709 0.499119
30 1 0.419654 0.269239 0.501264
40 1 0.527718 0.241841 0.496674
31 1 0.633261 0.210637 0.505212
35 1 0.691928 0.322109 0.499503
4 1 0.277344 0.357043 0.502297
13 1 0.421308 0.414696 0.499521
8 1 0.562566 0.369804 0.49802
46 1 0.650456 0.462312 0.49981
34 1 0.803115 0.348968 0.501438
20 1 0.538935 0.514295 0.502437
45 1 0.669641 0.545141 0.502774
1 1 0.776608 0.489118 0.501261
3 1 0.342263 0.764837 0.49817
5 1 0.503553 0.779727 0.500587
62 1 0.41832 0.837457 0.500482
2 1 0.0796203 0.98921 0.503708
21 1 0.214047 0.972042 0.502824
11 1 0.328698 0.914718 0.496474
56 1 0.45498 0.912598 0.501217
29 1 0.571163 0.908194 0.497946
19 1 0.706695 0.988574 0.4981
7 1 0.853014 0.97869 0.500297
53 1 0.975813 0.950192 0.50204
ITEM: TIMESTEP
1500
ITEM: NUMBER OF ATOMS
42
ITEM: BOX BOUNDS pp pp pp
-4.8079539734405969e+00 4.8079539734405969e+00
-4.8188968292912131e+00 4.8188968292912131e+00
-1.0000000000000001e-01 1.0000000000000001e-01
ITEM: ATOMS id type xs ys zs
66 1 0.167182 0.0619223 0.500083
68 1 0.187657 0.148917 0.502818
33 1 0.370539 0.0375005 0.499425
26 1 0.498672 0.0136305 0.504037
74 1 0.589418 0.00897092 0.500551
27 1 0.584221 0.10874 0.496721
32 1 0.799623 0.0876671 0.499776
80 1 0.911636 0.079449 0.500626
73 1 0.951016 0.0319036 0.499139
10 1 0.00630747 0.133531 0.496149
22 1 0.113165 0.20349 0.497255
28 1 0.263659 0.0925637 0.498862
76 1 0.211643 0.209442 0.498647
63 1 0.366571 0.137707 0.497798
24 1 0.459538 0.136272 0.498985
50 1 0.749125 0.232906 0.498854
18 1 0.869662 0.219298 0.49723
55 1 0.195417 0.280142 0.504376
37 1 0.307969 0.211526 0.499997
30 1 0.419836 0.270843 0.50199
40 1 0.527872 0.241435 0.497091
31 1 0.634093 0.210792 0.504252
35 1 0.692505 0.322337 0.500889
4 1 0.278157 0.356197 0.504787
13 1 0.421012 0.416064 0.500349
8 1 0.563364 0.369127 0.500449
46 1 0.650757 0.461916 0.498523
34 1 0.803216 0.348084 0.502988
20 1 0.540093 0.513957 0.504435
45 1 0.670473 0.54475 0.503512
1 1 0.777556 0.488034 0.502807
3 1 0.342331 0.765312 0.497848
5 1 0.503965 0.779649 0.501658
62 1 0.41865 0.837471 0.500062
2 1 0.0800716 0.988116 0.505225
21 1 0.214632 0.972642 0.504486
11 1 0.328524 0.914247 0.497507
56 1 0.454711 0.912225 0.501334
29 1 0.571292 0.908165 0.497876
19 1 0.706342 0.990507 0.49744
7 1 0.852617 0.97762 0.500336
53 1 0.976384 0.949185 0.501714
ITEM: TIMESTEP
1750
ITEM: NUMBER OF ATOMS
42
ITEM: BOX BOUNDS pp pp pp
-4.8067505396232226e+00 4.8067505396232226e+00
-4.8122176092069360e+00 4.8122176092069360e+00
-1.0000000000000001e-01 1.0000000000000001e-01
ITEM: ATOMS id type xs ys zs
66 1 0.167014 0.0616856 0.500517
68 1 0.187563 0.148779 0.502896
33 1 0.370573 0.0377756 0.498149
26 1 0.49896 0.0135691 0.503096
74 1 0.589367 0.0082843 0.499616
27 1 0.584649 0.108108 0.493391
32 1 0.799455 0.0877454 0.498808
80 1 0.911515 0.0803199 0.500645
73 1 0.951529 0.0326487 0.500719
10 1 0.00603928 0.134822 0.498439
22 1 0.112708 0.203016 0.496438
28 1 0.263684 0.0923081 0.497114
76 1 0.210889 0.209861 0.497938
63 1 0.366642 0.137854 0.498376
24 1 0.459799 0.136713 0.497896
50 1 0.74888 0.232041 0.499038
18 1 0.86914 0.220041 0.497665
55 1 0.194165 0.280528 0.50566
37 1 0.307505 0.211974 0.49982
30 1 0.419 0.269985 0.502172
40 1 0.527888 0.24201 0.496284
31 1 0.633832 0.210478 0.503115
35 1 0.692869 0.321962 0.502451
4 1 0.27705 0.357055 0.506139
13 1 0.421017 0.415645 0.497738
8 1 0.563275 0.369832 0.499618
46 1 0.650588 0.462927 0.498183
34 1 0.803873 0.349158 0.502811
20 1 0.539822 0.514944 0.504917
45 1 0.670159 0.545898 0.504012
1 1 0.777079 0.488626 0.502452
3 1 0.342723 0.764598 0.496862
5 1 0.50361 0.778812 0.503807
62 1 0.419146 0.837262 0.501217
2 1 0.0795692 0.988483 0.507593
21 1 0.214121 0.972094 0.503963
11 1 0.32846 0.914161 0.499134
56 1 0.454929 0.911962 0.500103
29 1 0.570444 0.907036 0.497045
19 1 0.706594 0.990804 0.497254
7 1 0.853239 0.977811 0.498969
53 1 0.976071 0.949516 0.502245
ITEM: TIMESTEP
2000
ITEM: NUMBER OF ATOMS
42
ITEM: BOX BOUNDS pp pp pp
-4.8055471058058474e+00 4.8055471058058474e+00
-4.8167051729320951e+00 4.8167051729320951e+00
-1.0000000000000001e-01 1.0000000000000001e-01
ITEM: ATOMS id type xs ys zs
66 1 0.167113 0.0614507 0.50075
68 1 0.188268 0.149754 0.503727
33 1 0.370554 0.0386928 0.498693
26 1 0.499111 0.0132876 0.502999
74 1 0.589685 0.00778532 0.501395
27 1 0.585362 0.107768 0.493209
32 1 0.797782 0.0874239 0.499076
80 1 0.911286 0.0796311 0.49977
73 1 0.950987 0.0327907 0.500916
10 1 0.00565487 0.134315 0.498913
22 1 0.112826 0.202658 0.497527
28 1 0.263631 0.0918526 0.497688
76 1 0.210886 0.210554 0.498824
63 1 0.366404 0.138898 0.498578
24 1 0.459938 0.13643 0.498757
50 1 0.748481 0.231808 0.50073
18 1 0.868596 0.219127 0.499617
55 1 0.193561 0.281388 0.505556
37 1 0.306347 0.211473 0.499141
30 1 0.418665 0.26895 0.501584
40 1 0.52705 0.241651 0.495875
31 1 0.633163 0.210903 0.503399
35 1 0.69277 0.321602 0.501271
4 1 0.277185 0.357475 0.505917
13 1 0.421725 0.41418 0.498161
8 1 0.563861 0.368751 0.50056
46 1 0.650022 0.462203 0.497665
34 1 0.803329 0.34836 0.501697
20 1 0.538687 0.514099 0.503341
45 1 0.670197 0.544921 0.502091
1 1 0.776444 0.488386 0.504035
3 1 0.342208 0.764136 0.494475
5 1 0.503876 0.778523 0.504823
62 1 0.41853 0.836644 0.501795
2 1 0.0797164 0.988832 0.507611
21 1 0.214512 0.97194 0.505176
11 1 0.329157 0.914723 0.502044
56 1 0.454912 0.911506 0.500226
29 1 0.571859 0.907091 0.496736
19 1 0.706775 0.987891 0.497152
7 1 0.852593 0.977926 0.497691
53 1 0.976136 0.949865 0.50394
ITEM: TIMESTEP
2250
ITEM: NUMBER OF ATOMS
42
ITEM: BOX BOUNDS pp pp pp
-4.8043436719884731e+00 4.8043436719884731e+00
-4.7973702063400898e+00 4.7973702063400898e+00
-1.0000000000000001e-01 1.0000000000000001e-01
ITEM: ATOMS id type xs ys zs
66 1 0.166744 0.0613243 0.50081
68 1 0.18894 0.150702 0.503096
33 1 0.370858 0.0377799 0.496942
26 1 0.498683 0.0130598 0.502678
74 1 0.58919 0.00829557 0.501198
27 1 0.584026 0.108314 0.493235
32 1 0.795826 0.086844 0.500214
80 1 0.911271 0.0801863 0.502243
73 1 0.951204 0.0323028 0.500279
10 1 0.00534042 0.135286 0.50011
22 1 0.112543 0.202876 0.496649
28 1 0.263431 0.0912547 0.499708
76 1 0.210212 0.212417 0.498469
63 1 0.365859 0.138177 0.499064
24 1 0.459126 0.136507 0.499638
50 1 0.748607 0.231465 0.501696
18 1 0.868179 0.218103 0.501066
55 1 0.192515 0.282899 0.505078
37 1 0.306342 0.211319 0.498738
30 1 0.418752 0.269605 0.503906
40 1 0.526836 0.24065 0.496304
31 1 0.633368 0.21087 0.503481
35 1 0.693613 0.322349 0.502643
4 1 0.277594 0.358064 0.506653
13 1 0.421476 0.414812 0.494977
8 1 0.564167 0.369043 0.500489
46 1 0.650656 0.46262 0.497618
34 1 0.804569 0.348473 0.499904
20 1 0.539539 0.514064 0.504182
45 1 0.669866 0.545464 0.503561
1 1 0.776853 0.488587 0.50524
3 1 0.34147 0.764035 0.494552
5 1 0.502848 0.7784 0.505268
62 1 0.417958 0.836405 0.500605
2 1 0.0785576 0.988695 0.508798
21 1 0.213162 0.971139 0.507262
11 1 0.328205 0.914125 0.502184
56 1 0.454169 0.911478 0.500773
29 1 0.571541 0.906704 0.496971
19 1 0.705516 0.986447 0.49611
7 1 0.851935 0.97843 0.499847
53 1 0.975049 0.948728 0.502751
ITEM: TIMESTEP
2500
ITEM: NUMBER OF ATOMS
42
ITEM: BOX BOUNDS pp pp pp
-4.8031402381710979e+00 4.8031402381710979e+00
-4.8172256697559419e+00 4.8172256697559419e+00
-1.0000000000000001e-01 1.0000000000000001e-01
ITEM: ATOMS id type xs ys zs
66 1 0.167063 0.060765 0.501019
68 1 0.189304 0.15141 0.501218
33 1 0.370151 0.0383981 0.499303
26 1 0.499237 0.0131884 0.503722
74 1 0.589145 0.00789833 0.499772
27 1 0.584907 0.108164 0.495126
32 1 0.795347 0.0879031 0.499042
80 1 0.911774 0.0809421 0.502879
73 1 0.951356 0.0332365 0.498787
10 1 0.00657939 0.134524 0.500242
22 1 0.112796 0.203535 0.49597
28 1 0.26302 0.0919339 0.499154
76 1 0.210491 0.212948 0.496283
63 1 0.365917 0.138589 0.498987
24 1 0.459502 0.136633 0.499292
50 1 0.748473 0.230822 0.501796
18 1 0.868437 0.218488 0.501412
55 1 0.192604 0.283433 0.504475
37 1 0.306225 0.211748 0.499874
30 1 0.417953 0.269435 0.502303
40 1 0.52673 0.241906 0.496731
31 1 0.632663 0.211363 0.503472
35 1 0.694373 0.321852 0.501229
4 1 0.277695 0.357277 0.505795
13 1 0.421878 0.414152 0.494671
8 1 0.564504 0.368738 0.50249
46 1 0.651097 0.462349 0.498499
34 1 0.805372 0.349254 0.500871
20 1 0.540484 0.513535 0.504947
45 1 0.670214 0.54526 0.503838
1 1 0.777588 0.489409 0.504539
3 1 0.341713 0.764051 0.493983
5 1 0.502333 0.778158 0.507793
62 1 0.417763 0.837102 0.500567
2 1 0.0795208 0.988221 0.508355
21 1 0.214342 0.97165 0.507643
11 1 0.328423 0.914432 0.500885
56 1 0.454573 0.911423 0.500125
29 1 0.570756 0.906654 0.496691
19 1 0.706002 0.986683 0.496138
7 1 0.852354 0.979612 0.500107
53 1 0.97559 0.95017 0.503173
ITEM: TIMESTEP
2750
ITEM: NUMBER OF ATOMS
42
ITEM: BOX BOUNDS pp pp pp
-4.8019368043537236e+00 4.8019368043537236e+00
-4.8091325024515514e+00 4.8091325024515514e+00
-1.0000000000000001e-01 1.0000000000000001e-01
ITEM: ATOMS id type xs ys zs
66 1 0.166562 0.0612736 0.5012
68 1 0.189127 0.151573 0.499694
33 1 0.370209 0.037646 0.497976
26 1 0.498717 0.012927 0.505166
74 1 0.589185 0.00842234 0.500028
27 1 0.583568 0.108474 0.495254
32 1 0.795203 0.0876985 0.499202
80 1 0.911456 0.080663 0.503514
73 1 0.950976 0.0331637 0.498147
10 1 0.00603512 0.134926 0.49994
22 1 0.112472 0.204918 0.496936
28 1 0.263102 0.0917738 0.497978
76 1 0.210758 0.21302 0.495917
63 1 0.365851 0.138102 0.498311
24 1 0.459037 0.136243 0.501448
50 1 0.747931 0.229866 0.501412
18 1 0.867578 0.219145 0.500134
55 1 0.193623 0.283496 0.504046
37 1 0.306487 0.211968 0.500438
30 1 0.419336 0.267715 0.500876
40 1 0.527599 0.241651 0.496274
31 1 0.633016 0.210646 0.503002
35 1 0.694591 0.320877 0.502264
4 1 0.278836 0.357901 0.50479
13 1 0.423273 0.413082 0.493046
8 1 0.565656 0.368837 0.501614
46 1 0.651207 0.46337 0.497997
34 1 0.804752 0.350105 0.501812
20 1 0.540145 0.514013 0.505478
45 1 0.670836 0.546076 0.504821
1 1 0.77817 0.490585 0.504794
3 1 0.341593 0.764276 0.492795
5 1 0.503402 0.778292 0.508159
62 1 0.41853 0.836462 0.499519
2 1 0.0788963 0.988116 0.506587
21 1 0.213325 0.971505 0.508646
11 1 0.328343 0.914469 0.501128
56 1 0.45428 0.911334 0.500738
29 1 0.571701 0.907223 0.497208
19 1 0.706027 0.98687 0.494122
7 1 0.852094 0.979154 0.50038
53 1 0.974879 0.949528 0.502624
ITEM: TIMESTEP
3000
ITEM: NUMBER OF ATOMS
42
ITEM: BOX BOUNDS pp pp pp
-4.8007333705363484e+00 4.8007333705363484e+00
-4.8108068775539641e+00 4.8108068775539641e+00
-1.0000000000000001e-01 1.0000000000000001e-01
ITEM: ATOMS id type xs ys zs
66 1 0.166311 0.0617449 0.501275
68 1 0.188805 0.151695 0.497904
33 1 0.370329 0.0378701 0.498738
26 1 0.498829 0.012937 0.50531
74 1 0.589591 0.00900324 0.496987
27 1 0.583311 0.108597 0.493309
32 1 0.796443 0.0871883 0.498235
80 1 0.911291 0.0798436 0.502969
73 1 0.951116 0.0322675 0.497393
10 1 0.00569334 0.134377 0.498489
22 1 0.11238 0.20327 0.497968
28 1 0.262495 0.0922624 0.499933
76 1 0.209815 0.213573 0.495177
63 1 0.365206 0.13842 0.498442
24 1 0.4584 0.136442 0.502044
50 1 0.747851 0.229027 0.500341
18 1 0.868243 0.218891 0.49831
55 1 0.192422 0.284159 0.502172
37 1 0.305884 0.211736 0.499694
30 1 0.417935 0.269562 0.502353
40 1 0.526447 0.24214 0.495774
31 1 0.631967 0.210533 0.501681
35 1 0.69399 0.321004 0.499842
4 1 0.278405 0.35703 0.505376
13 1 0.422383 0.414456 0.492911
8 1 0.564638 0.369385 0.503641
46 1 0.650788 0.463012 0.500416
34 1 0.804659 0.349475 0.502684
20 1 0.539908 0.515264 0.507567
45 1 0.670831 0.545717 0.506804
1 1 0.77768 0.489366 0.503763
3 1 0.341093 0.764288 0.492825
5 1 0.502785 0.780329 0.508355
62 1 0.417235 0.837004 0.498725
2 1 0.0788918 0.988702 0.50491
21 1 0.213424 0.972528 0.507453
11 1 0.327522 0.914388 0.501762
56 1 0.453389 0.911728 0.501617
29 1 0.572626 0.907787 0.498645
19 1 0.706174 0.98664 0.493847
7 1 0.852582 0.978815 0.499953
53 1 0.975075 0.949116 0.501922
ITEM: TIMESTEP
3250
ITEM: NUMBER OF ATOMS
42
ITEM: BOX BOUNDS pp pp pp
-4.7995299367189732e+00 4.7995299367189732e+00
-4.8186928822398789e+00 4.8186928822398789e+00
-1.0000000000000001e-01 1.0000000000000001e-01
ITEM: ATOMS id type xs ys zs
66 1 0.166242 0.0620475 0.501553
68 1 0.189056 0.152217 0.498188
33 1 0.369885 0.0383774 0.497452
26 1 0.498846 0.0126446 0.506544
74 1 0.589852 0.00861596 0.496119
27 1 0.583375 0.108337 0.493243
32 1 0.797608 0.0854552 0.495274
80 1 0.911355 0.0789764 0.50256
73 1 0.951579 0.0315878 0.496358
10 1 0.00522811 0.13385 0.498116
22 1 0.111676 0.203034 0.496552
28 1 0.262996 0.0920664 0.50008
76 1 0.209586 0.213841 0.494272
63 1 0.365964 0.138604 0.497374
24 1 0.459087 0.136076 0.502623
50 1 0.747496 0.22982 0.500309
18 1 0.867682 0.217709 0.497132
55 1 0.19034 0.284208 0.502756
37 1 0.306252 0.211798 0.499026
30 1 0.417238 0.26993 0.503322
40 1 0.525242 0.241837 0.494622
31 1 0.631509 0.21112 0.502572
35 1 0.69412 0.32131 0.500303
4 1 0.277979 0.356713 0.506588
13 1 0.421815 0.414847 0.492808
8 1 0.564061 0.369071 0.506205
46 1 0.650985 0.462739 0.500122
34 1 0.805525 0.348803 0.503695
20 1 0.539731 0.514208 0.507696
45 1 0.67064 0.545452 0.50725
1 1 0.777307 0.488914 0.504478
3 1 0.341059 0.764401 0.493708
5 1 0.503446 0.779061 0.50631
62 1 0.418036 0.836637 0.499272
2 1 0.0794598 0.987941 0.503973
21 1 0.214158 0.973031 0.506536
11 1 0.32768 0.914592 0.502473
56 1 0.453617 0.91151 0.501972
29 1 0.571967 0.907665 0.497442
19 1 0.706615 0.985399 0.494781
7 1 0.853278 0.977049 0.501232
53 1 0.976078 0.94819 0.501901
ITEM: TIMESTEP
3500
ITEM: NUMBER OF ATOMS
42
ITEM: BOX BOUNDS pp pp pp
-4.7983265029015989e+00 4.7983265029015989e+00
-4.8150564516229828e+00 4.8150564516229828e+00
-1.0000000000000001e-01 1.0000000000000001e-01
ITEM: ATOMS id type xs ys zs
66 1 0.166557 0.0613954 0.501045
68 1 0.189093 0.152481 0.499693
33 1 0.369679 0.0373777 0.498576
26 1 0.498618 0.0123085 0.508002
74 1 0.58886 0.00882602 0.495837
27 1 0.584008 0.10855 0.494571
32 1 0.797993 0.0857683 0.496749
80 1 0.911888 0.0781607 0.502326
73 1 0.951569 0.0303216 0.495401
10 1 0.00644638 0.132502 0.499698
22 1 0.111974 0.203814 0.498184
28 1 0.263027 0.0925283 0.498382
76 1 0.209969 0.214145 0.493614
63 1 0.365254 0.137704 0.499036
24 1 0.458584 0.135374 0.501401
50 1 0.747838 0.23033 0.500571
18 1 0.86859 0.217682 0.496625
55 1 0.190907 0.284495 0.503316
37 1 0.306063 0.211173 0.500953
30 1 0.417256 0.27051 0.501757
40 1 0.525805 0.241113 0.494214
31 1 0.63236 0.211515 0.503729
35 1 0.693799 0.321006 0.501019
4 1 0.277353 0.357163 0.506051
13 1 0.421188 0.414961 0.492405
8 1 0.563809 0.368917 0.50441
46 1 0.650614 0.461694 0.498501
34 1 0.804474 0.348371 0.502346
20 1 0.539828 0.514512 0.508492
45 1 0.671005 0.544517 0.507088
1 1 0.777862 0.488528 0.503732
3 1 0.34058 0.763929 0.49277
5 1 0.502091 0.778767 0.507088
62 1 0.416605 0.83635 0.497852
2 1 0.0796848 0.987416 0.504055
21 1 0.213802 0.972495 0.506262
11 1 0.327382 0.913507 0.502638
56 1 0.453592 0.911038 0.500892
29 1 0.571873 0.907327 0.497328
19 1 0.705803 0.987266 0.493094
7 1 0.852476 0.976602 0.502237
53 1 0.975766 0.947247 0.499534
ITEM: TIMESTEP
3750
ITEM: NUMBER OF ATOMS
42
ITEM: BOX BOUNDS pp pp pp
-4.7971230690842237e+00 4.7971230690842237e+00
-4.8139502013231068e+00 4.8139502013231068e+00
-1.0000000000000001e-01 1.0000000000000001e-01
ITEM: ATOMS id type xs ys zs
66 1 0.16574 0.0608749 0.501171
68 1 0.188851 0.153046 0.500031
33 1 0.368468 0.0377179 0.498366
26 1 0.497554 0.0124033 0.509049
74 1 0.588299 0.00832479 0.496279
27 1 0.58344 0.107493 0.494541
32 1 0.797132 0.0862278 0.498863
80 1 0.912022 0.0779096 0.502371
73 1 0.951626 0.0305936 0.496062
10 1 0.006137 0.132792 0.499695
22 1 0.111615 0.203529 0.49869
28 1 0.262086 0.0921643 0.500084
76 1 0.209274 0.214775 0.494401
63 1 0.364636 0.138045 0.497535
24 1 0.458275 0.13603 0.502385
50 1 0.747528 0.230373 0.501241
18 1 0.867588 0.217862 0.494874
55 1 0.189741 0.284678 0.504072
37 1 0.305628 0.211276 0.499001
30 1 0.4169 0.270568 0.499527
40 1 0.525067 0.241994 0.494517
31 1 0.631548 0.210286 0.503508
35 1 0.692815 0.320535 0.502961
4 1 0.276624 0.356674 0.506288
13 1 0.420984 0.415814 0.494376
8 1 0.563626 0.369613 0.503377
46 1 0.650797 0.462362 0.499136
34 1 0.804193 0.348194 0.500874
20 1 0.539419 0.514332 0.509858
45 1 0.670516 0.544586 0.507949
1 1 0.777301 0.487401 0.50307
3 1 0.341257 0.762926 0.495759
5 1 0.502349 0.77909 0.50783
62 1 0.417015 0.836399 0.49839
2 1 0.0795959 0.986029 0.502868
21 1 0.214134 0.971941 0.504802
11 1 0.327678 0.913 0.500851
56 1 0.454438 0.910388 0.502245
29 1 0.571245 0.907092 0.496195
19 1 0.705525 0.986836 0.494179
7 1 0.852644 0.976819 0.500347
53 1 0.975389 0.947281 0.498626
ITEM: TIMESTEP
4000
ITEM: NUMBER OF ATOMS
42
ITEM: BOX BOUNDS pp pp pp
-4.7959196352668494e+00 4.7959196352668494e+00
-4.8111219151682247e+00 4.8111219151682247e+00
-1.0000000000000001e-01 1.0000000000000001e-01
ITEM: ATOMS id type xs ys zs
66 1 0.166019 0.0600301 0.50107
68 1 0.188761 0.152336 0.50144
33 1 0.368536 0.0378724 0.499475
26 1 0.49749 0.0122008 0.510277
74 1 0.588119 0.00851942 0.495746
27 1 0.582548 0.107947 0.493709
32 1 0.79648 0.0854276 0.496561
80 1 0.912283 0.0777653 0.502988
73 1 0.951896 0.0299871 0.495657
10 1 0.00633022 0.132783 0.500238
22 1 0.111753 0.204405 0.499058
28 1 0.261619 0.0919703 0.500878
76 1 0.208961 0.214311 0.49625
63 1 0.364098 0.138336 0.495644
24 1 0.45775 0.135658 0.501005
50 1 0.747476 0.230851 0.501381
18 1 0.867347 0.217332 0.497948
55 1 0.191075 0.285198 0.502734
37 1 0.304709 0.212231 0.498356
30 1 0.417021 0.270887 0.49963
40 1 0.525279 0.240783 0.492741
31 1 0.632109 0.210427 0.502104
35 1 0.691829 0.321167 0.503477
4 1 0.276831 0.358244 0.506243
13 1 0.42016 0.415604 0.494018
8 1 0.562217 0.368566 0.50362
46 1 0.650498 0.46157 0.498851
34 1 0.803372 0.348638 0.502311
20 1 0.538865 0.513649 0.507951
45 1 0.669042 0.544171 0.508034
1 1 0.776472 0.488922 0.502033
3 1 0.340191 0.763201 0.495718
5 1 0.502229 0.778017 0.508744
62 1 0.41672 0.835668 0.49787
2 1 0.0786963 0.986532 0.501942
21 1 0.213415 0.97097 0.505896
11 1 0.327856 0.91388 0.50082
56 1 0.453951 0.910269 0.501331
29 1 0.571252 0.906756 0.495681
19 1 0.704902 0.986037 0.493576
7 1 0.852388 0.976534 0.500372
53 1 0.975074 0.946509 0.496752
ITEM: TIMESTEP
4250
ITEM: NUMBER OF ATOMS
42
ITEM: BOX BOUNDS pp pp pp
-4.7947162014494742e+00 4.7947162014494742e+00
-4.8124688031021376e+00 4.8124688031021376e+00
-1.0000000000000001e-01 1.0000000000000001e-01
ITEM: ATOMS id type xs ys zs
66 1 0.164903 0.0609505 0.502961
68 1 0.188877 0.153242 0.501371
33 1 0.368551 0.0375892 0.499848
26 1 0.497576 0.0130135 0.511387
74 1 0.588135 0.00861568 0.495637
27 1 0.582257 0.108439 0.493337
32 1 0.796767 0.0858034 0.493874
80 1 0.91126 0.0778375 0.500047
73 1 0.950761 0.0299984 0.496022
10 1 0.00589258 0.132272 0.498804
22 1 0.111272 0.203364 0.498883
28 1 0.261386 0.091953 0.50032
76 1 0.20902 0.214897 0.496304
63 1 0.363913 0.138137 0.494458
24 1 0.457337 0.136133 0.501122
50 1 0.746114 0.231474 0.500938
18 1 0.866571 0.218506 0.497092
55 1 0.189569 0.284979 0.504162
37 1 0.304827 0.211635 0.499087
30 1 0.416287 0.270342 0.499935
40 1 0.524388 0.241816 0.49205
31 1 0.630737 0.211162 0.502418
35 1 0.692347 0.322046 0.50405
4 1 0.276127 0.357432 0.509014
13 1 0.420198 0.415376 0.493344
8 1 0.562104 0.368972 0.50464
46 1 0.649971 0.461409 0.498856
34 1 0.803217 0.348683 0.503312
20 1 0.538576 0.514404 0.50954
45 1 0.669424 0.543678 0.508452
1 1 0.77676 0.488486 0.501145
3 1 0.340832 0.763318 0.496777
5 1 0.502298 0.778007 0.508912
62 1 0.417062 0.836378 0.497616
2 1 0.0780502 0.98653 0.500112
21 1 0.212959 0.97144 0.507027
11 1 0.32685 0.913173 0.50085
56 1 0.452757 0.911418 0.501927
29 1 0.570214 0.907329 0.496513
19 1 0.704961 0.986663 0.492854
7 1 0.852017 0.976372 0.501115
53 1 0.974066 0.946699 0.496813
ITEM: TIMESTEP
4500
ITEM: NUMBER OF ATOMS
42
ITEM: BOX BOUNDS pp pp pp
-4.7935127676320999e+00 4.7935127676320999e+00
-4.8132497011986173e+00 4.8132497011986173e+00
-1.0000000000000001e-01 1.0000000000000001e-01
ITEM: ATOMS id type xs ys zs
66 1 0.165033 0.0605357 0.503222
68 1 0.187867 0.152647 0.500961
33 1 0.368204 0.0376189 0.499354
26 1 0.497161 0.0134492 0.511554
74 1 0.587434 0.00869247 0.495998
27 1 0.582166 0.108815 0.492752
32 1 0.796824 0.0857064 0.494228
80 1 0.911042 0.0779336 0.500741
73 1 0.95063 0.0301232 0.495635
10 1 0.00562698 0.131836 0.497371
22 1 0.111205 0.203722 0.498587
28 1 0.261472 0.0926003 0.499401
76 1 0.209059 0.214393 0.496889
63 1 0.363639 0.137997 0.495097
24 1 0.457162 0.136928 0.498758
50 1 0.746888 0.232444 0.501117
18 1 0.867253 0.218627 0.498311
55 1 0.189287 0.284385 0.505581
37 1 0.305157 0.211578 0.498811
30 1 0.41633 0.271015 0.501085
40 1 0.524973 0.241875 0.493475
31 1 0.631418 0.211197 0.502051
35 1 0.690842 0.322077 0.504364
4 1 0.276101 0.357094 0.508682
13 1 0.419534 0.416218 0.492995
8 1 0.561547 0.369821 0.503304
46 1 0.648815 0.462709 0.49855
34 1 0.802619 0.348958 0.501717
20 1 0.53769 0.5152 0.509271
45 1 0.668364 0.545446 0.507835
1 1 0.775978 0.488795 0.503126
3 1 0.341458 0.763645 0.497083
5 1 0.502864 0.778581 0.509986
62 1 0.417667 0.836867 0.4993
2 1 0.0786188 0.985697 0.498458
21 1 0.213649 0.971999 0.508132
11 1 0.326674 0.913412 0.503409
56 1 0.452836 0.911928 0.503198
29 1 0.570337 0.90782 0.495761
19 1 0.704496 0.987198 0.492323
7 1 0.851371 0.976496 0.50153
53 1 0.974547 0.947065 0.496963
ITEM: TIMESTEP
4750
ITEM: NUMBER OF ATOMS
42
ITEM: BOX BOUNDS pp pp pp
-4.7923093338147247e+00 4.7923093338147247e+00
-4.8157934140630143e+00 4.8157934140630143e+00
-1.0000000000000001e-01 1.0000000000000001e-01
ITEM: ATOMS id type xs ys zs
66 1 0.165438 0.0599264 0.50555
68 1 0.188954 0.152084 0.502786
33 1 0.368475 0.0378039 0.498841
26 1 0.496922 0.0130063 0.511185
74 1 0.587502 0.00850528 0.496313
27 1 0.582993 0.108454 0.492834
32 1 0.79759 0.0859115 0.494844
80 1 0.910436 0.0778102 0.499715
73 1 0.950498 0.0302292 0.495451
10 1 0.00480996 0.132747 0.496174
22 1 0.111409 0.20286 0.498763
28 1 0.261846 0.0916963 0.498401
76 1 0.209141 0.214273 0.497608
63 1 0.363541 0.137542 0.494823
24 1 0.457075 0.13591 0.498943
50 1 0.746715 0.230995 0.501952
18 1 0.867251 0.218215 0.500202
55 1 0.189644 0.283964 0.50344
37 1 0.305414 0.211764 0.499657
30 1 0.417201 0.269682 0.500422
40 1 0.525228 0.240984 0.492286
31 1 0.631339 0.210735 0.501055
35 1 0.690826 0.321153 0.504391
4 1 0.275402 0.357385 0.506694
13 1 0.419495 0.414718 0.493392
8 1 0.561795 0.369413 0.503721
46 1 0.64832 0.463608 0.500017
34 1 0.802572 0.347872 0.500806
20 1 0.537613 0.514864 0.50895
45 1 0.669402 0.545804 0.505833
1 1 0.77569 0.487427 0.503108
3 1 0.342396 0.763278 0.498963
5 1 0.50382 0.777205 0.511117
62 1 0.418995 0.835528 0.499869
2 1 0.0779188 0.986736 0.499273
21 1 0.213463 0.971361 0.508454
11 1 0.328597 0.91336 0.503485
56 1 0.455143 0.910441 0.503004
29 1 0.569314 0.90708 0.495693
19 1 0.704711 0.987924 0.49241
7 1 0.851196 0.976221 0.499508
53 1 0.974546 0.946636 0.495381
ITEM: TIMESTEP
5000
ITEM: NUMBER OF ATOMS
42
ITEM: BOX BOUNDS pp pp pp
-4.7911058999973495e+00 4.7911058999973495e+00
-4.8216633958258184e+00 4.8216633958258184e+00
-1.0000000000000001e-01 1.0000000000000001e-01
ITEM: ATOMS id type xs ys zs
66 1 0.166138 0.0601507 0.505502
68 1 0.188846 0.152151 0.502367
33 1 0.368691 0.0376182 0.499304
26 1 0.49714 0.0125975 0.513695
74 1 0.587756 0.0081559 0.49633
27 1 0.582574 0.107806 0.49234
32 1 0.797241 0.0858661 0.495975
80 1 0.911042 0.0777887 0.500168
73 1 0.950969 0.0301689 0.495758
10 1 0.00572634 0.132106 0.496269
22 1 0.111568 0.203106 0.498728
28 1 0.262501 0.0915318 0.499117
76 1 0.208867 0.213824 0.498108
63 1 0.363745 0.137412 0.493423
24 1 0.457403 0.136282 0.49746
50 1 0.747195 0.231976 0.501887
18 1 0.867643 0.217646 0.499005
55 1 0.189835 0.283835 0.503123
37 1 0.305265 0.211711 0.498644
30 1 0.417359 0.270022 0.499552
40 1 0.525696 0.240855 0.491362
31 1 0.631919 0.209814 0.500949
35 1 0.691225 0.321176 0.503613
4 1 0.275535 0.357588 0.506182
13 1 0.41925 0.415096 0.494843
8 1 0.561463 0.369674 0.504584
46 1 0.647994 0.463043 0.498843
34 1 0.802432 0.348096 0.499246
20 1 0.536672 0.51479 0.510219
45 1 0.668415 0.544969 0.507654
1 1 0.774774 0.487856 0.502558
3 1 0.342517 0.763522 0.498477
5 1 0.503985 0.777337 0.509654
62 1 0.418977 0.83578 0.499792
2 1 0.078908 0.987005 0.498186
21 1 0.213897 0.971221 0.509097
11 1 0.328614 0.91356 0.504055
56 1 0.453876 0.910865 0.503012
29 1 0.569568 0.90735 0.497494
19 1 0.704993 0.987515 0.492511
7 1 0.85201 0.976318 0.49666
53 1 0.975515 0.946961 0.495754
ITEM: TIMESTEP
5250