LAMMPS (23 Jun 2022 - Update 4)
  using 1 OpenMP thread(s) per MPI task
# Compute elastic constant tensor for a crystal
#
# Written by Aidan Thompson (Sandia, athomps@sandia.gov)
#
#  This script uses the following three include files.
#
#   init.mod      (must be modified for different crystal structures)
# 	       	  Define units, deformation parameters and initial
#		  configuration of the atoms and simulation cell.
#
#
#   potential.mod    (must be modified for different pair styles)
# 		     Define pair style and other attributes
#		     not stored in restart file
#
#
#   displace.mod    (displace.mod should not need to be modified)
# 		    Perform positive and negative box displacements
# 		    in direction ${dir} and size ${up}.
# 		    It uses the resultant changes
#		    in stress to compute one
# 		    row of the elastic stiffness tensor
#
#		    Inputs variables:
#		    	   dir = the Voigt deformation component
#		    		    (1,2,3,4,5,6)
#		    Global constants:
#       	    	   up = the deformation magnitude (strain units)
#       		   cfac = conversion from LAMMPS pressure units to
#               	   output units for elastic constants
#
#
#  To run this on a different system, it should only be necessary to
#  modify the files init.mod and potential.mod. In order to calculate
#  the elastic constants correctly, care must be taken to specify
#  the correct units in init.mod (units, cfac and cunits). It is also
#  important to verify that the minimization of energy w.r.t atom
#  positions in the deformed cell is fully converged.
#  One indication of this is that the elastic constants are insensitive
#  to the choice of the variable ${up} in init.mod. Another is to check
#  the final max and two-norm forces reported in the log file. If you know
#  that minimization is not required, you can set maxiter = 0.0 in
#  init.mod.
#



variable dt equal 0.01
variable strain equal 0.05
variable srate equal 1e-4
variable M equal 1000 # averaging time for properties
variable strainsteps equal ${strain}/${dt}/${srate}
variable strainsteps equal 0.05/${dt}/${srate}
variable strainsteps equal 0.05/0.01/${srate}
variable strainsteps equal 0.05/0.01/0.0001


dimension 2
include init.mod
# NOTE: This script can be modified for different atomic structures,
# units, etc. See in.elastic for more info.
#

# Define the finite deformation size. Try several values of this
# variable to verify that results do not depend on it.
variable up equal 1.0e-1

# Define the amount of random jiggle for atoms
# This prevents atoms from staying on saddle points
variable atomjiggle equal 1.0e-6

# Uncomment one of these blocks, depending on what units
# you are using in LAMMPS and for output

# metal units, elastic constants in eV/A^3
#units		metal
#variable cfac equal 6.2414e-7
#variable cunits string eV/A^3

# Choose potential
# metal units, elastic constants in GPa
units		metal
atom_style	full
#pair_style      lj/cut 1.0
#pair_style      yukawa 1.0 2.0
#pair_modify     mix arithmetic
bond_style      harmonic
angle_style     harmonic
dihedral_style  zero
special_bonds   amber
variable cfac equal 1.0e-4
variable cunits string GPa
boundary	p p p

# Need to set mass to something, just to satisfy LAMMPS
#mass 1 1.0e-20
read_data network.lmp
Reading data file ...
  orthogonal box = (-4.81374 -4.81374 -0.1) to (4.81374 4.81374 0.1)
  1 by 1 by 1 MPI processor grid
WARNING: Atom style in data file differs from currently defined atom style (src/read_data.cpp:538)
  reading atoms ...
  42 atoms
WARNING: Bond style in data file differs from currently defined bond style (src/read_data.cpp:630)
  scanning bonds ...
  5 = max bonds/atom
  reading bonds ...
  95 bonds
Finding 1-2 1-3 1-4 neighbors ...
  special bond factors lj:    0        0        0.5     
  special bond factors coul:  0        0        0.8333333333333334
     8 = max # of 1-2 neighbors
    36 = max # of 1-3 neighbors
   214 = max # of 1-4 neighbors
    28 = max # of special neighbors
  special bonds CPU = 0.000 seconds
  read_data CPU = 0.003 seconds

# real units, elastic constants in GPa
#units		real
#variable cfac equal 1.01325e-4
#variable cunits string GPa

# Define minimization parameters
variable etol equal 0.0
variable ftol equal 5.0e-10
variable maxiter equal 100000
variable maxeval equal 20000
variable dmax equal 1.0e-2


include potential.mod
# NOTE: This script can be modified for different pair styles
# See in.elastic for more info.

# Setup neighbor style
neighbor 3.0 nsq
neigh_modify once no every 1 delay 0 check yes
comm_modify cutoff 2.0

# Setup minimization style
min_style	     cg
min_modify	     dmax ${dmax} line quadratic
min_modify	     dmax 0.01 line quadratic

timestep	0.001


# Setup output
thermo		500
thermo_style custom step temp pe ebond eangle edihed press pxx pyy pzz pxy pxz pyz lx ly lz vol
thermo_modify norm no


#change_box all triclinic
comm_modify mode single cutoff 10.0 vel yes
atom_modify sort 0 0



# Compute initial state

#dump rela all atom 1 traj_relax.lmpstrj
fix 3 all box/relax x 0 y 0 # xy 0  #MS comment: relax if the network is periodic
minimize ${etol} ${ftol} ${maxiter} ${maxeval}
minimize 0 ${ftol} ${maxiter} ${maxeval}
minimize 0 5e-10 ${maxiter} ${maxeval}
minimize 0 5e-10 100000 ${maxeval}
minimize 0 5e-10 100000 20000
Neighbor list info ...
  update every 1 steps, delay 0 steps, check yes
  max neighbors/atom: 2000, page size: 100000
  master list distance cutoff = 0
  ghost atom cutoff = 10
  0 neighbor lists, perpetual/occasional/extra = 0 0 0
WARNING: Inconsistent image flags (src/domain.cpp:819)
Per MPI rank memory allocation (min/avg/max) = 8.702 | 8.702 | 8.702 Mbytes
   Step          Temp          PotEng         E_bond        E_angle        E_dihed         Press           Pxx            Pyy            Pzz            Pxy            Pxz            Pyz             Lx             Ly             Lz           Volume    
         0   0              2.6701063e-11  2.6701063e-11  0              0             -0.077619144    0.012359714   -0.167598       0             -0.061914649    0              0              9.62748        9.62748        0.2            92.688371    
       299   0              5.9838987e-19  5.9838987e-19  0              0             -1.3545688e-06 -1.1496675e-06 -1.55947e-06    0             -5.5334087e-07  0              0              9.6274705      9.6274968      0.2            92.688442    
Loop time of 0.0128057 on 1 procs for 299 steps with 42 atoms

93.6% CPU use with 1 MPI tasks x 1 OpenMP threads

Minimization stats:
  Stopping criterion = force tolerance
  Energy initial, next-to-last, final = 
    2.67010626556769e-11 6.10053649740233e-19 5.98389866042121e-19
  Force two-norm initial, final = 2.2932228e-05 4.4724189e-10
  Force max component initial, final = 9.6958018e-06 1.1878992e-10
  Final line search alpha, max atom move = 1 1.1878992e-10
  Iterations, force evaluations = 299 598

MPI task timing breakdown:
Section |  min time  |  avg time  |  max time  |%varavg| %total
---------------------------------------------------------------
Pair    | 0          | 0          | 0          |   0.0 |  0.00
Bond    | 0.0017457  | 0.0017457  | 0.0017457  |   0.0 | 13.63
Neigh   | 0          | 0          | 0          |   0.0 |  0.00
Comm    | 0.0038267  | 0.0038267  | 0.0038267  |   0.0 | 29.88
Output  | 0          | 0          | 0          |   0.0 |  0.00
Modify  | 0          | 0          | 0          |   0.0 |  0.00
Other   |            | 0.007233   |            |       | 56.49

Nlocal:             42 ave          42 max          42 min
Histogram: 1 0 0 0 0 0 0 0 0 0
Nghost:            366 ave         366 max         366 min
Histogram: 1 0 0 0 0 0 0 0 0 0
Neighs:              0 ave           0 max           0 min
Histogram: 1 0 0 0 0 0 0 0 0 0

Total # of neighbors = 0
Ave neighs/atom = 0
Ave special neighs/atom = 18.761905
Neighbor list builds = 0
Dangerous builds = 0
#dump rela all atom 1 traj_relax.lmpstrj
thermo 100
unfix 3

fix 2d all enforce2d



#dump dump0 all xyz 1000000 cfg0.xyz
#dump_modify dump0 format line "%d %20.10g %20.10g %20.10g"
#minimize ${etol} ${ftol} ${maxiter} ${maxeval}

#undump rela

#write_restart restart.equil

# These formulas define the derivatives w.r.t. strain components
# Constants uses $, variables use v_


timestep        ${dt}
timestep        0.01
variable nsteps equal round(${strainsteps})
variable nsteps equal round(50000)

fix             4 all nve
fix             5 all langevin 0.1 0.1 1 904297
#fix		6 all press/berendsen y  0.0 0.0 1 x 0.0 0.0 10
fix             6 all nph y 0.0 0.0 10 ptemp 0.1 # x 0.0 0.0 10

# For PLUMED2
# fix 22 all plumed plumedfile plumed.dat outfile plumed.out

#fix             6 all nph x 0.0 0.0 10
fix     	9 all deform 1 x erate -${srate} units box remap x
fix     	9 all deform 1 x erate -0.0001 units box remap x

#fix     8 all deform 1 xy erate ${srate} units box remap x



#fix    10 all ave/time

dump 1 all atom 250 deform_dump.lammpstrj


#To avoid flying ice cube phenomenon:
#fix 21 all momentum 100 linear 1 1 1 angular


run  ${nsteps}
run  50000
WARNING: One or more atoms are time integrated more than once (src/modify.cpp:292)
WARNING: Inconsistent image flags (src/domain.cpp:819)
Per MPI rank memory allocation (min/avg/max) = 7.577 | 7.577 | 7.577 Mbytes
   Step          Temp          PotEng         E_bond        E_angle        E_dihed         Press           Pxx            Pyy            Pzz            Pxy            Pxz            Pyz             Lx             Ly             Lz           Volume    
       299   0              5.9838987e-19  5.9838987e-19  0              0             -1.3545688e-06 -1.1496675e-06 -1.55947e-06    0             -5.5334087e-07  0              0              9.6274705      9.6274968      0.2            92.688442    
       300   0.0049854681   5.0760055e-09  5.0760055e-09  0              0              0.21386981     0.63329446    -0.34969989     0             -0.44953739     0              0              9.6274609      9.6274968      0.2            92.688349    
       400   0.25760153     0.00062527384  0.00062527384  0              0              29.521214      110.97038     -52.048716      0              333.33354      0              0              9.6264982      9.6304504      0.2            92.707513    
       500   0.22243326     0.00072090739  0.00072090739  0              0             -581.06956     -924.94157     -237.32256      0             -32.994754      0              0              9.6255354      9.6271792      0.2            92.666754    
       600   0.17454113     0.00060793397  0.00060793397  0              0             -512.30576     -788.74934     -235.98238      0              125.73771      0              0              9.6245727      9.6276023      0.2            92.661558    
       700   0.23634163     0.00056384415  0.00056384415  0              0             -38.010163      191.59437     -267.71557      0              407.06098      0              0              9.6236099      9.6272435      0.2            92.648836    
       800   0.1658447      0.00059854517  0.00059854517  0              0              63.781548      154.60062     -27.140985      0              515.52091      0              0              9.6226472      9.6197495      0.2            92.567455    
       900   0.21351892     0.00057691025  0.00057691025  0              0              394.70634      839.9655      -50.690559      0             -341.25024      0              0              9.6216844      9.6228414      0.2            92.587943    
      1000   0.21675849     0.00071611408  0.00071611408  0              0             -512.64641     -979.66348     -45.743043      0             -142.31528      0              0              9.6207217      9.6385184      0.2            92.729503    
      1100   0.19342086     0.00065300315  0.00065300315  0              0             -51.054864     -113.93729      11.699095      0             -151.37804      0              0              9.6197589      9.6425834      0.2            92.759328    
      1200   0.20822332     0.00081574587  0.00081574587  0              0              149.4555       153.29856      145.48696      0             -124.75085      0              0              9.6187962      9.6333671      0.2            92.661395    
      1300   0.14058403     0.00073770129  0.00073770129  0              0              455.10578      691.55458      218.52975      0             -667.28284      0              0              9.6178334      9.6358303      0.2            92.675811    
      1400   0.18328453     0.00068448574  0.00068448574  0              0             -74.094939     -513.39639      365.11087      0             -794.36069      0              0              9.6168707      9.6429295      0.2            92.734806    
      1500   0.26466852     0.00063078282  0.00063078282  0              0             -264.34081     -1062.0274      533.22659      0             -435.52011      0              0              9.6159079      9.6377937      0.2            92.676137    
      1600   0.16736474     0.00083101344  0.00083101344  0              0             -71.735846     -567.75179      424.13929      0             -582.36421      0              0              9.6149452      9.6366932      0.2            92.656277    
      1700   0.22433051     0.00074343492  0.00074343492  0              0             -54.929835     -494.33793      384.35091      0             -382.5432       0              0              9.6139825      9.6248264      0.2            92.532912    
      1800   0.21377474     0.00067088989  0.00067088989  0              0             -113.71273     -431.44317      203.9017       0              372.57329      0              0              9.6130197      9.6294712      0.2            92.568297    
      1900   0.14498338     0.00068479825  0.00068479825  0              0              59.79276       233.11872     -113.64316      0              151.14625      0              0              9.612057       9.6302386      0.2            92.566402    
      2000   0.20916564     0.00071081562  0.00071081562  0              0             -234.72089     -132.09574     -337.49955      0              164.88862      0              0              9.6110942      9.6334103      0.2            92.587614    
      2100   0.23488545     0.00066656273  0.00066656273  0              0             -357.58043     -92.982013     -622.26568      0             -400.8185       0              0              9.6101315      9.6309338      0.2            92.55454     
      2200   0.24595178     0.00066663321  0.00066663321  0              0             -835.09423     -773.03823     -897.28122      0             -111.44606      0              0              9.6091687      9.6195814      0.2            92.43618     
      2300   0.17387419     0.00071313109  0.00071313109  0              0              93.166614      1264.2206     -1078.0356      0              90.792935      0              0              9.608206       9.6138657      0.2            92.372001    
      2400   0.16195765     0.00051443383  0.00051443383  0              0             -551.82056      71.261865     -1175.0347      0              23.987404      0              0              9.6072432      9.6211382      0.2            92.432614    
      2500   0.2241161      0.00052411493  0.00052411493  0              0             -218.31535      544.18121     -980.93941      0             -134.04123      0              0              9.6062805      9.6344513      0.2            92.551242    
      2600   0.16930811     0.00076579391  0.00076579391  0              0             -67.391167      490.58718     -625.55547      0              240.8182       0              0              9.6053177      9.6295841      0.2            92.495215    
      2700   0.23783385     0.00063855731  0.00063855731  0              0              343.60225      721.2109      -34.158502      0             -594.57841      0              0              9.604355       9.6179953      0.2            92.374641    
      2800   0.2512274      0.00070721834  0.00070721834  0              0              693.1043       896.46008      489.61235      0              269.03993      0              0              9.6033922      9.6192594      0.2            92.377521    
      2900   0.2329769      0.00079756932  0.00079756932  0              0              505.40308      40.71147       969.98361      0              493.79289      0              0              9.6024295      9.6198814      0.2            92.374233    
      3000   0.16560579     0.0008384809   0.0008384809   0              0              1127.996       1211.9551      1043.883       0             -60.087037      0              0              9.6014667      9.6216138      0.2            92.381604    
      3100   0.24069185     0.00072266358  0.00072266358  0              0              750.62826      494.72386      1006.4022      0              450.28786      0              0              9.600504       9.6239625      0.2            92.39489     
      3200   0.25930283     0.00062829119  0.00062829119  0              0              259.46343     -252.72716      771.53127      0             -49.689494      0              0              9.5995412      9.6318869      0.2            92.461696    
      3300   0.20826663     0.0007741869   0.0007741869   0              0              499.72632      489.86053      509.47628      0             -415.62938      0              0              9.5985785      9.6278993      0.2            92.414147    
      3400   0.18311892     0.00080671161  0.00080671161  0              0              256.95131      272.64844      241.14617      0              39.446436      0              0              9.5976158      9.6233973      0.2            92.36167     
      3500   0.22232181     0.00068517062  0.00068517062  0              0             -293.61393     -426.66779     -160.68384      0             -734.54176      0              0              9.596653       9.6301129      0.2            92.416852    
      3600   0.25616048     0.00056563617  0.00056563617  0              0             -181.97914      22.999946     -387.05039      0             -261.10571      0              0              9.5956903      9.6325125      0.2            92.430606    
      3700   0.21637002     0.00092867549  0.00092867549  0              0             -497.56828     -247.79212     -747.48647      0             -332.46759      0              0              9.5947275      9.639437       0.2            92.487771    
      3800   0.21324454     0.00089609978  0.00089609978  0              0             -837.56295     -672.85861     -1002.3891      0              37.805746      0              0              9.5937648      9.6406574      0.2            92.490199    
      3900   0.22422108     0.00077807535  0.00077807535  0              0             -444.64398      152.31716     -1041.717       0             -737.47856      0              0              9.592802       9.6319541      0.2            92.397428    
      4000   0.19757568     0.00081921735  0.00081921735  0              0             -174.71353      508.38059     -857.93828      0             -189.57739      0              0              9.5918393      9.6222438      0.2            92.295016    
      4100   0.22264823     0.00086484658  0.00086484658  0              0              245.93393      897.02451     -405.2992       0             -22.434142      0              0              9.5908765      9.6261647      0.2            92.323357    
      4200   0.21650296     0.00060662814  0.00060662814  0              0             -70.12044      -45.561161     -94.797521      0             -386.29794      0              0              9.5899138      9.6245516      0.2            92.29862     
      4300   0.19237929     0.0008126048   0.0008126048   0              0              621.41543      937.02139      305.68098      0              101.86643      0              0              9.588951       9.6229693      0.2            92.274182    
      4400   0.26055977     0.00058006485  0.00058006485  0              0              481.03085      551.4886       410.45163      0             -110.21413      0              0              9.5879883      9.6281963      0.2            92.315034    
      4500   0.21384279     0.00056485593  0.00056485593  0              0              568.88696      565.52196      572.13685      0             -366.29605      0              0              9.5870255      9.6264994      0.2            92.289496    
      4600   0.18940733     0.00065935196  0.00065935196  0              0              890.26809      1228.6973      551.72598      0             -566.99186      0              0              9.5860628      9.6360854      0.2            92.37212     
      4700   0.15354489     0.00076072484  0.00076072484  0              0              466.33637      511.08753      421.49437      0             -151.38372      0              0              9.5851         9.6308159      0.2            92.312333    
      4800   0.26093527     0.00059098833  0.00059098833  0              0              387.56471      698.9755       75.997754      0              7.8597457      0              0              9.5841373      9.6263314      0.2            92.260082    
      4900   0.16833507     0.00066674865  0.00066674865  0              0              207.06449      473.93837     -59.914607      0             -289.45986      0              0              9.5831745      9.6286812      0.2            92.273332    
      5000   0.20671274     0.00063820652  0.00063820652  0              0              493.85412      1179.8692     -192.29323      0              330.11062      0              0              9.5822118      9.6433268      0.2            92.4044      
      5100   0.18313841     0.00063757282  0.00063757282  0              0              102.2081       529.29181     -324.98947      0             -130.70382      0              0              9.5812491      9.6370005      0.2            92.334501    
      5200   0.17456589     0.00067609177  0.00067609177  0              0             -78.148853      290.94195     -447.3598       0             -392.17371      0              0              9.5802863      9.6444317      0.2            92.396417    
      5300   0.16640026     0.00055477491  0.00055477491  0              0              217.23955      778.65862     -344.28208      0              419.50333      0              0              9.5793236      9.6354258      0.2            92.300862    
      5400   0.20674134     0.00063011031  0.00063011031  0              0              124.37832      238.58112      10.050565      0              13.118047      0              0              9.5783608      9.6399255      0.2            92.334685    
      5500   0.20834338     0.00062262982  0.00062262982  0              0              689.78371      1005.8299      373.62468      0             -139.87196      0              0              9.5773981      9.6492485      0.2            92.414694    
      5600   0.17546458     0.00067010709  0.00067010709  0              0              474.48642      566.25133      382.58605      0             -1045.601       0              0              9.5764353      9.6563075      0.2            92.473004    
      5700   0.22097732     0.00072723044  0.00072723044  0              0              602.97511      832.53949      373.34316      0             -502.32722      0              0              9.5754726      9.6523424      0.2            92.42574     
      5800   0.19219143     0.00074078263  0.00074078263  0              0              355.7471       507.3577       204.01859      0              829.32283      0              0              9.5745098      9.638818       0.2            92.286958    
      5900   0.22474009     0.00052067343  0.00052067343  0              0              8.3845263      63.066303     -46.413369      0             -200.73422      0              0              9.5735471      9.6519922      0.2            92.403802    
      6000   0.16308387     0.0008207675   0.0008207675   0              0              208.04133      545.65297     -129.67015      0              466.75322      0              0              9.5725843      9.6410544      0.2            92.289806    
      6100   0.18168456     0.00089942925  0.00089942925  0              0             -37.443565      151.68182     -226.69445      0              381.62609      0              0              9.5716216      9.6613989      0.2            92.475254    
      6200   0.18700369     0.0007048101   0.0007048101   0              0              229.93452      850.24054     -390.49643      0              51.944722      0              0              9.5706588      9.6557448      0.2            92.411839    
      6300   0.23000071     0.00069396657  0.00069396657  0              0              218.9723       784.51045     -346.69225      0              222.66151      0              0              9.5696961      9.6405055      0.2            92.256707    
      6400   0.19341655     0.00063669868  0.00063669868  0              0              420.00651      1077.1015     -237.21251      0              303.58012      0              0              9.5687333      9.6458413      0.2            92.298483    
      6500   0.21711841     0.00072603306  0.00072603306  0              0             -35.300111     -98.134325      27.415516      0             -380.98254      0              0              9.5677706      9.6521034      0.2            92.349111    
      6600   0.16173609     0.00069672279  0.00069672279  0              0              597.4099       844.64927      350.04719      0              408.9414       0              0              9.5668078      9.6368707      0.2            92.19409     
      6700   0.23118883     0.00077043496  0.00077043496  0              0              324.18108      169.69241      478.5606       0             -409.85991      0              0              9.5658451      9.6306546      0.2            92.12535     
      6800   0.23975875     0.00069636568  0.00069636568  0              0             -122.34403     -542.25884      297.44086      0              104.95273      0              0              9.5648824      9.6242288      0.2            92.054617    
      6900   0.20342535     0.00055018754  0.00055018754  0              0              314.07755      550.10713      77.94721       0             -181.73272      0              0              9.5639196      9.6066969      0.2            91.877677    
      7000   0.2318578      0.00044925652  0.00044925652  0              0              129.02149      379.87043     -121.95         0              356.28431      0              0              9.5629569      9.6123721      0.2            91.9227      
      7100   0.15962472     0.00045863964  0.00045863964  0              0             -395.96714     -307.39609     -484.69061      0              89.570933      0              0              9.5619941      9.6172619      0.2            91.960202    
      7200   0.2299254      0.0008691168   0.0008691168   0              0             -542.19014     -213.18498     -871.35889      0             -52.744332      0              0              9.5610314      9.6240742      0.2            92.016075    
      7300   0.21867647     0.00080869313  0.00080869313  0              0             -437.34629     -35.965945     -838.83288      0             -570.25654      0              0              9.5600686      9.6209639      0.2            91.977075    
      7400   0.20011021     0.00070653879  0.00070653879  0              0             -559.42699     -484.86509     -634.10277      0              6.6801246      0              0              9.5591059      9.6100713      0.2            91.863689    
      7500   0.17258036     0.00066981389  0.00066981389  0              0             -627.18019     -1155.5594     -98.92691       0              25.370634      0              0              9.5581431      9.6134902      0.2            91.887115    
      7600   0.20210584     0.00066589691  0.00066589691  0              0              748.06062      859.9145       636.04191      0             -284.4624       0              0              9.5571804      9.6179829      0.2            91.920798    
      7700   0.28870996     0.00061547966  0.00061547966  0              0              840.36442      475.25815      1205.3305      0              460.45609      0              0              9.5562176      9.6063454      0.2            91.800328    
      7800   0.22464388     0.00075294252  0.00075294252  0              0              773.6637       52.639169      1494.5821      0              1051.5778      0              0              9.5552549      9.6073383      0.2            91.800566    
      7900   0.27809802     0.00063822162  0.00063822162  0              0              510.82329     -31.022491      1052.5498      0              604.55239      0              0              9.5542921      9.6108257      0.2            91.824637    
      8000   0.19470389     0.00073514835  0.00073514835  0              0              540.37443      707.90112      372.72678      0              458.48574      0              0              9.5533294      9.616068       0.2            91.865465    
      8100   0.15033172     0.00062396531  0.00062396531  0              0             -207.03359      176.03232     -590.24263      0             -78.175464      0              0              9.5523666      9.6146706      0.2            91.842859    
      8200   0.15572628     0.00064565419  0.00064565419  0              0             -365.16247      444.17618     -1174.6036      0              179.95168      0              0              9.5514039      9.6267906      0.2            91.949366    
      8300   0.27488323     0.00059009957  0.00059009957  0              0             -375.65385      572.98852     -1324.4184      0              171.76406      0              0              9.5504411      9.6242766      0.2            91.916087    
      8400   0.19475929     0.00072340217  0.00072340217  0              0             -50.43572       737.82223     -838.81502      0             -220.67906      0              0              9.5494784      9.6321646      0.2            91.982148    
      8500   0.17686024     0.0006435881   0.0006435881   0              0              639.27926      1435.4883     -157.06129      0              382.04313      0              0              9.5485157      9.619722       0.2            91.854066    
      8600   0.21886172     0.00062679773  0.00062679773  0              0              1085.951       1742.4652      429.31109      0              99.166549      0              0              9.5475529      9.6323226      0.2            91.96511     
      8700   0.20081415     0.00082270048  0.00082270048  0              0              1192.6161      1715.0545      670.06783      0             -260.06076      0              0              9.5465902      9.6383035      0.2            92.012933    
      8800   0.16916887     0.00051295399  0.00051295399  0              0              1155.5502      1573.9481      737.05723      0             -43.690084      0              0              9.5456274      9.640929       0.2            92.028716    
      8900   0.24208912     0.00062778013  0.00062778013  0              0              1014.1191      1443.9458      584.18968      0              227.90815      0              0              9.5446647      9.631813       0.2            91.932425    
      9000   0.17798131     0.00069361805  0.00069361805  0              0              306.12218      514.64221      97.481014      0             -205.23911      0              0              9.5437019      9.6348101      0.2            91.951756    
      9100   0.1950161      0.00059659808  0.00059659808  0              0             -59.923673      243.03593     -363.03445      0              282.63849      0              0              9.5427392      9.6332143      0.2            91.927252    
      9200   0.19892835     0.00061976244  0.00061976244  0              0             -4.1234386      640.98074     -649.3845       0              245.61878      0              0              9.5417764      9.6389899      0.2            91.973086    
      9300   0.20269325     0.00072933685  0.00072933685  0              0              300.9224       1209.3089     -607.60655      0              266.83277      0              0              9.5408137      9.6266044      0.2            91.845639    
      9400   0.22228814     0.00092489372  0.00092489372  0              0             -16.854259      332.89349     -366.72867      0              458.11412      0              0              9.5398509      9.635879       0.2            91.92485     
      9500   0.22918201     0.0010029821   0.0010029821   0              0              366.60884      661.77278      71.324142      0              298.19071      0              0              9.5388882      9.6344811      0.2            91.902238    
      9600   0.17721083     0.00077405741  0.00077405741  0              0              612.71015      787.56921      437.71904      0              844.43998      0              0              9.5379254      9.6323074      0.2            91.87223     
      9700   0.18810709     0.00085433612  0.00085433612  0              0              1084.4187      1520.847       647.86086      0              520.87815      0              0              9.5369627      9.638943       0.2            91.926239    
      9800   0.22675088     0.00092491265  0.00092491265  0              0              659.69924      664.00812      655.26345      0              165.38944      0              0              9.5359999      9.6477185      0.2            92.000643    
      9900   0.14861696     0.00072631849  0.00072631849  0              0              719.72717      1103.3195      335.98486      0              279.26337      0              0              9.5350372      9.6562442      0.2            92.072647    
     10000   0.18036262     0.00077956086  0.00077956086  0              0              380.15707      1092.4251     -332.21761      0              454.79087      0              0              9.5340744      9.6515427      0.2            92.018527    
     10100   0.19593723     0.00071315975  0.00071315975  0              0              279.54543      1072.9488     -513.97538      0              401.1863       0              0              9.5331117      9.6609044      0.2            92.09848     
     10200   0.15438441     0.00077641947  0.00077641947  0              0             -269.78203      139.78435     -679.48792      0              610.39442      0              0              9.532149       9.6637883      0.2            92.116669    
     10300   0.19988689     0.00056836977  0.00056836977  0              0             -45.214183      448.69161     -539.2549       0              231.05868      0              0              9.5311862      9.6617411      0.2            92.087853    
     10400   0.16950964     0.00075244792  0.00075244792  0              0             -226.8994      -183.9375      -269.95934      0              357.31014      0              0              9.5302235      9.6554483      0.2            92.01858     
     10500   0.24050581     0.00065513927  0.00065513927  0              0              135.69192      123.86528      147.42597      0              156.44555      0              0              9.5292607      9.6434611      0.2            91.895055    
     10600   0.19458691     0.00075412217  0.00075412217  0              0              168.33645     -5.8144493      342.37351      0              468.80287      0              0              9.528298       9.642774       0.2            91.879224    
     10700   0.21966367     0.00076699497  0.00076699497  0              0              717.93766      772.68247      663.0795       0              325.9324       0              0              9.5273352      9.62364        0.2            91.687644    
     10800   0.20519724     0.00071286033  0.00071286033  0              0              856.89762      952.99055      760.64259      0              192.15231      0              0              9.5263725      9.6173376      0.2            91.61834     
     10900   0.219637       0.00073768171  0.00073768171  0              0              889.50009      1154.1011      624.80881      0              188.62821      0              0              9.5254097      9.6367832      0.2            91.794308    
     11000   0.16873721     0.00075951839  0.00075951839  0              0              877.14155      1416.678       337.47684      0              762.20223      0              0              9.524447       9.6426605      0.2            91.841008    
     11100   0.2058414      0.00066038318  0.00066038318  0              0              732.69702      1450.1794      15.101061      0              569.25434      0              0              9.5234842      9.6473205      0.2            91.876105    
     11200   0.1774162      0.00065568729  0.00065568729  0              0              157.92718      563.74656     -248.01529      0             -437.16575      0              0              9.5225215      9.6568276      0.2            91.957348    
     11300   0.22284183     0.00073416876  0.00073416876  0              0             -561.82403     -533.61537     -590.14819      0             -432.1487       0              0              9.5215587      9.6665866      0.2            92.040972    
     11400   0.24054845     0.00084117578  0.00084117578  0              0              24.80285       710.68907     -661.18212      0             -187.03972      0              0              9.520596       9.6655298      0.2            92.021604    
     11500   0.20191113     0.00075707953  0.00075707953  0              0              292.70673      1056.6572     -471.3638       0             -168.25723      0              0              9.5196332      9.6593015      0.2            91.953007    
     11600   0.19760614     0.00065870953  0.00065870953  0              0              273.39384      899.89834     -353.23601      0             -109.01324      0              0              9.5186705      9.6795206      0.2            92.136167    
     11700   0.21454266     0.00060603403  0.00060603403  0              0              333.36823      698.66034     -32.050964      0             -277.97452      0              0              9.5177077      9.670135       0.2            92.037518    
     11800   0.21489715     0.00082618256  0.00082618256  0              0              761.05275      1118.5085      403.48292      0             -14.429491      0              0              9.516745       9.6527542      0.2            91.8628      
     11900   0.24056994     0.00083758178  0.00083758178  0              0              888.56488      1305.0579      471.931        0              102.58972      0              0              9.5157823      9.6501432      0.2            91.828661    
     12000   0.21326852     0.000919229    0.000919229    0              0              692.29305      835.93747      548.52899      0             -470.18324      0              0              9.5148195      9.63071        0.2            91.634467    
     12100   0.19387524     0.00066392695  0.00066392695  0              0              731.89394      1165.1267      298.54925      0             -352.21939      0              0              9.5138568      9.6380547      0.2            91.695072    
     12200   0.23795492     0.00076894159  0.00076894159  0              0              307.30017      781.49461     -167.01589      0             -84.199176      0              0              9.512894       9.6367132      0.2            91.673031    
     12300   0.19656397     0.0010628756   0.0010628756   0              0             -106.40298      237.9002      -450.84028      0             -665.06819      0              0              9.5119313      9.6326855      0.2            91.625443    
     12400   0.18791664     0.00057481942  0.00057481942  0              0              109.28385      658.60627     -440.15913      0             -307.02441      0              0              9.5109685      9.6174101      0.2            91.470885    
     12500   0.19114449     0.00076068084  0.00076068084  0              0             -113.96         110.9809      -339.02453      0             -268.33254      0              0              9.5100058      9.6133061      0.2            91.422597    
     12600   0.20584398     0.00093909418  0.00093909418  0              0              338.10429      740.82268     -64.720236      0             -380.80678      0              0              9.509043       9.6197175      0.2            91.474307    
     12700   0.22354374     0.00060084591  0.00060084591  0              0              546.87603      929.58694      164.0394       0             -757.42189      0              0              9.5080803      9.6302725      0.2            91.565404    
     12800   0.20890656     0.00079274038  0.00079274038  0              0              662.68418      1041.7495      283.51886      0              174.56422      0              0              9.5071175      9.6208357      0.2            91.466415    
     12900   0.18744871     0.00069117384  0.00069117384  0              0              622.06369      996.43735      247.53441      0             -271.0722       0              0              9.5061548      9.6204648      0.2            91.453627    
     13000   0.21290526     0.0010116621   0.0010116621   0              0              343.52873      741.11211     -54.175551      0             -151.41966      0              0              9.505192       9.6360086      0.2            91.592112    
     13100   0.25504279     0.00068469425  0.00068469425  0              0              168.61947      653.88482     -316.78475      0              359.10033      0              0              9.5042293      9.6289213      0.2            91.515476    
     13200   0.21801055     0.00083098903  0.00083098903  0              0              21.241002      437.57561     -395.22718      0              272.72015      0              0              9.5032665      9.6369297      0.2            91.582312    
     13300   0.17725994     0.00063139436  0.00063139436  0              0              247.25562      753.82582     -259.43636      0              328.17396      0              0              9.5023038      9.6336463      0.2            91.541833    
     13400   0.22265472     0.00085985544  0.00085985544  0              0              857.43188      1743.4826     -28.724201      0              131.09563      0              0              9.501341       9.6300343      0.2            91.498241    
     13500   0.14656656     0.00086326826  0.00086326826  0              0              847.97061      1540.9211      154.87705      0              255.00228      0              0              9.5003783      9.6325087      0.2            91.512476    
     13600   0.20938227     0.00087006045  0.00087006045  0              0              1197.1704      2109.8822      284.33119      0              188.92137      0              0              9.4994156      9.6266497      0.2            91.447546    
     13700   0.16818088     0.00074405071  0.00074405071  0              0              875.38476      1442.6976      307.94389      0             -304.42541      0              0              9.4984528      9.6370859      0.2            91.537406    
     13800   0.16700944     0.0006438368   0.0006438368   0              0              965.08177      1706.9879      223.06916      0             -5.95781        0              0              9.4974901      9.6268395      0.2            91.430812    
     13900   0.21963777     0.00070319339  0.00070319339  0              0              602.71081      1022.9217      182.36058      0              323.40845      0              0              9.4965273      9.6202406      0.2            91.358878    
     14000   0.15628965     0.00068431751  0.00068431751  0              0              476.9011       998.29065     -44.637057      0             -162.20047      0              0              9.4955646      9.6143046      0.2            91.29325     
     14100   0.20197492     0.00077022555  0.00077022555  0              0             -283.75852     -314.36648     -253.25098      0              431.34557      0              0              9.4946018      9.6141768      0.2            91.28278     
     14200   0.21280406     0.00068966515  0.00068966515  0              0             -109.97946      133.95412     -354.02445      0              655.56693      0              0              9.4936391      9.6091175      0.2            91.225493    
     14300   0.13881938     0.00071364883  0.00071364883  0              0             -285.5227      -317.13288     -254.05049      0              566.21276      0              0              9.4926763      9.613144       0.2            91.254464    
     14400   0.26622319     0.00064737401  0.00064737401  0              0             -99.828268     -5.1738214     -194.62549      0              147.15476      0              0              9.4917136      9.6190048      0.2            91.300839    
     14500   0.25628899     0.00062975156  0.00062975156  0              0             -212.12428     -381.17776     -43.175986      0             -633.03986      0              0              9.4907508      9.6103914      0.2            91.209831    
     14600   0.2015655      0.00071198521  0.00071198521  0              0              230.61047      444.73341      16.383905      0             -21.846147      0              0              9.4897881      9.6076943      0.2            91.174983    
     14700   0.25236402     0.00084790441  0.00084790441  0              0              100.2404       42.280026      158.09373      0             -317.77161      0              0              9.4888253      9.6068054      0.2            91.157298    
     14800   0.2157997      0.00079370532  0.00079370532  0              0              635.60053      1071.3113      199.76268      0              577.43516      0              0              9.4878626      9.6074385      0.2            91.154056    
     14900   0.23276214     0.0005974113   0.0005974113   0              0              102.05464     -28.345047      232.34272      0              247.11136      0              0              9.4868998      9.6115672      0.2            91.183976    
     15000   0.17862831     0.00070584869  0.00070584869  0              0              1052.0138      1936.1459      167.72316      0              37.470722      0              0              9.4859371      9.6087975      0.2            91.148449    
     15100   0.17917361     0.00062959385  0.00062959385  0              0              73.717048      110.53612      36.760193      0              544.49175      0              0              9.4849743      9.6021738      0.2            91.076372    
     15200   0.16476109     0.00056758958  0.00056758958  0              0             -158.7058      -187.41064     -130.12449      0              596.8829       0              0              9.4840116      9.6039517      0.2            91.08399     
     15300   0.16425508     0.00068174463  0.00068174463  0              0             -606.86855     -966.98575     -246.87601      0              219.34978      0              0              9.4830489      9.6123908      0.2            91.154772    
     15400   0.15674448     0.00052765302  0.00052765302  0              0              47.899816      113.45946     -17.799448      0              655.05696      0              0              9.4820861      9.6209469      0.2            91.226647    
     15500   0.2452546      0.0006354473   0.0006354473   0              0              795.47264      1342.9323      247.885        0              136.15939      0              0              9.4811234      9.6090399      0.2            91.104492    
     15600   0.23786543     0.00066241331  0.00066241331  0              0             -123.3237      -417.12888      170.35081      0              424.79082      0              0              9.4801606      9.6135865      0.2            91.138344    
     15700   0.24237154     0.00056690912  0.00056690912  0              0              475.69289      832.23289      119.00781      0             -16.361638      0              0              9.4791979      9.6242187      0.2            91.229874    
     15800   0.20563307     0.00054032631  0.00054032631  0              0              101.25979      306.75902     -104.38225      0              34.69718       0              0              9.4782351      9.6327887      0.2            91.301836    
     15900   0.23194372     0.00056867045  0.00056867045  0              0             -126.53054      134.40165     -387.58328      0              252.65026      0              0              9.4772724      9.6403694      0.2            91.364407    
     16000   0.17300143     0.00069778578  0.00069778578  0              0             -236.45182     -102.19841     -370.85615      0             -25.442487      0              0              9.4763096      9.6390261      0.2            91.342396    
     16100   0.25772475     0.00063498901  0.00063498901  0              0              371.55575      987.37252     -244.3963       0              117.26464      0              0              9.4753469      9.635863       0.2            91.303144    
     16200   0.20302523     0.00069961384  0.00069961384  0              0              368.75888      665.55858      71.820949      0             -175.77028      0              0              9.4743841      9.6365754      0.2            91.300617    
     16300   0.14635526     0.00074090144  0.00074090144  0              0              831.58148      1497.2384      165.79869      0             -305.74828      0              0              9.4734214      9.6415321      0.2            91.338296    
     16400   0.19525553     0.0006522792   0.0006522792   0              0              513.50641      862.59211      164.29         0             -415.09761      0              0              9.4724586      9.6383594      0.2            91.298961    
     16500   0.16733465     0.00071552526  0.00071552526  0              0              1058.7948      1987.5022      129.9494       0              300.26222      0              0              9.4714959      9.6270549      0.2            91.18261     
     16600   0.18947588     0.00072424764  0.00072424764  0              0              616.76392      1229.7597      3.625174       0              376.77025      0              0              9.4705331      9.6137627      0.2            91.047459    
     16700   0.24543436     0.00064355184  0.00064355184  0              0              323.45216      806.23939     -159.46793      0              216.5938       0              0              9.4695704      9.6145346      0.2            91.045512    
     16800   0.23904812     0.00083935178  0.00083935178  0              0              479.13693      1200.5345     -242.39207      0              152.62175      0              0              9.4686076      9.6188508      0.2            91.077125    
     16900   0.15275385     0.00063771247  0.00063771247  0              0             -221.77511     -140.07539     -303.6006       0             -365.45372      0              0              9.4676449      9.6191532      0.2            91.070727    
     17000   0.18581809     0.00049575524  0.00049575524  0              0              550.67314      1114.1141     -12.896175      0              315.41004      0              0              9.4666822      9.6182173      0.2            91.052606    
     17100   0.17207449     0.00057978852  0.00057978852  0              0              839.08847      1331.3473      346.71199      0             -246.89305      0              0              9.4657194      9.6200951      0.2            91.061121    
     17200   0.18460673     0.00080791544  0.00080791544  0              0              740.64353      1064.5913      416.56309      0             -27.964765      0              0              9.4647567      9.6097458      0.2            90.953906    
     17300   0.17699095     0.00064202997  0.00064202997  0              0              482.75371      979.99659     -14.579781      0              338.44015      0              0              9.4637939      9.6060694      0.2            90.909861    
     17400   0.2295581      0.00059350261  0.00059350261  0              0              441.91734      1270.7837     -387.10337      0              174.56666      0              0              9.4628312      9.6018402      0.2            90.860593    
     17500   0.16176634     0.00071731221  0.00071731221  0              0              103.9613       716.08408     -508.32897      0              297.57269      0              0              9.4618684      9.594187       0.2            90.778935    
     17600   0.14964428     0.00054763867  0.00054763867  0              0             -22.651652      416.26816     -461.69533      0              382.5706       0              0              9.4609057      9.5955228      0.2            90.782336    
     17700   0.22085337     0.00071424934  0.00071424934  0              0              74.032198      279.4524      -131.52536      0              3.7018215      0              0              9.4599429      9.6051221      0.2            90.863907    
     17800   0.15690988     0.00071307349  0.00071307349  0              0              376.57294      481.98827      271.03522      0              433.4076       0              0              9.4589802      9.6055481      0.2            90.858689    
     17900   0.20124604     0.00053202769  0.00053202769  0              0              811.15836      1220.3031      401.89479      0              256.75936      0              0              9.4580174      9.6177603      0.2            90.964945    
     18000   0.2216606      0.00058066878  0.00058066878  0              0              619.28171      847.35193      391.10093      0             -350.02709      0              0              9.4570547      9.623098       0.2            91.006164    
     18100   0.20833454     0.00060773891  0.00060773891  0              0              174.67026      246.79331      102.43076      0             -48.274285      0              0              9.4560919      9.6284553      0.2            91.047558    
     18200   0.25202947     0.00063140532  0.00063140532  0              0              334.30022      919.85197     -251.40644      0              393.99595      0              0              9.4551292      9.6220826      0.2            90.978034    
     18300   0.22449408     0.00057135397  0.00057135397  0              0             -197.04933      109.78425     -504.01511      0             -299.83429      0              0              9.4541664      9.6084034      0.2            90.839445    
     18400   0.17970611     0.00090009214  0.00090009214  0              0             -98.569183      64.772552     -262.00966      0             -79.76535       0              0              9.4532037      9.6128316      0.2            90.872055    
     18500   0.25886236     0.00064229603  0.00064229603  0              0              19.657411      27.394752      11.79082       0             -490.30634      0              0              9.4522409      9.5995056      0.2            90.73684     
     18600   0.22408762     0.00054665753  0.00054665753  0              0              341.35567      221.07704      461.49141      0             -55.985124      0              0              9.4512782      9.6055064      0.2            90.784313    
     18700   0.17293306     0.00076647392  0.00076647392  0              0              427.67543      131.80081      723.38003      0              385.30078      0              0              9.4503155      9.5883824      0.2            90.613239    
     18800   0.21766593     0.00068004051  0.00068004051  0              0              589.61217      571.29819      607.80141      0              144.53163      0              0              9.4493527      9.5960905      0.2            90.676844    
     18900   0.16608538     0.00079342705  0.00079342705  0              0              317.63419      605.3011       29.813899      0              385.7216       0              0              9.44839        9.5954956      0.2            90.661984    
     19000   0.20139435     0.00078573861  0.00078573861  0              0             -540.20564     -540.32444     -540.21224      0             -30.067096      0              0              9.4474272      9.6031923      0.2            90.72546     
     19100   0.2785292      0.00067960529  0.00067960529  0              0             -570.67356     -238.60266     -902.86036      0             -212.32235      0              0              9.4464645      9.5989483      0.2            90.676124    
     19200   0.2105871      0.00064458006  0.00064458006  0              0             -666.10089     -623.75433     -708.55063      0             -423.5005       0              0              9.4455017      9.6070891      0.2            90.743777    
     19300   0.2162083      0.00056453541  0.00056453541  0              0             -92.823135     -186.67302      0.89690696     0             -274.70448      0              0              9.444539       9.6156179      0.2            90.815078    
     19400   0.23898622     0.00048003058  0.00048003058  0              0              436.47621      245.30928      627.50893      0              496.48779      0              0              9.4435762      9.6054711      0.2            90.709998    
     19500   0.22204691     0.00068574623  0.00068574623  0              0              271.78887     -240.37314      783.78244      0             -202.06542      0              0              9.4426135      9.6012863      0.2            90.661235    
     19600   0.23725424     0.0007233486   0.0007233486   0              0              260.56948      168.28415      352.7569       0              561.72855      0              0              9.4416507      9.6056663      0.2            90.693347    
     19700   0.1828883      0.00056083212  0.00056083212  0              0             -126.18646      217.89307     -470.37675      0              192.30437      0              0              9.440688       9.6006394      0.2            90.636641    
     19800   0.2252528      0.00065278498  0.00065278498  0              0             -870.78688     -973.94914     -767.74938      0              260.25419      0              0              9.4397252      9.5997204      0.2            90.618723    
     19900   0.21319684     0.00081554176  0.00081554176  0              0             -609.20953     -479.07128     -739.46054      0             -72.462677      0              0              9.4387625      9.6144624      0.2            90.748627    
     20000   0.2563708      0.00070495988  0.00070495988  0              0             -727.54673     -1222.5688     -232.66025      0             -277.36889      0              0              9.4377997      9.6285313      0.2            90.87215     
     20100   0.25141557     0.00062409637  0.00062409637  0              0              700.3907       936.99272      463.65161      0              143.03039      0              0              9.436837       9.6251923      0.2            90.83137     
     20200   0.17795928     0.00063865168  0.00063865168  0              0              679.36391      610.03328      748.58885      0              421.64559      0              0              9.4358742      9.6401485      0.2            90.963229    
     20300   0.2160025      0.00077465871  0.00077465871  0              0              429.64213      380.86808      478.31049      0              43.538536      0              0              9.4349115      9.6220785      0.2            90.783459    
     20400   0.15388446     0.00086730866  0.00086730866  0              0             -26.504684      120.08623     -173.20543      0              117.04304      0              0              9.4339488      9.626734       0.2            90.818115    
     20500   0.22265913     0.00082443163  0.00082443163  0              0             -597.81328     -263.55038     -932.21606      0              459.18569      0              0              9.432986       9.6242361      0.2            90.785284    
     20600   0.24553597     0.0005810976   0.0005810976   0              0             -697.64041     -469.53496     -925.88679      0              520.87256      0              0              9.4320233      9.6317798      0.2            90.847171    
     20700   0.22903075     0.00074569715  0.00074569715  0              0             -51.914227      235.28258     -339.2381       0             -171.1839       0              0              9.4310605      9.6324252      0.2            90.843985    
     20800   0.21305409     0.00076307554  0.00076307554  0              0              395.59893      284.49769      506.58881      0              251.38655      0              0              9.4300978      9.618787       0.2            90.706102    
     20900   0.175831       0.00068648398  0.00068648398  0              0              529.36291      128.69301      929.89858      0              435.84887      0              0              9.429135       9.6081573      0.2            90.596612    
     21000   0.18501226     0.00091045765  0.00091045765  0              0              328.45258     -193.60527      850.41016      0              272.12277      0              0              9.4281723      9.6317145      0.2            90.809464    
     21100   0.28648807     0.00060475925  0.00060475925  0              0              505.51816      727.42885      283.46717      0             -26.476903      0              0              9.4272095      9.6313056      0.2            90.796336    
     21200   0.18011072     0.00077915913  0.00077915913  0              0             -215.1694      -40.663204     -389.79423      0             -338.08176      0              0              9.4262468      9.6385522      0.2            90.855372    
     21300   0.23313249     0.00061153363  0.00061153363  0              0             -396.80666     -97.203848     -696.50365      0              173.64708      0              0              9.425284       9.6472041      0.2            90.927639    
     21400   0.15908067     0.0005832795   0.0005832795   0              0             -42.97539       406.70572     -492.78051      0              252.91792      0              0              9.4243213      9.6373489      0.2            90.825472    
     21500   0.1749355      0.00050709693  0.00050709693  0              0              506.10195      1057.1004     -45.020146      0              469.48719      0              0              9.4233585      9.6445293      0.2            90.883857    
     21600   0.21200528     0.00052276184  0.00052276184  0              0              542.87367      663.28818      422.29804      0              339.57812      0              0              9.4223958      9.6468133      0.2            90.896093    
     21700   0.18249797     0.00067290551  0.00067290551  0              0              826.28575      1237.1783      415.2986       0             -264.06353      0              0              9.421433       9.6513789      0.2            90.92982     
     21800   0.24663403     0.00079077866  0.00079077866  0              0              428.62635      816.01179      41.104884      0              843.44071      0              0              9.4204703      9.6543266      0.2            90.948297    
     21900   0.1986         0.00057368984  0.00057368984  0              0              435.71024      1268.5233     -397.21901      0              141.41271      0              0              9.4195075      9.6619638      0.2            91.010941    
     22000   0.21046141     0.00060698993  0.00060698993  0              0              282.08343      992.81265     -428.77904      0              249.18516      0              0              9.4185448      9.66775        0.2            91.056136    
     22100   0.19707108     0.00065282297  0.00065282297  0              0              213.78526      574.14465     -146.72473      0              445.84148      0              0              9.4175821      9.6566656      0.2            90.94244     
     22200   0.14103804     0.00063045005  0.00063045005  0              0              696.32261      1097.4694      295.02419      0              341.64279      0              0              9.4166193      9.6466968      0.2            90.839272    
     22300   0.24552757     0.0008037038   0.0008037038   0              0              502.899        671.52191      334.17306      0              246.76268      0              0              9.4156566      9.6602768      0.2            90.957849    
     22400   0.19327946     0.00060946448  0.00060946448  0              0              609.58899      1071.2248      147.8088       0              271.57082      0              0              9.4146938      9.6480907      0.2            90.83382     
     22500   0.19959049     0.00044725746  0.00044725746  0              0              386.38745      945.76102     -173.14864      0              68.892779      0              0              9.4137311      9.6413949      0.2            90.761499    
     22600   0.18259067     0.00056463066  0.00056463066  0              0             -121.6495       250.61264     -494.02844      0             -149.59412      0              0              9.4127683      9.641478       0.2            90.752998    
     22700   0.22116049     0.00067059569  0.00067059569  0              0             -315.95488     -368.12207     -263.92929      0              5.0019845      0              0              9.4118056      9.6392136      0.2            90.722404    
     22800   0.21354168     0.00068669446  0.00068669446  0              0             -15.973772     -290.61858      258.52537      0              486.72372      0              0              9.4108428      9.6384044      0.2            90.705509    
     22900   0.18116876     0.00050731942  0.00050731942  0              0              473.10122      378.36455      567.72704      0              438.36217      0              0              9.4098801      9.6242026      0.2            90.562593    
     23000   0.23441306     0.00070755543  0.00070755543  0              0              671.0004       1041.2844      300.59528      0              50.416096      0              0              9.4089173      9.6262253      0.2            90.572358    
     23100   0.18185336     0.00055112402  0.00055112402  0              0             -63.324177      185.62816     -312.3916       0             -510.29025      0              0              9.4079546      9.6288972      0.2            90.588228    
     23200   0.16923467     0.00063547279  0.00063547279  0              0              146.77358      910.39837     -616.99746      0             -440.22637      0              0              9.4069918      9.6211824      0.2            90.506385    
     23300   0.20425288     0.00069064903  0.00069064903  0              0              86.622854      666.63264     -493.50199      0              647.85594      0              0              9.4060291      9.6196034      0.2            90.48227     
     23400   0.26691927     0.00070690707  0.00070690707  0              0              422.9975       926.68996     -80.832013      0             -243.79569      0              0              9.4050663      9.6159554      0.2            90.438699    
     23500   0.138095       0.00062899147  0.00062899147  0              0              456.22795      419.72545      492.60376      0              179.83097      0              0              9.4041036      9.6222327      0.2            90.488473    
     23600   0.20331409     0.00060610779  0.00060610779  0              0              524.81541      328.60829      720.87926      0             -171.74329      0              0              9.4031408      9.6259109      0.2            90.513796    
     23700   0.24200695     0.000845431    0.000845431    0              0              874.5264       1327.5471      421.38195      0              234.59339      0              0              9.4021781      9.6193616      0.2            90.442951    
     23800   0.18986109     0.00065412668  0.00065412668  0              0             -109.60054      4.2842949     -223.61997      0              183.06892      0              0              9.4012154      9.6332681      0.2            90.564428    
     23900   0.22617317     0.00089476676  0.00089476676  0              0             -379.5026       24.002662     -783.1516       0             -253.48253      0              0              9.4002526      9.6410232      0.2            90.628054    
     24000   0.21406168     0.00088872287  0.00088872287  0              0             -80.925349      466.93636     -628.90581      0              267.56878      0              0              9.3992899      9.6321074      0.2            90.534969    
     24100   0.22464512     0.00072003005  0.00072003005  0              0              225.37415      428.0748       22.558119      0             -758.1356       0              0              9.3983271      9.6241956      0.2            90.451338    
     24200   0.17102239     0.00068176257  0.00068176257  0              0              344.92662      6.1071887      683.62121      0             -276.93034      0              0              9.3973644      9.6116891      0.2            90.324544    
     24300   0.20814039     0.00067305166  0.00067305166  0              0              599.84667      325.69908      873.86819      0              573.11243      0              0              9.3964016      9.6192458      0.2            90.386297    
     24400   0.22894721     0.00066750703  0.00066750703  0              0              444.60015      624.28189      264.78739      0             -86.287686      0              0              9.3954389      9.6271345      0.2            90.451154    
     24500   0.21508569     0.00060112525  0.00060112525  0              0             -339.98245     -100.91046     -579.18992      0             -282.60706      0              0              9.3944761      9.620167       0.2            90.376429    
     24600   0.18061872     0.00061551713  0.00061551713  0              0             -381.61501      0.17426576    -763.53568      0             -29.65673       0              0              9.3935134      9.6320303      0.2            90.478605    
     24700   0.21496867     0.00049105196  0.00049105196  0              0              219.57196      896.60381     -457.57807      0             -115.10409      0              0              9.3925506      9.6135655      0.2            90.295901    
     24800   0.21511686     0.00047554444  0.00047554444  0              0              425.81175      742.51381      108.98348      0              302.08772      0              0              9.3915879      9.6179173      0.2            90.327515    
     24900   0.15788615     0.00089530536  0.00089530536  0              0              950.32834      1177.818       722.72055      0              148.32869      0              0              9.3906251      9.6115919      0.2            90.258856    
     25000   0.21013897     0.00088859002  0.00088859002  0              0              459.11594      287.81159      630.26794      0             -158.87661      0              0              9.3896624      9.6223093      0.2            90.350235    
     25100   0.25641476     0.00087616478  0.00087616478  0              0             -422.18237     -816.27852     -28.176691      0             -551.66833      0              0              9.3886996      9.6259978      0.2            90.375602    
     25200   0.20947082     0.00074828917  0.00074828917  0              0             -216.19572      210.55287     -643.0993       0              131.83845      0              0              9.3877369      9.6115356      0.2            90.230568    
     25300   0.18146639     0.00068612619  0.00068612619  0              0             -124.20753      504.57429     -753.12587      0              258.35754      0              0              9.3867741      9.6281018      0.2            90.376817    
     25400   0.22082116     0.00093269597  0.00093269597  0              0              581.66522      1259.0158     -95.800114      0              701.8371       0              0              9.3858114      9.6325821      0.2            90.409599    
     25500   0.25834368     0.00076718255  0.00076718255  0              0              1047.0006      1286.2602      807.58971      0              388.03689      0              0              9.3848487      9.6088942      0.2            90.178018    
     25600   0.26549028     0.00084149895  0.00084149895  0              0              1395.8606      2011.535       780.09618      0              606.41897      0              0              9.3838859      9.6053931      0.2            90.135913    
     25700   0.14518464     0.00090158269  0.00090158269  0              0              667.1441       1379.9284     -45.767452      0             -65.160617      0              0              9.3829232      9.6132497      0.2            90.200383    
     25800   0.21767758     0.00074087138  0.00074087138  0              0              329.00046      1257.5446     -599.6438       0              572.27993      0              0              9.3819604      9.6111716      0.2            90.171631    
     25900   0.19327652     0.00055019329  0.00055019329  0              0              40.153939      676.06327     -595.87827      0              246.67677      0              0              9.3809977      9.608595       0.2            90.138207    
     26000   0.13587654     0.00063584931  0.00063584931  0              0              322.06258      620.01056      24.004935      0              518.08353      0              0              9.3800349      9.6093149      0.2            90.135709    
     26100   0.20710558     0.00058078277  0.00058078277  0              0              461.7136       436.15126      487.15179      0              415.26448      0              0              9.3790722      9.6026211      0.2            90.063676    
     26200   0.22383869     0.00082223711  0.00082223711  0              0              491.62715      587.74998      395.39819      0              872.33425      0              0              9.3781094      9.594777       0.2            89.980868    
     26300   0.16171834     0.00073337387  0.00073337387  0              0              428.29186      854.96553      1.5116922      0              381.18816      0              0              9.3771467      9.6058818      0.2            90.075763    
     26400   0.16031354     0.0006035442   0.0006035442   0              0             -7.0971329      477.65696     -491.97636      0              536.12195      0              0              9.3761839      9.6081433      0.2            90.087719    
     26500   0.25199235     0.00068923299  0.00068923299  0              0             -317.70822     -137.19762     -498.32426      0             -79.980395      0              0              9.3752212      9.6185327      0.2            90.175871    
     26600   0.22898468     0.00063423026  0.00063423026  0              0              185.66348      427.06558     -55.889399      0              173.61675      0              0              9.3742584      9.6212411      0.2            90.192001    
     26700   0.18981555     0.0005966283   0.0005966283   0              0              662.64395      900.6039       424.54798      0              34.091073      0              0              9.3732957      9.6214935      0.2            90.185104    
     26800   0.25266804     0.00053242619  0.00053242619  0              0              125.26972     -214.71904      465.09252      0              3.7125254      0              0              9.3723329      9.6288914      0.2            90.245176    
     26900   0.1558558      0.00078404371  0.00078404371  0              0              2.0488654     -256.45669      260.40878      0             -300.01731      0              0              9.3713702      9.6083893      0.2            90.043773    
     27000   0.21823748     0.00066551368  0.00066551368  0              0              26.030566      242.02372     -190.06407      0             -400.95359      0              0              9.3704074      9.6122652      0.2            90.070841    
     27100   0.20104571     0.00090095747  0.00090095747  0              0             -485.66837     -438.05487     -533.41943      0             -297.36846      0              0              9.3694447      9.6167583      0.2            90.103686    
     27200   0.25380319     0.00071544344  0.00071544344  0              0             -439.44995     -411.56122     -467.45817      0              149.53013      0              0              9.368482       9.6092172      0.2            90.023778    
     27300   0.1861166      0.00060749194  0.00060749194  0              0              214.30943      322.72541      105.76402      0              322.96253      0              0              9.3675192      9.6054879      0.2            89.979593    
     27400   0.19465432     0.00067284437  0.00067284437  0              0              689.17339      825.31948      552.89238      0              188.23516      0              0              9.3665565      9.5961541      0.2            89.882919    
     27500   0.19454353     0.00066371752  0.00066371752  0              0              616.31611      729.39473      503.12048      0             -55.126466      0              0              9.3655937      9.5826163      0.2            89.746891    
     27600   0.18506839     0.00078567818  0.00078567818  0              0             -92.081253     -306.24059      121.95934      0              176.35223      0              0              9.364631       9.5887281      0.2            89.7949      
     27700   0.22506911     0.00056277904  0.00056277904  0              0              250.67219      935.92338     -434.71227      0             -98.590265      0              0              9.3636682      9.5799085      0.2            89.703085    
     27800   0.18696684     0.00071546142  0.00071546142  0              0             -54.34465       616.0562      -724.87727      0              99.668499      0              0              9.3627055      9.5896761      0.2            89.785313    
     27900   0.20145741     0.00093324903  0.00093324903  0              0              236.73054      806.81572     -333.47814      0              373.03707      0              0              9.3617427      9.5890933      0.2            89.770625    
     28000   0.22528224     0.00085901398  0.00085901398  0              0              281.94673      287.7062       276.07134      0              21.982067      0              0              9.36078        9.5776192      0.2            89.653986    
[...]
     43000   0.19601268     0.00077642185  0.00077642185  0              0              45.234891      440.02319     -349.70275      0              16.705487      0              0              9.2163679      9.4594769      0.2            87.182019    
     43100   0.25854509     0.00064653254  0.00064653254  0              0              312.71153      463.70626      161.59296      0             -430.65948      0              0              9.2154052      9.4561637      0.2            87.14238     
     43200   0.24157641     0.00048707546  0.00048707546  0              0              728.93912      980.54874      477.20347      0              195.65494      0              0              9.2144424      9.4381387      0.2            86.967185    
     43300   0.24977365     0.00066178502  0.00066178502  0              0             -317.58369     -441.88964     -193.41854      0              412.77657      0              0              9.2134797      9.4546149      0.2            87.109902    
     43400   0.20154919     0.00054365663  0.00054365663  0              0              133.17456      805.18532     -538.97617      0              183.82376      0              0              9.2125169      9.4542328      0.2            87.09728     
     43500   0.239574       0.000847324    0.000847324    0              0             -292.88293     -553.29633     -32.642961      0              1021.1121      0              0              9.2115542      9.4573788      0.2            87.117157    
     43600   0.2394174      0.00074182013  0.00074182013  0              0              978.45049      1388.6005      568.14993      0              731.63669      0              0              9.2105914      9.4715817      0.2            87.238869    
     43700   0.20284691     0.00067431211  0.00067431211  0              0              656.77578      1053.9552      259.46892      0              313.59993      0              0              9.2096287      9.5012068      0.2            87.502587    
     43800   0.20811974     0.00054873564  0.00054873564  0              0             -455.22552     -391.80235     -518.79995      0              119.32883      0              0              9.2086659      9.5148798      0.2            87.61935     
     43900   0.20153434     0.00076839502  0.00076839502  0              0              98.887735      521.47066     -323.84224      0             -202.81533      0              0              9.2077032      9.5161185      0.2            87.621595    
     44000   0.19689899     0.00057395622  0.00057395622  0              0              618.29237      965.17333      271.30439      0              79.318225      0              0              9.2067404      9.5156992      0.2            87.608572    
     44100   0.22085054     0.00068203849  0.00068203849  0              0              223.76045      103.51065      343.88856      0             -305.06432      0              0              9.2057777      9.5198018      0.2            87.637179    
     44200   0.26009572     0.0006204615   0.0006204615   0              0             -216.80223     -345.05636     -88.668116      0             -399.05728      0              0              9.204815       9.5375201      0.2            87.791107    
     44300   0.23236485     0.00072835557  0.00072835557  0              0             -263.84421     -64.849264     -462.98121      0             -31.348764      0              0              9.2038522      9.5321853      0.2            87.732825    
     44400   0.18643983     0.00067845196  0.00067845196  0              0             -342.37832     -767.44244      82.579236      0              206.53561      0              0              9.2028895      9.5167805      0.2            87.581879    
     44500   0.24696265     0.00061005203  0.00061005203  0              0              431.83979      289.12864      574.40467      0              155.11654      0              0              9.2019267      9.5063678      0.2            87.4769      
     44600   0.20200077     0.00071177256  0.00071177256  0              0              149.30083      174.56291      123.91154      0              366.13974      0              0              9.200964       9.5097013      0.2            87.498419    
     44700   0.1406248      0.0006368331   0.0006368331   0              0             -290.14145     -69.936799     -510.53221      0             -379.83125      0              0              9.2000012      9.5104599      0.2            87.496243    
     44800   0.24124227     0.00076363497  0.00076363497  0              0             -206.38422     -97.656923     -315.2581       0             -242.9027       0              0              9.1990385      9.5119694      0.2            87.500972    
     44900   0.26770258     0.00069028778  0.00069028778  0              0              257.36715      30.9681        483.61989      0              134.3658       0              0              9.1980757      9.5004648      0.2            87.385995    
     45000   0.19162019     0.00070912309  0.00070912309  0              0              291.85648      131.2153       452.36935      0              388.94164      0              0              9.197113       9.4981226      0.2            87.355306    
     45100   0.21476356     0.00096998342  0.00096998342  0              0             -600.9086      -891.66738     -310.30231      0             -185.12799      0              0              9.1961502      9.5250771      0.2            87.59404     
     45200   0.21028301     0.00086311991  0.00086311991  0              0             -729.41727     -922.84345     -536.1181       0             -222.59246      0              0              9.1951875      9.5284055      0.2            87.615475    
     45300   0.20569158     0.00062912282  0.00062912282  0              0              131.07054     -11.923579      273.92449      0             -19.669227      0              0              9.1942247      9.529579       0.2            87.617091    
     45400   0.17768122     0.00078477284  0.00078477284  0              0              255.41675     -133.20802      643.88979      0             -497.94963      0              0              9.193262       9.5377886      0.2            87.683389    
     45500   0.21732567     0.00063367127  0.00063367127  0              0              192.00593      392.86964     -8.9935034      0              584.44412      0              0              9.1922992      9.5415199      0.2            87.708506    
     45600   0.2114323      0.00054969076  0.00054969076  0              0              194.62708      1182.8067     -793.69662      0              694.34572      0              0              9.1913365      9.5528968      0.2            87.803889    
     45700   0.19878244     0.00074054982  0.00074054982  0              0              78.504594      292.63255     -135.74923      0             -59.232486      0              0              9.1903737      9.5644592      0.2            87.900955    
     45800   0.2597576      0.00058681891  0.00058681891  0              0              524.82833      312.13129      737.37473      0             -58.651725      0              0              9.189411       9.5480736      0.2            87.741173    
     45900   0.21961987     0.00088645499  0.00088645499  0              0              488.93458      589.47598      388.25869      0              410.13893      0              0              9.1884483      9.5478293      0.2            87.729735    
     46000   0.22956985     0.0005935391   0.0005935391   0              0             -326.04453      59.838062     -712.07687      0             -415.14168      0              0              9.1874855      9.5664053      0.2            87.89121     
     46100   0.20380218     0.0008439644   0.0008439644   0              0             -221.40615     -147.01553     -295.92008      0              89.614472      0              0              9.1865228      9.5698927      0.2            87.914037    
     46200   0.24061902     0.00064411013  0.00064411013  0              0              671.5295       896.43432      446.49841      0              415.41733      0              0              9.18556        9.5559261      0.2            87.776532    
     46300   0.20480102     0.00079168958  0.00079168958  0              0              520.21768      651.90507      388.41299      0             -908.4697       0              0              9.1845973      9.5592303      0.2            87.79768     
     46400   0.20664123     0.00065071183  0.00065071183  0              0              213.16883      484.01983     -57.827941      0             -496.48663      0              0              9.1836345      9.5628278      0.2            87.821516    
     46500   0.18848851     0.00047553926  0.00047553926  0              0              130.86612      479.43525     -217.84457      0             -138.94959      0              0              9.1826718      9.5866627      0.2            88.031177    
     46600   0.18157746     0.00061524332  0.00061524332  0              0              543.73499      1090.1915     -2.8127663      0             -336.17874      0              0              9.181709       9.5877552      0.2            88.031978    
     46700   0.18987615     0.00054156046  0.00054156046  0              0              382.94433      543.47267      222.2455       0             -307.99537      0              0              9.1807463      9.5755647      0.2            87.91083     
     46800   0.21018389     0.00067701672  0.00067701672  0              0              830.81921      1625.5931      35.927348      0              91.413555      0              0              9.1797835      9.5872713      0.2            88.009076    
     46900   0.22332724     0.00094312302  0.00094312302  0              0              619.37957      1334.6202     -95.979216      0             -280.37312      0              0              9.1788208      9.5917432      0.2            88.040892    
     47000   0.20600745     0.00070095456  0.00070095456  0              0              555.56377      1206.9524     -95.954966      0              448.39204      0              0              9.177858       9.574589       0.2            87.874219    
     47100   0.2528243      0.00077224004  0.00077224004  0              0              784.22748      1274.2509      294.0688       0              142.5744       0              0              9.1768953      9.5742778      0.2            87.862145    
     47200   0.18394614     0.00064867268  0.00064867268  0              0              696.49999      1112.197       280.67848      0              203.23082      0              0              9.1759325      9.5994309      0.2            88.083731    
     47300   0.24628954     0.00055527446  0.00055527446  0              0              213.44402      677.76813     -251.04817      0             -111.82778      0              0              9.1749698      9.6114473      0.2            88.184739    
     47400   0.20496636     0.00067676536  0.00067676536  0              0              268.84875      943.59531     -406.01509      0             -300.5882       0              0              9.174007       9.6131234      0.2            88.190862    
     47500   0.20340534     0.0008378421   0.0008378421   0              0              699.79055      1004.8556      394.59967      0             -199.96547      0              0              9.1730443      9.6101345      0.2            88.15419     
     47600   0.26256344     0.00077745574  0.00077745574  0              0              1035.3223      1621.8136      448.68224      0              91.148783      0              0              9.1720816      9.6012278      0.2            88.063245    
     47700   0.23530861     0.00078953729  0.00078953729  0              0              536.57308      1251.9182     -178.90483      0             -272.62634      0              0              9.1711188      9.6178992      0.2            88.206896    
     47800   0.16677494     0.00082904991  0.00082904991  0              0             -419.75011     -319.96121     -519.6647       0             -132.0963       0              0              9.1701561      9.6229454      0.2            88.243911    
     47900   0.25451958     0.00067767458  0.00067767458  0              0              244.07969      176.81963      311.21469      0             -123.87717      0              0              9.1691933      9.6072984      0.2            88.091176    
     48000   0.20274394     0.00096464391  0.00096464391  0              0              950.31299      1442.6694      457.81793      0              221.36131      0              0              9.1682306      9.5923452      0.2            87.944832    
     48100   0.20440954     0.00059241657  0.00059241657  0              0              279.2565       627.25413     -68.840449      0              199.80494      0              0              9.1672678      9.592848       0.2            87.940206    
     48200   0.23798009     0.00075896305  0.00075896305  0              0             -78.230279      331.52844     -488.14568      0             -527.61364      0              0              9.1663051      9.5958064      0.2            87.958089    
     48300   0.18175462     0.00061058112  0.00061058112  0              0              1.8032923      29.199189     -25.734614      0              234.74031      0              0              9.1653423      9.6071677      0.2            88.052981    
     48400   0.18753981     0.00076739866  0.00076739866  0              0              805.52325      1090.4897      520.45147      0             -485.25449      0              0              9.1643796      9.5926064      0.2            87.910286    
     48500   0.19360758     0.00052600298  0.00052600298  0              0              877.48613      1543.0391      211.79685      0              26.627237      0              0              9.1634168      9.5851317      0.2            87.832557    
     48600   0.21175374     0.00074808009  0.00074808009  0              0             -37.42296       447.94626     -522.89891      0             -229.55493      0              0              9.1624541      9.6035171      0.2            87.991784    
     48700   0.22001431     0.00085555635  0.00085555635  0              0              126.0674       559.75981     -307.76839      0              286.49835      0              0              9.1614913      9.5976091      0.2            87.928413    
     48800   0.19176271     0.00061159698  0.00061159698  0              0              659.59621      831.63071      487.44344      0              230.91954      0              0              9.1605286      9.5891064      0.2            87.841283    
     48900   0.17446668     0.0008690316   0.0008690316   0              0              845.89173      1394.9664      296.69103      0              211.25767      0              0              9.1595658      9.5947641      0.2            87.883874    
     49000   0.12159257     0.00054564142  0.00054564142  0              0             -102.72934      200.14494     -405.7128       0              280.27463      0              0              9.1586031      9.5890129      0.2            87.821963    
     49100   0.22628796     0.00090003013  0.00090003013  0              0              263.34391      874.90582     -348.33354      0             -241.04388      0              0              9.1576403      9.5931505      0.2            87.850622    
     49200   0.19891621     0.00071935072  0.00071935072  0              0              579.24778      822.3197       336.06726      0             -67.931264      0              0              9.1566776      9.5862746      0.2            87.778426    
     49300   0.21302708     0.00062647588  0.00062647588  0              0              931.44526      1423.6644      439.08944      0             -71.099167      0              0              9.1557149      9.5884209      0.2            87.788848    
     49400   0.26826313     0.00067648432  0.00067648432  0              0             -57.818442      183.52149     -299.29721      0             -14.18446       0              0              9.1547521      9.5966761      0.2            87.855191    
     49500   0.2497872      0.0005740582   0.0005740582   0              0             -254.15704     -30.628454     -477.83641      0             -219.22219      0              0              9.1537894      9.5979403      0.2            87.857524    
     49600   0.26684031     0.00064980547  0.00064980547  0              0              606.24178      1030.8219      181.50679      0             -297.80388      0              0              9.1528266      9.5876971      0.2            87.754529    
     49700   0.22137372     0.00055621229  0.00055621229  0              0              684.0414       897.65804      470.31402      0             -691.91257      0              0              9.1518639      9.5846955      0.2            87.717829    
     49800   0.18135232     0.00083567484  0.00083567484  0              0             -21.298347      10.371836     -53.098456      0             -346.17029      0              0              9.1509011      9.5799399      0.2            87.665083    
     49900   0.23348422     0.00076171941  0.00076171941  0              0              103.11218      768.01283     -561.90746      0             -85.366716      0              0              9.1499384      9.5614101      0.2            87.486313    
     50000   0.26184542     0.00058751132  0.00058751132  0              0              359.87833      722.31545     -2.6935638      0              183.23294      0              0              9.1489756      9.5569513      0.2            87.436314    
     50100   0.21199096     0.00074234521  0.00074234521  0              0              889.52121      1029.5395      749.36399      0              251.17067      0              0              9.1480129      9.5725176      0.2            87.569514    
     50200   0.22901201     0.00062831981  0.00062831981  0              0              446.56865      696.62393      196.38304      0              388.01837      0              0              9.1470501      9.5768791      0.2            87.600193    
     50299   0.21115148     0.00064391777  0.00064391777  0              0             -320.38543      125.13439     -766.02574      0             -167.86162      0              0              9.146097       9.5970118      0.2            87.775201    
Loop time of 0.880642 on 1 procs for 50000 steps with 42 atoms

Performance: 49055.093 ns/day, 0.000 hours/ns, 56776.729 timesteps/s
99.1% CPU use with 1 MPI tasks x 1 OpenMP threads

MPI task timing breakdown:
Section |  min time  |  avg time  |  max time  |%varavg| %total
---------------------------------------------------------------
Pair    | 0          | 0          | 0          |   0.0 |  0.00
Bond    | 0.12       | 0.12       | 0.12       |   0.0 | 13.63
Neigh   | 0          | 0          | 0          |   0.0 |  0.00
Comm    | 0.27671    | 0.27671    | 0.27671    |   0.0 | 31.42
Output  | 0.0057063  | 0.0057063  | 0.0057063  |   0.0 |  0.65
Modify  | 0.45461    | 0.45461    | 0.45461    |   0.0 | 51.62
Other   |            | 0.02361    |            |       |  2.68

Nlocal:             42 ave          42 max          42 min
Histogram: 1 0 0 0 0 0 0 0 0 0
Nghost:            366 ave         366 max         366 min
Histogram: 1 0 0 0 0 0 0 0 0 0
Neighs:              0 ave           0 max           0 min
Histogram: 1 0 0 0 0 0 0 0 0 0

Total # of neighbors = 0
Ave neighs/atom = 0
Ave special neighs/atom = 18.761905
Neighbor list builds = 0
Dangerous builds = 0


Total wall time: 0:00:00
