LAMMPS data file.

     42 atoms
     95 bonds
      0 angles
      0 dihedrals
      0 impropers
      1 atom types
     95 bond types
      0 angle types
      0 dihedral types
      0 improper types
  -4.813740   4.813740 xlo xhi
  -4.813740   4.813740 ylo yhi
  -0.100000   0.100000 zlo zhi

Masses # ['atom_id', 'mass']

1 10000.0

Atoms # ['atomID', 'moleculeID', 'atomType', 'charge', 'x', 'y', 'z']

     66      1      1   0.000000  -3.194759  -4.207945   0.000000
     68      1      1   0.000000  -3.000969  -3.398751   0.000000
     33      1      1   0.000000  -1.244979  -4.462896   0.000000
     26      1      1   0.000000  -0.008505  -4.693976   0.000000
     74      1      1   0.000000   0.861229  -4.733470   0.000000
     27      1      1   0.000000   0.804020  -3.770854   0.000000
     32      1      1   0.000000   2.871275  -3.967310   0.000000
     80      1      1   0.000000   3.949542  -4.033023   0.000000
     73      1      1   0.000000   4.337460  -4.486402   0.000000
     10      1      1   0.000000  -4.777442  -3.498219   0.000000
     22      1      1   0.000000  -3.723118  -2.882829   0.000000
     28      1      1   0.000000  -2.263239  -3.933171   0.000000
     76      1      1   0.000000  -2.780984  -2.811539   0.000000
     63      1      1   0.000000  -1.297285  -3.496865   0.000000
     24      1      1   0.000000  -0.399785  -3.510155   0.000000
     50      1      1   0.000000   2.400092  -2.572677   0.000000
     18      1      1   0.000000   3.553058  -2.699362   0.000000
     55      1      1   0.000000  -2.942752  -2.130738   0.000000
     37      1      1   0.000000  -1.856453  -2.779492   0.000000
     30      1      1   0.000000  -0.769992  -2.244306   0.000000
     40      1      1   0.000000   0.272399  -2.511081   0.000000
     31      1      1   0.000000   1.295778  -2.794977   0.000000
     35      1      1   0.000000   1.850681  -1.715321   0.000000
      4      1      1   0.000000  -2.156724  -1.381741   0.000000
     13      1      1   0.000000  -0.768181  -0.847629   0.000000
      8      1      1   0.000000   0.601394  -1.274563   0.000000
     46      1      1   0.000000   1.428588  -0.370104   0.000000
     34      1      1   0.000000   2.916110  -1.453616   0.000000
     20      1      1   0.000000   0.357336   0.120009   0.000000
     45      1      1   0.000000   1.610274   0.426825   0.000000
      1      1      1   0.000000   2.641997  -0.107881   0.000000
      3      1      1   0.000000  -1.527110   2.540406   0.000000
      5      1      1   0.000000   0.021833   2.688890   0.000000
     62      1      1   0.000000  -0.799190   3.244048   0.000000
      2      1      1   0.000000  -4.050984   4.735793   0.000000
     21      1      1   0.000000  -2.761716   4.549489   0.000000
     11      1      1   0.000000  -1.669586   3.981806   0.000000
     56      1      1   0.000000  -0.458751   3.966729   0.000000
     29      1      1   0.000000   0.694316   3.919116   0.000000
     19      1      1   0.000000   1.988293   4.711289   0.000000
      7      1      1   0.000000   3.396307   4.607721   0.000000
     53      1      1   0.000000   4.584784   4.343864   0.000000

Bond Coeffs # ['bondID', 'bondCoeff', 'd']

      1   1.018039   0.991100
      2   0.641399   1.248636
      3   0.641399   1.248636
      4   0.508728   1.402030
      5   0.512634   1.396678
      6   0.720569   1.178046
      7   1.060186   0.971201
      8   2.543166   0.627065
      9   1.208762   0.909556
     10   0.879218   1.066477
     11   0.879218   1.066477
     12   0.879430   1.066349
     13   0.879430   1.066349
     14   0.485906   1.434577
     15   0.830820   1.097100
     16   0.806945   1.113213
     17   0.806945   1.113213
     18   1.496769   0.817377
     19   0.633210   1.256684
     20   0.851345   1.083795
     21   0.886602   1.062027
     22   0.648878   1.241420
     23   1.319265   0.870631
     24   0.501698   1.411818
     25   0.671004   1.220780
     26   0.832901   1.095730
     27   0.832901   1.095730
     28   0.569806   1.324758
     29   0.788068   1.126466
     30   1.168517   0.925087
     31   0.498903   1.415767
     32   1.120199   0.944827
     33   0.489268   1.429639
     34   0.722905   1.176141
     35   0.722905   1.176141
     36   0.975630   1.012412
     37   0.656624   1.234076
     38   0.656624   1.234076
     39   1.435300   0.834696
     40   0.643281   1.246808
     41   1.435300   0.834696
     42   0.404942   1.571462
     43   0.616497   1.273604
     44   2.042236   0.699757
     45   1.022205   0.989079
     46   1.022205   0.989079
     47   0.837407   1.092777
     48   0.759036   1.147807
     49   0.743284   1.159905
     50   0.595226   1.296161
     51   0.595226   1.296161
     52   0.453903   1.484288
     53   0.482504   1.439625
     54   0.633210   1.256684
     55   0.767071   1.141780
     56   0.589302   1.302660
     57   0.476660   1.448424
     58   0.767071   1.141780
     59   0.854528   1.081775
     60   0.848294   1.085743
     61   0.911655   1.047333
     62   0.659149   1.231710
     63   1.269562   0.887510
     64   0.911655   1.047333
     65   0.674719   1.217414
     66   1.058754   0.971857
     67   0.660061   1.230858
     68   1.058754   0.971857
     69   0.413006   1.556044
     70   0.530183   1.373369
     71   0.600965   1.289958
     72   0.964403   1.018288
     73   0.740542   1.162051
     74   1.566986   0.798854
     75   0.668247   1.223296
     76   0.661222   1.229777
     77   1.241181   0.897599
     78   0.854528   1.081775
     79   0.665647   1.225682
     80   0.863746   1.075987
     81   1.205034   0.910962
     82   1.075380   0.964315
     83   1.068432   0.967446
     84   0.689665   1.204151
     85   2.808728   0.596685
     86   0.781422   1.131246
     87   0.510834   1.399137
     88   0.681746   1.211124
     89   0.768123   1.140998
     90   0.678622   1.213908
     91   0.632006   1.257881
     92   0.781422   1.131246
     93   0.451809   1.487725
     94   0.681966   1.210929
     95   0.610794   1.279537

Bonds # ['ID', 'type', 'atom1', 'atom2']

         1         1         5        62
         2         2        28        21
         3         3        21        28
         4         4         5        29
         5         5        30        13
         6         6        46        20
         7         7        66        28
         8         8        68        76
         9         9        63        37
        10        10        26        56
        11        11        56        26
        12        12         2        53
        13        13        53         2
        14        14        13         8
        15        15        35        34
        16        16        73        10
        17        17        10        73
        18        18        46        45
        19        19        33        11
        20        20        22        55
        21        21        40        31
        22        22        46         1
        23        23        26        74
        24        24        19         7
        25        25        10        22
        26        26         2        66
        27        27        66         2
        28        28        35         8
        29        29        50        31
        30        30        76        37
        31        31         8        20
        32        32        22        76
        33        33        37         4
        34        34        32         7
        35        35         7        32
        36        36         3        62
        37        37        26        29
        38        38        29        26
        39        39        73        53
        40        40        26        24
        41        41        53        73
        42        42        10         2
        43        43        33        24
        44        44        76        55
        45        45        74        29
        46        46        29        74
        47        47        27        31
        48        48        33        28
        49        49        50        18
        50        50        32        19
        51        51        19        32
        52        52        13        20
        53        53        32        18
        54        54        11        33
        55        55        74        19
        56        56         2        21
        57        57         3        11
        58        58        19        74
        59        59         7        73
        60        60        55         4
        61        61        80        10
        62        62        27        24
        63        63        68        22
        64        64        10        80
        65        65         7        53
        66        66        66        21
        67        67        21        11
        68        68        21        66
        69        69         3         5
        70        70        34         1
        71        71        20        45
        72        72        50        35
        73        73        45         1
        74        74        62        56
        75        75        28        37
        76        76        26        27
        77        77        63        24
        78        78        73         7
        79        79         8        46
        80        80        30        40
        81        81        68        28
        82        82        74        27
        83        83        33        63
        84        84        24        40
        85        85        80        73
        86        86        80         7
        87        87        18        34
        88        88        37        30
        89        89        62        11
        90        90        31        35
        91        91        33        26
        92        92         7        80
        93        93         4        13
        94        94        11        56
        95        95        40         8
