LAMMPS data file via write_data, version 23 Jun 2022, timestep = 10000

80 atoms
4 atom types

-4.827663352949918 4.827663352949918 xlo xhi
-4.827663352949918 4.827663352949918 ylo yhi
-0.1 0.1 zlo zhi

Atoms # sphere

21 2 1.3 0.4551661356395083 -4.086857276592952 -4.162730393944926 0 0 1 0
37 2 1.3 0.4551661356395083 -3.113815290127371 4.810865814715432 0 0 0 0
5 1 1.6 0.2441406249999999 -1.9946769425705706 -4.383230382101663 0 0 0 0
25 2 1.3 0.4551661356395083 -0.7772976119207584 -4.743092785967367 0 0 0 0
78 4 0.7 2.915451895043732 0.13113992162864374 -4.7228969300075585 0 0 0 0
40 2 1.3 0.4551661356395083 0.226018849522454 -3.81670093811275 0 0 0 0
80 4 0.7 2.915451895043732 1.2846308487471365 -4.300548242587398 0 0 1 0
51 3 1 1 2.0169996884210466 -4.081061778598058 0 -1 0 0
9 1 1.6 0.2441406249999999 3.343480622585493 -4.146631538197547 0 -1 1 0
44 3 1 1 4.483048738343949 -3.8534180651756134 0 -1 1 0
58 3 1 1 -4.348819313733626 -3.2612382926018193 0 0 0 0
28 2 1.3 0.4551661356395083 -3.2678897644252443 -3.5392808063034336 0 0 0 0
59 3 1 1 -2.2486653683041395 -2.9879984034214324 0 0 1 0
18 1 1.6 0.2441406249999999 -1.030016891722191 -3.2953961821171145 0 0 0 0
27 2 1.3 0.4551661356395083 0.14076778491172703 -2.538133219643446 0 0 0 0
1 1 1.6 0.2441406249999999 1.4229216021035143 -3.1541875607497203 0 0 1 0
66 4 0.7 2.915451895043732 2.531781423581627 -3.175781934026875 0 -1 1 0
67 4 0.7 2.915451895043732 3.0497412886662456 -2.7323337808657935 0 -1 0 0
76 4 0.7 2.915451895043732 -3.8026877660761915 -2.6944923381934007 0 1 0 0
13 1 1.6 0.2441406249999999 -4.469396663047776 -1.9394806939932692 0 0 0 0
11 1 1.6 0.2441406249999999 -3.011290222601915 -1.915855490496361 0 0 0 0
72 4 0.7 2.915451895043732 -0.4347264333891365 -1.819386374999969 0 1 0 0
4 1 1.6 0.2441406249999999 -1.5162051649329849 -1.901200896024946 0 0 0 0
34 2 1.3 0.4551661356395083 1.2061202497195769 -1.8196897896574824 0 0 0 0
29 2 1.3 0.4551661356395083 2.372223465426326 -2.1640467749579444 0 0 0 0
75 4 0.7 2.915451895043732 3.377469807501904 -1.9189424412606133 0 0 1 0
20 1 1.6 0.2441406249999999 4.031412523711196 -2.7691985206431236 0 -1 0 0
38 2 1.3 0.4551661356395083 -3.7681414144068266 -0.7372026299932761 0 1 0 0
3 1 1.6 0.2441406249999999 -0.7906315126415384 -0.6859041850625607 0 0 0 0
42 3 1 1 0.13205896250745397 -1.4223192384301373 0 0 0 0
61 4 0.7 2.915451895043732 0.8754273601275111 -0.982178599571855 0 0 0 0
69 4 0.7 2.915451895043732 1.4060215553394464 -0.9413352602146734 0 0 0 0
62 4 0.7 2.915451895043732 1.9266386103891042 -1.2332296757684493 0 0 0 0
33 2 1.3 0.4551661356395083 2.9147950591444447 -1.0639554118449914 0 0 0 0
36 2 1.3 0.4551661356395083 4.072524996862383 -1.3327635441668813 0 0 0 0
35 2 1.3 0.4551661356395083 -4.772847580201163 -0.22208640828530335 0 0 0 0
7 1 1.6 0.2441406249999999 -2.242220291100527 -0.42410223777946854 0 1 0 0
43 3 1 1 -1.1935060311210912 0.4044910652247422 0 1 0 0
64 4 0.7 2.915451895043732 0.1827718259458111 -0.5582876337702247 0 0 0 0
50 3 1 1 0.9110973120300052 -0.2621686052302783 0 -1 1 0
52 3 1 1 1.095693654628307 0.7754105530686513 0 0 0 0
30 2 1.3 0.4551661356395083 1.8368549720577878 -0.2716509035557477 0 0 1 0
79 4 0.7 2.915451895043732 2.911950910590507 -0.1477623215175079 0 0 0 0
71 4 0.7 2.915451895043732 3.5894796487560496 -0.35852235327351956 0 0 0 0
73 4 0.7 2.915451895043732 4.041254691023394 0.04811073405918176 0 0 0 0
8 1 1.6 0.2441406249999999 -3.583099639201599 0.4783668794678446 0 0 0 0
23 2 1.3 0.4551661356395083 -2.2313306417242966 0.8560757519441422 0 0 0 0
26 2 1.3 0.4551661356395083 -0.06484562490429013 0.5892458908308269 0 0 0 0
65 4 0.7 2.915451895043732 0.2769954895293365 1.372662325929407 0 0 0 0
46 3 1 1 1.822940917608629 1.592812673072915 0 0 0 0
60 3 1 1 2.641482453504654 0.5409326291213858 0 0 0 0
74 4 0.7 2.915451895043732 3.4331733209922453 0.2591263677533844 0 0 0 0
2 1 1.6 0.2441406249999999 4.3333990000160965 0.9879669609571309 0 0 0 0
24 2 1.3 0.4551661356395083 -4.16075255394003 1.6398861529447526 0 0 0 0
10 1 1.6 0.2441406249999999 -2.8963398419791737 1.9370647918789663 0 0 0 0
6 1 1.6 0.2441406249999999 -0.8719247193932307 1.6249947248488885 0 0 0 0
31 2 1.3 0.4551661356395083 -1.551713280177176 2.643930231024859 0 0 0 0
48 3 1 1 0.9572409044571515 1.8825959228948852 0 0 -1 0
12 1 1.6 0.2441406249999999 1.8456230275432457 2.8385189534048942 0 0 -1 0
19 1 1.6 0.2441406249999999 2.930464607928026 1.6065957965496303 0 0 0 0
41 3 1 1 3.094630994486507 2.762327772662669 0 0 0 0
17 1 1.6 0.2441406249999999 4.266430119352548 2.451426516347877 0 0 0 0
16 1 1.6 0.2441406249999999 -4.055905206534879 2.968002169064081 0 0 0 0
14 1 1.6 0.2441406249999999 -2.6369750914813825 3.355712123551501 0 0 0 0
77 4 0.7 2.915451895043732 -1.3733072325196964 3.617290597028332 0 0 -1 0
32 2 1.3 0.4551661356395083 0.01759161273038412 2.3125161937321863 0 0 0 0
47 3 1 1 0.8605646324721761 3.3187150078832675 0 0 0 0
56 3 1 1 2.656407862418445 3.673693142025143 0 0 0 0
22 2 1.3 0.4551661356395083 3.7102009313054536 3.991095125634076 0 -1 0 0
63 4 0.7 2.915451895043732 4.5054259639645275 3.5947746122657884 0 0 0 0
57 3 1 1 -4.113470305636969 4.4513120193798335 0 0 0 0
68 4 0.7 2.915451895043732 -3.4934629029910154 3.977101910222287 0 0 0 0
55 3 1 1 -1.623602086693717 4.173037857014392 0 0 0 0
15 1 1.6 0.2441406249999999 -0.32703858970606436 3.6668558344004376 0 0 -1 0
53 3 1 1 1.8774177855165188 4.064637234665683 0 0 -1 0
39 2 1.3 0.4551661356395083 0.9196602703953003 4.477761439246753 0 0 -1 0
70 4 0.7 2.915451895043732 1.6876077372817955 -4.822823359390237 0 -1 0 0
54 3 1 1 2.747662638210908 4.488538898309929 0 0 0 0
45 3 1 1 4.354307436628852 -4.66410710357228 0 0 1 0
49 3 1 1 4.760563798438988 4.229770632442226 0 -1 -1 0

Velocities

21 0.08500132538228147 0.042156180767369905 0 0 0 0
37 0.0504312862536097 -0.13002630691778036 0 0 0 0
5 0.0014949019725706782 0.0029339021043169 0 0 0 0
25 0.01698553864382271 0.029099427382186602 0 0 0 0
78 0.06828361954668243 -0.06512508262236053 0 0 0 0
40 0.05708718693557477 -0.019321554344552128 0 0 0 0
80 -0.08956040946561057 0.12819309827338737 0 0 0 0
51 -0.10942227121321735 -0.1433471059519301 0 0 0 0
9 -0.07250562730803456 0.14483553411281958 0 0 0 0
44 0.17005445171133124 0.14714800246631374 0 0 0 0
58 0.07783664218508383 -0.1335250646190537 0 0 0 0
28 0.06371379928559552 0.121894615802053 0 0 0 0
59 -0.1644509914909003 -0.19581349421840552 0 0 0 0
18 0.06217527813380257 0.04484657297555561 0 0 0 0
27 0.26429427740171557 0.04419616882750454 0 0 0 0
1 0.018502776315209052 0.03163559182866335 0 0 0 0
66 -0.04789124400241846 -0.018848370895798515 0 0 0 0
67 -0.053813261686516074 -0.04061668877463045 0 0 0 0
76 0.01557719523808266 -0.06122867855063153 0 0 0 0
13 0.024069497711194397 0.042400388458998274 0 0 0 0
11 0.04507867473622826 0.001586489173538845 0 0 0 0
72 -0.02875298564786797 -0.0951799716605607 0 0 0 0
4 -0.0475706686426089 -0.04857439816364043 0 0 0 0
34 -0.14914411272010678 0.06540126898993137 0 0 0 0
29 -0.15018063231838377 -0.17943132302663903 0 0 0 0
75 0.07704730815781241 -0.15560933466785803 0 0 0 0
20 -0.05812487205460276 0.17468744566477795 0 0 0 0
38 0.081747611339381 -0.10041907220137794 0 0 0 0
3 -0.05168359915200296 -0.09045950027831622 0 0 0 0
42 0.22819602153731636 0.15461594048840027 0 0 0 0
61 -0.0651670444147379 0.04039638553707254 0 0 0 0
69 0.17955609251971494 0.004427553487219147 0 0 0 0
62 0.11661355772258293 0.07613813567082343 0 0 0 0
33 -0.26369179065139164 0.1501284498018874 0 0 0 0
36 0.01627585037314855 0.22622337904018297 0 0 0 0
35 -0.07514763229490519 -0.010158836584394357 0 0 0 0
7 0.01772882213400453 0.0915669829956162 0 0 0 0
43 0.022259201083352095 0.2582281446775684 0 0 0 0
64 0.05861526414039937 -0.07137368242665969 0 0 0 0
50 0.13265013223731176 -0.05896307229409004 0 0 0 0
52 -0.10088348298878769 -0.010442444981536202 0 0 0 0
30 0.12550886073202405 0.19518786590681028 0 0 0 0
79 -0.17313259327346933 -0.15512369136437845 0 0 0 0
71 -0.11870001308207971 0.15780114108193824 0 0 0 0
73 -0.0835798982248936 0.2029335836424528 0 0 0 0
8 0.07161793840672685 -0.018093479430216802 0 0 0 0
23 -0.18873570838057233 0.021346208035070067 0 0 0 0
26 -0.03547333619342937 -0.07755915570969195 0 0 0 0
65 -0.16067838816406066 -0.034465298114727254 0 0 0 0
46 0.1302788008593046 0.0010311150073315904 0 0 0 0
60 -0.08419235893477629 -0.00820439346986353 0 0 0 0
74 -0.05541709715231597 -0.0040772718719547995 0 0 0 0
2 -0.03787945737060586 -0.018563295789974406 0 0 0 0
24 -0.04748655207769225 0.09626767507993135 0 0 0 0
10 0.13037765572928067 -0.09668040025073017 0 0 0 0
6 -0.26990761637813576 -0.01846253747125873 0 0 0 0
31 0.03712282670043503 0.05946487220987946 0 0 0 0
48 0.2233987080196977 -0.009949045068776719 0 0 0 0
12 0.024976760774917985 -0.1523795541744661 0 0 0 0
19 0.1105533250096961 0.20690413516305015 0 0 0 0
41 -0.13229447603380706 0.06730705852089482 0 0 0 0
17 0.18926601011674668 -0.04437141239482849 0 0 0 0
16 -0.04271468921137762 -0.03837399821168428 0 0 0 0
14 0.06528888581736902 -0.10148009654977373 0 0 0 0
77 -0.07994850018331354 -0.08140277795223329 0 0 0 0
32 0.12465403604454549 0.004380668427677069 0 0 0 0
47 0.026985334334533186 0.01675797129129128 0 0 0 0
56 0.036244248705050976 0.16603287438946376 0 0 0 0
22 -0.13543361924388875 0.016454045995010855 0 0 0 0
63 -0.050286082581275 -0.1444066656480785 0 0 0 0
57 0.017280934702695663 -0.03469605025344815 0 0 0 0
68 0.16919614155551352 -0.06766099690822851 0 0 0 0
55 -0.07200764789846716 -0.022721413482138155 0 0 0 0
15 -0.05432445593828744 -0.0049064570675601 0 0 0 0
53 -0.07898252115587127 -0.16730492438569033 0 0 0 0
39 0.12700769324561484 -0.13303399107139646 0 0 0 0
70 -0.16102727633607702 -0.003537227149779915 0 0 0 0
54 -0.0740506392159217 -0.15530212943338845 0 0 0 0
45 0.06183653844534925 -0.052612012974484985 0 0 0 0
49 0.04137254118509422 0.039223386101979785 0 0 0 0
