ITEM: TIMESTEP
0
ITEM: NUMBER OF ATOMS
80
ITEM: BOX BOUNDS pp pp pp
-1.0000000000000000e+01 1.0000000000000000e+01
-1.0000000000000000e+01 1.0000000000000000e+01
-1.0000000000000001e-01 1.0000000000000001e-01
ITEM: ATOMS id type xs ys zs
20 1 0.0840731 0.0163616 0.5
73 4 0.480753 0.00884839 0.5
28 2 0.192306 0.0941092 0.5
49 3 0.184392 0.0696005 0.5
39 2 0.387879 0.0867552 0.5
48 3 0.634085 0.0685179 0.5
36 2 0.949192 0.0680902 0.5
25 2 0.246632 0.139917 0.5
67 4 0.342663 0.130561 0.5
78 4 0.569234 0.120633 0.5
12 1 0.610052 0.136867 0.5
40 2 0.682044 0.105333 0.5
29 2 0.906594 0.117974 0.5
64 4 0.837102 0.172916 0.5
70 4 0.0177436 0.216945 0.5
15 1 0.482671 0.252989 0.5
62 4 0.543004 0.261519 0.5
79 4 0.601072 0.225387 0.5
5 1 0.259255 0.294442 0.5
52 3 0.470475 0.271362 0.5
35 2 0.0580312 0.330441 0.5
51 3 0.203151 0.357837 0.5
34 2 0.726919 0.329432 0.5
69 4 0.814027 0.359931 0.5
11 1 0.130148 0.405711 0.5
18 1 0.359042 0.410836 0.5
38 2 0.828845 0.401309 0.5
53 3 0.571991 0.457858 0.5
60 3 0.56533 0.503453 0.5
76 4 0.641965 0.499905 0.5
71 4 0.891979 0.499427 0.5
13 1 0.136047 0.537267 0.5
26 2 0.242134 0.547927 0.5
3 1 0.292172 0.536752 0.5
6 1 0.387966 0.548463 0.5
27 2 0.520232 0.541528 0.5
33 2 0.707119 0.550771 0.5
10 1 0.00366413 0.583047 0.5
4 1 0.190194 0.598018 0.5
24 2 0.258618 0.592422 0.5
58 3 0.270398 0.579795 0.5
14 1 0.349653 0.611306 0.5
77 4 0.339001 0.591601 0.5
8 1 0.483762 0.582917 0.5
42 3 0.52077 0.589648 0.5
41 3 0.633164 0.58749 0.5
61 4 0.741574 0.628058 0.5
74 4 0.848907 0.587968 0.5
2 1 0.933158 0.584791 0.5
19 1 0.549273 0.635801 0.5
17 1 0.605263 0.657615 0.5
65 4 0.970052 0.667128 0.5
44 3 0.154622 0.728092 0.5
22 2 0.19163 0.721307 0.5
46 3 0.250175 0.693429 0.5
23 2 0.344304 0.723921 0.5
32 2 0.429625 0.700012 0.5
43 3 0.794533 0.722177 0.5
55 3 0.940721 0.69993 0.5
66 4 0.0750725 0.744282 0.5
57 3 0.274453 0.738291 0.5
16 1 0.41761 0.777885 0.5
50 3 0.202642 0.795726 0.5
31 2 0.346513 0.840031 0.5
80 4 0.358351 0.804761 0.5
21 2 0.400179 0.815306 0.5
7 1 0.821254 0.814522 0.5
47 3 0.800131 0.801428 0.5
9 1 0.24138 0.868309 0.5
63 4 0.492407 0.888243 0.5
75 4 0.770979 0.849667 0.5
72 4 0.986785 0.889769 0.5
59 3 0.239122 0.927347 0.5
37 2 0.115903 0.986987 0.5
54 3 0.274348 0.96356 0.5
30 2 0.39168 0.958983 0.5
56 3 0.397153 0.94904 0.5
68 4 0.374603 0.950151 0.5
45 3 0.721542 0.958831 0.5
1 1 0.977387 0.948198 0.5
ITEM: TIMESTEP
10
ITEM: NUMBER OF ATOMS
80
ITEM: BOX BOUNDS pp pp pp
-9.2516975952303895e+00 9.2516975952303895e+00
-9.2516975952303895e+00 9.2516975952303895e+00
-1.0000000000000001e-01 1.0000000000000001e-01
ITEM: ATOMS id type xs ys zs
20 1 0.0839926 0.0164359 0.5
73 4 0.480753 0.00884839 0.5
28 2 0.192343 0.0942216 0.5
49 3 0.184355 0.0694881 0.5
39 2 0.387879 0.0867552 0.5
48 3 0.634085 0.0685178 0.5
36 2 0.949193 0.0680887 0.5
25 2 0.246632 0.139917 0.5
67 4 0.342663 0.130561 0.5
78 4 0.569186 0.120614 0.5
12 1 0.6101 0.136886 0.5
40 2 0.682044 0.105333 0.5
29 2 0.906592 0.117976 0.5
64 4 0.837102 0.172916 0.5
70 4 0.0177436 0.216945 0.5
15 1 0.482759 0.252856 0.5
62 4 0.543004 0.261519 0.5
79 4 0.601072 0.225387 0.5
5 1 0.259255 0.294442 0.5
52 3 0.470387 0.271495 0.5
35 2 0.0580312 0.330441 0.5
51 3 0.203151 0.357837 0.5
34 2 0.726919 0.329432 0.5
69 4 0.814019 0.359908 0.5
11 1 0.130148 0.405711 0.5
18 1 0.359042 0.410836 0.5
38 2 0.828853 0.401332 0.5
53 3 0.571994 0.457841 0.5
60 3 0.565328 0.503469 0.5
76 4 0.641965 0.499905 0.5
71 4 0.891979 0.499427 0.5
13 1 0.136046 0.537265 0.5
26 2 0.241998 0.547836 0.5
3 1 0.292296 0.536651 0.5
6 1 0.38798 0.548439 0.5
27 2 0.520275 0.541441 0.5
33 2 0.707119 0.550771 0.5
10 1 0.00370258 0.583046 0.5
4 1 0.190174 0.598025 0.5
24 2 0.258541 0.592619 0.5
58 3 0.270508 0.579786 0.5
14 1 0.3497 0.611444 0.5
77 4 0.338939 0.591486 0.5
8 1 0.483617 0.582949 0.5
42 3 0.52085 0.589667 0.5
41 3 0.633164 0.58749 0.5
61 4 0.741574 0.628058 0.5
74 4 0.848907 0.587968 0.5
2 1 0.933119 0.584792 0.5
19 1 0.549224 0.63581 0.5
17 1 0.605334 0.657643 0.5
65 4 0.970052 0.667128 0.5
44 3 0.154548 0.728105 0.5
22 2 0.191704 0.721293 0.5
46 3 0.250175 0.693428 0.5
23 2 0.344304 0.723921 0.5
32 2 0.429625 0.700012 0.5
43 3 0.794533 0.722177 0.5
55 3 0.940721 0.69993 0.5
66 4 0.0750725 0.744282 0.5
57 3 0.274454 0.738292 0.5
16 1 0.41766 0.777779 0.5
50 3 0.202642 0.795726 0.5
31 2 0.346475 0.840088 0.5
80 4 0.35834 0.804708 0.5
21 2 0.400179 0.815408 0.5
7 1 0.821381 0.814601 0.5
47 3 0.800004 0.801349 0.5
9 1 0.241381 0.868284 0.5
63 4 0.492407 0.888243 0.5
75 4 0.770979 0.849667 0.5
72 4 0.986785 0.889769 0.5
59 3 0.23912 0.92737 0.5
37 2 0.115984 0.986913 0.5
54 3 0.274349 0.963561 0.5
30 2 0.391699 0.959185 0.5
56 3 0.397309 0.948887 0.5
68 4 0.374427 0.950102 0.5
45 3 0.721542 0.958831 0.5
1 1 0.977387 0.948199 0.5
ITEM: TIMESTEP
20
ITEM: NUMBER OF ATOMS
80
ITEM: BOX BOUNDS pp pp pp
-8.3312706474978917e+00 8.3312706474978917e+00
-8.3312706474978917e+00 8.3312706474978917e+00
-1.0000000000000001e-01 1.0000000000000001e-01
ITEM: ATOMS id type xs ys zs
20 1 0.0836955 0.01671 0.5
73 4 0.480753 0.00884839 0.5
28 2 0.192467 0.094621 0.5
49 3 0.184225 0.0690836 0.5
39 2 0.387879 0.0867552 0.5
48 3 0.634073 0.0685041 0.5
36 2 0.949218 0.0680596 0.5
25 2 0.246638 0.139922 0.5
67 4 0.342663 0.130561 0.5
78 4 0.568996 0.120538 0.5
12 1 0.610279 0.13697 0.5
40 2 0.682066 0.105339 0.5
29 2 0.906567 0.118005 0.5
64 4 0.837102 0.172916 0.5
70 4 0.0177436 0.216945 0.5
15 1 0.483058 0.252382 0.5
62 4 0.543018 0.261521 0.5
79 4 0.601072 0.225387 0.5
5 1 0.259255 0.294442 0.5
52 3 0.470074 0.271966 0.5
35 2 0.0580312 0.330441 0.5
51 3 0.203151 0.357837 0.5
34 2 0.726919 0.329432 0.5
69 4 0.813983 0.359806 0.5
11 1 0.130148 0.405711 0.5
18 1 0.359042 0.410836 0.5
38 2 0.82889 0.401433 0.5
53 3 0.572006 0.45776 0.5
60 3 0.565337 0.503533 0.5
76 4 0.641965 0.499905 0.5
71 4 0.891979 0.499427 0.5
13 1 0.136018 0.537234 0.5
26 2 0.241503 0.547461 0.5
3 1 0.292778 0.536244 0.5
6 1 0.38805 0.548326 0.5
27 2 0.520425 0.541111 0.5
33 2 0.707119 0.550771 0.5
10 1 0.0038723 0.583041 0.5
4 1 0.190066 0.598101 0.5
24 2 0.258296 0.593356 0.5
58 3 0.270903 0.579785 0.5
14 1 0.349853 0.611966 0.5
77 4 0.338717 0.591077 0.5
8 1 0.483057 0.583062 0.5
42 3 0.52113 0.589737 0.5
41 3 0.633164 0.58749 0.5
61 4 0.741574 0.628058 0.5
74 4 0.848907 0.587968 0.5
2 1 0.93295 0.584797 0.5
19 1 0.549057 0.635867 0.5
17 1 0.605611 0.657751 0.5
65 4 0.970063 0.667115 0.5
44 3 0.154272 0.728156 0.5
22 2 0.191978 0.721244 0.5
46 3 0.250165 0.693405 0.5
23 2 0.344304 0.723921 0.5
32 2 0.429626 0.700001 0.5
43 3 0.794533 0.722177 0.5
55 3 0.94071 0.699942 0.5
66 4 0.0750725 0.744282 0.5
57 3 0.274466 0.738313 0.5
16 1 0.41784 0.777399 0.5
50 3 0.202642 0.795726 0.5
31 2 0.346308 0.840316 0.5
80 4 0.358285 0.8045 0.5
21 2 0.400218 0.815778 0.5
7 1 0.821843 0.814874 0.5
47 3 0.799552 0.801069 0.5
9 1 0.241385 0.868168 0.5
63 4 0.492407 0.888243 0.5
75 4 0.77097 0.849674 0.5
72 4 0.986789 0.889744 0.5
59 3 0.239096 0.927466 0.5
37 2 0.116281 0.986639 0.5
54 3 0.274369 0.963582 0.5
30 2 0.391772 0.959901 0.5
56 3 0.397865 0.948346 0.5
68 4 0.373797 0.949927 0.5
45 3 0.721542 0.958831 0.5
1 1 0.977383 0.948223 0.5
ITEM: TIMESTEP
30
ITEM: NUMBER OF ATOMS
80
ITEM: BOX BOUNDS pp pp pp
-7.6502248744073249e+00 7.6502248744073249e+00
-7.6502248744073249e+00 7.6502248744073249e+00
-1.0000000000000001e-01 1.0000000000000001e-01
ITEM: ATOMS id type xs ys zs
20 1 0.0831031 0.0172567 0.5
73 4 0.480753 0.00884839 0.5
28 2 0.192672 0.0953675 0.5
49 3 0.18397 0.0682959 0.5
39 2 0.38788 0.0867548 0.5
48 3 0.634022 0.0684108 0.5
36 2 0.949307 0.0679549 0.5
25 2 0.246687 0.139963 0.5
67 4 0.342662 0.130562 0.5
78 4 0.568597 0.120379 0.5
12 1 0.610594 0.137202 0.5
40 2 0.682202 0.105359 0.5
29 2 0.906478 0.118109 0.5
64 4 0.837102 0.172916 0.5
70 4 0.0177436 0.216945 0.5
15 1 0.483582 0.251462 0.5
62 4 0.543097 0.261533 0.5
79 4 0.601072 0.225387 0.5
5 1 0.259255 0.294442 0.5
52 3 0.469471 0.272875 0.5
35 2 0.0580312 0.330441 0.5
51 3 0.203151 0.357837 0.5
34 2 0.726919 0.329432 0.5
69 4 0.813899 0.359573 0.5
11 1 0.130148 0.405711 0.5
18 1 0.359042 0.410836 0.5
38 2 0.828973 0.401666 0.5
53 3 0.572035 0.457561 0.5
60 3 0.565392 0.503661 0.5
76 4 0.641965 0.499905 0.5
71 4 0.891979 0.499427 0.5
13 1 0.135913 0.537116 0.5
26 2 0.240531 0.546643 0.5
3 1 0.293767 0.535361 0.5
6 1 0.388248 0.548033 0.5
27 2 0.520696 0.540439 0.5
33 2 0.707119 0.550771 0.5
10 1 0.0042636 0.583032 0.5
4 1 0.189791 0.598361 0.5
24 2 0.257878 0.594845 0.5
58 3 0.271664 0.579842 0.5
14 1 0.350122 0.613046 0.5
77 4 0.33827 0.590305 0.5
8 1 0.481874 0.583267 0.5
42 3 0.521667 0.589869 0.5
41 3 0.633172 0.58747 0.5
61 4 0.741574 0.628058 0.5
74 4 0.848907 0.587968 0.5
2 1 0.932558 0.584806 0.5
19 1 0.548769 0.636047 0.5
17 1 0.606183 0.657996 0.5
65 4 0.970111 0.667062 0.5
44 3 0.153713 0.728258 0.5
22 2 0.192503 0.721157 0.5
46 3 0.250152 0.693305 0.5
23 2 0.344305 0.72392 0.5
32 2 0.429638 0.699925 0.5
43 3 0.794533 0.722177 0.5
55 3 0.940662 0.699995 0.5
66 4 0.0750725 0.744282 0.5
57 3 0.27451 0.738398 0.5
16 1 0.418213 0.776691 0.5
50 3 0.202641 0.795726 0.5
31 2 0.345928 0.840807 0.5
80 4 0.358128 0.80407 0.5
21 2 0.400372 0.816502 0.5
7 1 0.822774 0.815378 0.5
47 3 0.798677 0.800527 0.5
9 1 0.241396 0.867889 0.5
63 4 0.492407 0.888243 0.5
75 4 0.770913 0.849712 0.5
72 4 0.986805 0.889644 0.5
59 3 0.239011 0.927669 0.5
37 2 0.116873 0.986092 0.5
54 3 0.274443 0.963658 0.5
30 2 0.391924 0.961277 0.5
56 3 0.398931 0.947311 0.5
68 4 0.37258 0.949586 0.5
45 3 0.721542 0.958831 0.5
1 1 0.977367 0.948324 0.5
ITEM: TIMESTEP
40
ITEM: NUMBER OF ATOMS
80
ITEM: BOX BOUNDS pp pp pp
-7.1715510036866323e+00 7.1715510036866323e+00
-7.1715510036866323e+00 7.1715510036866323e+00
-1.0000000000000001e-01 1.0000000000000001e-01
ITEM: ATOMS id type xs ys zs
20 1 0.0821503 0.018136 0.5
73 4 0.480753 0.00884839 0.5
28 2 0.192932 0.0964941 0.5
49 3 0.183569 0.0670522 0.5
39 2 0.387893 0.086742 0.5
48 3 0.633908 0.068154 0.5
36 2 0.949502 0.0677276 0.5
25 2 0.246828 0.14008 0.5
67 4 0.342649 0.130574 0.5
78 4 0.567929 0.120113 0.5
12 1 0.611026 0.137687 0.5
40 2 0.682552 0.105397 0.5
29 2 0.906284 0.118337 0.5
64 4 0.837102 0.172916 0.5
70 4 0.0177436 0.216945 0.5
15 1 0.484325 0.250008 0.5
62 4 0.543295 0.261565 0.5
79 4 0.601072 0.225387 0.5
5 1 0.25926 0.294436 0.5
52 3 0.46853 0.274297 0.5
35 2 0.0580312 0.330441 0.5
51 3 0.203147 0.357842 0.5
34 2 0.726919 0.329432 0.5
69 4 0.813751 0.35916 0.5
11 1 0.130147 0.405712 0.5
18 1 0.359042 0.410836 0.5
38 2 0.829121 0.402079 0.5
53 3 0.572088 0.457194 0.5
60 3 0.565535 0.503867 0.5
76 4 0.641965 0.499905 0.5
71 4 0.891979 0.499427 0.5
13 1 0.135679 0.536852 0.5
26 2 0.238991 0.545246 0.5
3 1 0.295295 0.533798 0.5
6 1 0.388674 0.547459 0.5
27 2 0.521092 0.539349 0.5
33 2 0.707119 0.550771 0.5
10 1 0.00495931 0.583015 0.5
4 1 0.189264 0.598917 0.5
24 2 0.257291 0.597253 0.5
58 3 0.27286 0.579997 0.5
14 1 0.350546 0.614863 0.5
77 4 0.337548 0.589154 0.5
8 1 0.479913 0.583578 0.5
42 3 0.522502 0.590066 0.5
41 3 0.633205 0.587383 0.5
61 4 0.741574 0.628058 0.5
74 4 0.848907 0.587968 0.5
2 1 0.931863 0.584824 0.5
19 1 0.548365 0.636429 0.5
17 1 0.60712 0.658457 0.5
65 4 0.970221 0.666939 0.5
44 3 0.152806 0.728425 0.5
22 2 0.193299 0.721038 0.5
46 3 0.250161 0.693063 0.5
23 2 0.34431 0.723896 0.5
32 2 0.42967 0.699713 0.5
43 3 0.794533 0.722177 0.5
55 3 0.940552 0.700119 0.5
66 4 0.0750725 0.744282 0.5
57 3 0.274582 0.738593 0.5
16 1 0.418866 0.775636 0.5
50 3 0.202631 0.795711 0.5
31 2 0.345254 0.841639 0.5
80 4 0.357797 0.803367 0.5
21 2 0.400717 0.817657 0.5
7 1 0.824291 0.81613 0.5
47 3 0.797306 0.799676 0.5
9 1 0.241427 0.867402 0.5
63 4 0.492407 0.888243 0.5
75 4 0.770768 0.849811 0.5
72 4 0.986842 0.889413 0.5
59 3 0.238829 0.928012 0.5
37 2 0.117826 0.985213 0.5
54 3 0.274605 0.963823 0.5
30 2 0.392172 0.963433 0.5
56 3 0.400581 0.945697 0.5
68 4 0.370682 0.949044 0.5
45 3 0.721542 0.958831 0.5
1 1 0.97733 0.948554 0.5
ITEM: TIMESTEP
50
ITEM: NUMBER OF ATOMS
80
ITEM: BOX BOUNDS pp pp pp
-6.8502495789328668e+00 6.8502495789328668e+00
-6.8502495789328668e+00 6.8502495789328668e+00
-1.0000000000000001e-01 1.0000000000000001e-01
ITEM: ATOMS id type xs ys zs
20 1 0.0808093 0.0193735 0.5
73 4 0.480753 0.00884839 0.5
28 2 0.19321 0.0979934 0.5
49 3 0.183015 0.0653264 0.5
39 2 0.387942 0.0866947 0.5
48 3 0.633712 0.0676668 0.5
36 2 0.94983 0.0673427 0.5
25 2 0.247105 0.140306 0.5
67 4 0.3426 0.130622 0.5
78 4 0.566959 0.119724 0.5
12 1 0.611546 0.138504 0.5
40 2 0.683197 0.105456 0.5
29 2 0.905955 0.118722 0.5
64 4 0.837102 0.172916 0.5
70 4 0.0177436 0.216945 0.5
15 1 0.485256 0.247985 0.5
62 4 0.543657 0.261629 0.5
79 4 0.601072 0.225387 0.5
5 1 0.259294 0.294398 0.5
52 3 0.467237 0.276255 0.5
35 2 0.058031 0.330441 0.5
51 3 0.203134 0.357867 0.5
34 2 0.726919 0.329432 0.5
69 4 0.813528 0.358535 0.5
11 1 0.130126 0.405726 0.5
18 1 0.359042 0.410836 0.5
38 2 0.829345 0.402704 0.5
53 3 0.57217 0.456623 0.5
60 3 0.565802 0.504152 0.5
76 4 0.641965 0.499905 0.5
71 4 0.891979 0.499427 0.5
13 1 0.135279 0.536396 0.5
26 2 0.236861 0.543199 0.5
3 1 0.297311 0.531415 0.5
6 1 0.38938 0.546525 0.5
27 2 0.521595 0.537806 0.5
33 2 0.707119 0.55077 0.5
10 1 0.00601141 0.582988 0.5
4 1 0.188408 0.599859 0.5
24 2 0.256542 0.600637 0.5
58 3 0.274502 0.580258 0.5
14 1 0.351197 0.617536 0.5
77 4 0.336543 0.587663 0.5
8 1 0.477135 0.584014 0.5
42 3 0.523647 0.590312 0.5
41 3 0.633278 0.587186 0.5
61 4 0.741574 0.628058 0.5
74 4 0.848907 0.587969 0.5
2 1 0.930811 0.58485 0.5
19 1 0.54786 0.637083 0.5
17 1 0.608458 0.659195 0.5
65 4 0.970415 0.666722 0.5
44 3 0.151517 0.728661 0.5
22 2 0.194351 0.720874 0.5
46 3 0.250218 0.692625 0.5
23 2 0.344303 0.72382 0.5
32 2 0.429744 0.699298 0.5
43 3 0.794533 0.722177 0.5
55 3 0.940358 0.700336 0.5
66 4 0.0750725 0.744282 0.5
57 3 0.274663 0.738938 0.5
16 1 0.419884 0.77426 0.5
50 3 0.202593 0.795671 0.5
31 2 0.344226 0.842865 0.5
80 4 0.357242 0.802365 0.5
21 2 0.40131 0.819281 0.5
7 1 0.826448 0.817126 0.5
47 3 0.795421 0.79849 0.5
9 1 0.241502 0.866699 0.5
63 4 0.492407 0.888243 0.5
75 4 0.770495 0.85 0.5
72 4 0.986906 0.889013 0.5
59 3 0.23852 0.928514 0.5
37 2 0.119167 0.983975 0.5
54 3 0.274883 0.964104 0.5
30 2 0.392525 0.966408 0.5
56 3 0.402816 0.943478 0.5
68 4 0.368094 0.948288 0.5
45 3 0.721542 0.958831 0.5
1 1 0.977266 0.948955 0.5
ITEM: TIMESTEP
60
ITEM: NUMBER OF ATOMS
80
ITEM: BOX BOUNDS pp pp pp
-6.6293250739119456e+00 6.6293250739119456e+00
-6.6293250739119456e+00 6.6293250739119456e+00
-1.0000000000000001e-01 1.0000000000000001e-01
ITEM: ATOMS id type xs ys zs
20 1 0.0790786 0.0209707 0.5
73 4 0.480753 0.00884839 0.5
28 2 0.19347 0.0998373 0.5
49 3 0.182309 0.0631219 0.5
39 2 0.388045 0.086595 0.5
48 3 0.633422 0.0669071 0.5
36 2 0.950312 0.066779 0.5
25 2 0.247551 0.140667 0.5
67 4 0.342497 0.130722 0.5
78 4 0.565678 0.119205 0.5
12 1 0.612125 0.139706 0.5
40 2 0.68419 0.105533 0.5
29 2 0.905474 0.119285 0.5
64 4 0.837102 0.172916 0.5
70 4 0.0177436 0.216945 0.5
15 1 0.486331 0.245391 0.5
62 4 0.544214 0.261737 0.5
79 4 0.601072 0.225387 0.5
5 1 0.259378 0.294303 0.5
52 3 0.465605 0.278742 0.5
35 2 0.0580226 0.330432 0.5
51 3 0.203117 0.357917 0.5
34 2 0.726919 0.329432 0.5
69 4 0.813224 0.357686 0.5
11 1 0.130068 0.405779 0.5
18 1 0.359042 0.410836 0.5
38 2 0.829649 0.403553 0.5
53 3 0.572282 0.455829 0.5
60 3 0.566228 0.504515 0.5
76 4 0.641965 0.499905 0.5
71 4 0.891979 0.499427 0.5
13 1 0.134663 0.535717 0.5
26 2 0.234185 0.540494 0.5
3 1 0.299732 0.528151 0.5
6 1 0.390386 0.545182 0.5
27 2 0.52217 0.535803 0.5
33 2 0.70713 0.550765 0.5
10 1 0.00744445 0.582953 0.5
4 1 0.187181 0.601239 0.5
24 2 0.255653 0.604977 0.5
58 3 0.276559 0.580617 0.5
14 1 0.352123 0.621102 0.5
77 4 0.335269 0.58589 0.5
8 1 0.473565 0.584592 0.5
42 3 0.525094 0.590581 0.5
41 3 0.63339 0.586854 0.5
61 4 0.741574 0.628058 0.5
74 4 0.848892 0.587969 0.5
2 1 0.929393 0.584884 0.5
19 1 0.547269 0.638071 0.5
17 1 0.610212 0.660246 0.5
65 4 0.970705 0.666398 0.5
44 3 0.14984 0.728967 0.5
22 2 0.195618 0.72065 0.5
46 3 0.250346 0.691954 0.5
23 2 0.344254 0.723676 0.5
32 2 0.429892 0.698626 0.5
43 3 0.794533 0.722177 0.5
55 3 0.940068 0.70066 0.5
66 4 0.0750725 0.744282 0.5
57 3 0.274743 0.739462 0.5
16 1 0.421318 0.772606 0.5
50 3 0.202511 0.795604 0.5
31 2 0.342819 0.844502 0.5
80 4 0.356439 0.801054 0.5
21 2 0.402184 0.821388 0.5
7 1 0.829256 0.818351 0.5
47 3 0.793038 0.796962 0.5
9 1 0.241634 0.865793 0.5
63 4 0.492407 0.888243 0.5
75 4 0.77007 0.850304 0.5
72 4 0.987002 0.888417 0.5
59 3 0.238062 0.92918 0.5
37 2 0.120898 0.982378 0.5
54 3 0.275296 0.964518 0.5
30 2 0.392978 0.970188 0.5
56 3 0.405596 0.940671 0.5
68 4 0.364862 0.947316 0.5
45 3 0.721542 0.958831 0.5
1 1 0.97717 0.949551 0.5
ITEM: TIMESTEP
70
ITEM: NUMBER OF ATOMS
80
ITEM: BOX BOUNDS pp pp pp
-6.4895320230099447e+00 6.4895320230099447e+00
-6.4895320230099447e+00 6.4895320230099447e+00
-1.0000000000000001e-01 1.0000000000000001e-01
ITEM: ATOMS id type xs ys zs
20 1 0.0769804 0.0229071 0.5
73 4 0.480753 0.00884839 0.5
28 2 0.193673 0.101982 0.5
49 3 0.181465 0.060469 0.5
39 2 0.388213 0.0864314 0.5
48 3 0.633031 0.0658586 0.5
36 2 0.950952 0.0660292 0.5
25 2 0.248192 0.141176 0.5
67 4 0.342328 0.130885 0.5
78 4 0.564094 0.118556 0.5
12 1 0.612736 0.14131 0.5
40 2 0.685554 0.105622 0.5
29 2 0.904834 0.120035 0.5
64 4 0.837102 0.172916 0.5
70 4 0.0177436 0.216945 0.5
15 1 0.487506 0.242249 0.5
62 4 0.544981 0.261902 0.5
79 4 0.601072 0.225392 0.5
5 1 0.259528 0.294134 0.5
52 3 0.463663 0.281719 0.5
35 2 0.0579894 0.330397 0.5
51 3 0.203101 0.357999 0.5
34 2 0.726919 0.329432 0.5
69 4 0.812839 0.356612 0.5
11 1 0.129967 0.405901 0.5
18 1 0.359042 0.410836 0.5
38 2 0.830034 0.404627 0.5
53 3 0.572423 0.454808 0.5
60 3 0.566843 0.504949 0.5
76 4 0.641965 0.499905 0.5
71 4 0.891979 0.499427 0.5
13 1 0.133783 0.534796 0.5
26 2 0.231061 0.53718 0.5
3 1 0.302457 0.524028 0.5
6 1 0.391676 0.543416 0.5
27 2 0.522772 0.533369 0.5
33 2 0.70717 0.550745 0.5
10 1 0.00925644 0.582908 0.5
4 1 0.185579 0.60307 0.5
24 2 0.254665 0.610172 0.5
58 3 0.27894 0.581048 0.5
14 1 0.353335 0.625482 0.5
77 4 0.333781 0.583908 0.5
8 1 0.469286 0.585331 0.5
42 3 0.526821 0.590835 0.5
41 3 0.633524 0.586376 0.5
61 4 0.741574 0.628058 0.5
74 4 0.848833 0.587971 0.5
2 1 0.92764 0.584927 0.5
19 1 0.546597 0.639427 0.5
17 1 0.612376 0.661623 0.5
65 4 0.971096 0.665961 0.5
44 3 0.147791 0.729342 0.5
22 2 0.197035 0.720356 0.5
46 3 0.250565 0.691034 0.5
23 2 0.344139 0.723496 0.5
32 2 0.43014 0.69766 0.5
43 3 0.794534 0.72217 0.5
55 3 0.939677 0.701097 0.5
66 4 0.0750725 0.744282 0.5
57 3 0.274829 0.740186 0.5
16 1 0.423172 0.77074 0.5
50 3 0.202371 0.795504 0.5
31 2 0.341073 0.846522 0.5
80 4 0.355389 0.799442 0.5
21 2 0.403347 0.823971 0.5
7 1 0.83268 0.819779 0.5
47 3 0.7902 0.795117 0.5
9 1 0.241806 0.864711 0.5
63 4 0.492407 0.888243 0.5
75 4 0.769484 0.850728 0.5
72 4 0.987131 0.887616 0.5
59 3 0.237442 0.93001 0.5
37 2 0.122996 0.980442 0.5
54 3 0.275854 0.965072 0.5
30 2 0.393519 0.974704 0.5
56 3 0.40884 0.937328 0.5
68 4 0.361077 0.946142 0.5
45 3 0.721542 0.958831 0.5
1 1 0.977041 0.950352 0.5
ITEM: TIMESTEP
80
ITEM: NUMBER OF ATOMS
80
ITEM: BOX BOUNDS pp pp pp
-6.4201016210703852e+00 6.4201016210703852e+00
-6.4201016210703852e+00 6.4201016210703852e+00
-1.0000000000000001e-01 1.0000000000000001e-01
ITEM: ATOMS id type xs ys zs
20 1 0.0745646 0.0251397 0.5
73 4 0.480753 0.00884839 0.5
28 2 0.193785 0.104365 0.5
49 3 0.180505 0.0574268 0.5
39 2 0.388453 0.0861991 0.5
48 3 0.632541 0.0645334 0.5
36 2 0.951745 0.065101 0.5
25 2 0.24904 0.141835 0.5
67 4 0.342089 0.131117 0.5
78 4 0.562238 0.117782 0.5
12 1 0.613361 0.143284 0.5
40 2 0.68728 0.105716 0.5
29 2 0.904041 0.120963 0.5
64 4 0.837102 0.172916 0.5
70 4 0.0177436 0.216945 0.5
15 1 0.48873 0.238621 0.5
62 4 0.545957 0.262135 0.5
79 4 0.601068 0.225423 0.5
5 1 0.25975 0.293882 0.5
52 3 0.461463 0.285114 0.5
35 2 0.05792 0.330324 0.5
51 3 0.20309 0.358112 0.5
34 2 0.726919 0.329432 0.5
69 4 0.812381 0.355333 0.5
11 1 0.129825 0.406112 0.5
18 1 0.359042 0.410835 0.5
38 2 0.830492 0.405906 0.5
53 3 0.57259 0.453569 0.5
60 3 0.567669 0.505445 0.5
76 4 0.641965 0.499905 0.5
71 4 0.891979 0.499427 0.5
13 1 0.132618 0.533634 0.5
26 2 0.227621 0.533362 0.5
3 1 0.305371 0.51916 0.5
6 1 0.39321 0.541246 0.5
27 2 0.523347 0.530577 0.5
33 2 0.707254 0.550705 0.5
10 1 0.0114167 0.582855 0.5
4 1 0.183637 0.605327 0.5
24 2 0.253638 0.616005 0.5
58 3 0.281519 0.581523 0.5
14 1 0.354775 0.63048 0.5
77 4 0.332157 0.581796 0.5
8 1 0.464448 0.586243 0.5
42 3 0.528787 0.591033 0.5
41 3 0.633661 0.585756 0.5
61 4 0.741574 0.628058 0.5
74 4 0.848705 0.587976 0.5
2 1 0.925608 0.584976 0.5
19 1 0.545841 0.64115 0.5
17 1 0.614925 0.663311 0.5
65 4 0.971584 0.665414 0.5
44 3 0.145412 0.729776 0.5
22 2 0.198532 0.71999 0.5
46 3 0.250889 0.689907 0.5
23 2 0.343942 0.72332 0.5
32 2 0.430522 0.696407 0.5
43 3 0.794536 0.722136 0.5
55 3 0.939189 0.701643 0.5
66 4 0.0750725 0.744282 0.5
57 3 0.274924 0.741114 0.5
16 1 0.425411 0.768747 0.5
50 3 0.202163 0.795369 0.5
31 2 0.339063 0.848863 0.5
80 4 0.354124 0.797564 0.5
21 2 0.40478 0.826989 0.5
7 1 0.836636 0.821377 0.5
47 3 0.786975 0.79302 0.5
9 1 0.241997 0.86349 0.5
63 4 0.492407 0.888243 0.5
75 4 0.768751 0.85126 0.5
72 4 0.987292 0.886617 0.5
59 3 0.236657 0.93099 0.5
37 2 0.125414 0.97821 0.5
54 3 0.276559 0.96576 0.5
30 2 0.394127 0.979834 0.5
56 3 0.412433 0.933544 0.5
68 4 0.356876 0.944796 0.5
45 3 0.721542 0.958831 0.5
1 1 0.976878 0.951349 0.5
ITEM: TIMESTEP
90
ITEM: NUMBER OF ATOMS
80
ITEM: BOX BOUNDS pp pp pp
-6.4083794065172786e+00 6.4083794065172786e+00
-6.4083794065172786e+00 6.4083794065172786e+00
-1.0000000000000001e-01 1.0000000000000001e-01
ITEM: ATOMS id type xs ys zs
20 1 0.071909 0.027613 0.5
73 4 0.480753 0.00884839 0.5
28 2 0.193779 0.106915 0.5
49 3 0.179456 0.0540764 0.5
39 2 0.388762 0.0859002 0.5
48 3 0.631962 0.0629701 0.5
36 2 0.952671 0.064016 0.5
25 2 0.250095 0.142635 0.5
67 4 0.34178 0.131416 0.5
78 4 0.56016 0.116899 0.5
12 1 0.613982 0.145567 0.5
40 2 0.689326 0.105804 0.5
29 2 0.903114 0.122048 0.5
64 4 0.837102 0.172916 0.5
70 4 0.0177436 0.216945 0.5
15 1 0.489959 0.234593 0.5
62 4 0.54712 0.262443 0.5
79 4 0.601057 0.225498 0.5
5 1 0.260047 0.293546 0.5
52 3 0.45907 0.288834 0.5
35 2 0.05781 0.330209 0.5
51 3 0.203086 0.358256 0.5
34 2 0.726919 0.329432 0.5
69 4 0.811861 0.353882 0.5
11 1 0.129643 0.406419 0.5
18 1 0.359054 0.41081 0.5
38 2 0.831011 0.407357 0.5
53 3 0.572775 0.452139 0.5
60 3 0.568719 0.505993 0.5
76 4 0.641965 0.499905 0.5
71 4 0.891979 0.499427 0.5
13 1 0.131169 0.532253 0.5
26 2 0.224015 0.529197 0.5
3 1 0.308343 0.513757 0.5
6 1 0.394924 0.538723 0.5
27 2 0.523839 0.527528 0.5
33 2 0.707388 0.55064 0.5
10 1 0.0138707 0.582794 0.5
4 1 0.181421 0.607941 0.5
24 2 0.252637 0.622198 0.5
58 3 0.284155 0.582011 0.5
14 1 0.356331 0.635845 0.5
77 4 0.33048 0.579631 0.5
8 1 0.459261 0.58733 0.5
42 3 0.530941 0.591136 0.5
41 3 0.633785 0.585008 0.5
61 4 0.741574 0.628058 0.5
74 4 0.848489 0.587985 0.5
2 1 0.92337 0.585028 0.5
19 1 0.544993 0.643204 0.5
17 1 0.617812 0.665272 0.5
65 4 0.97216 0.664771 0.5
44 3 0.142762 0.730261 0.5
22 2 0.200042 0.71956 0.5
46 3 0.251325 0.68864 0.5
23 2 0.34366 0.723179 0.5
32 2 0.431061 0.694895 0.5
43 3 0.794543 0.722057 0.5
55 3 0.938614 0.702286 0.5
66 4 0.0750725 0.744282 0.5
57 3 0.27503 0.742236 0.5
16 1 0.427973 0.766708 0.5
50 3 0.201879 0.795196 0.5
31 2 0.336872 0.851449 0.5
80 4 0.352697 0.795488 0.5
21 2 0.406436 0.830374 0.5
7 1 0.841001 0.823102 0.5
47 3 0.783452 0.790758 0.5
9 1 0.242186 0.86217 0.5
63 4 0.492407 0.888243 0.5
75 4 0.767902 0.851876 0.5
72 4 0.987481 0.885443 0.5
59 3 0.235715 0.9321 0.5
37 2 0.128083 0.975747 0.5
54 3 0.277402 0.966571 0.5
30 2 0.394776 0.985408 0.5
56 3 0.416235 0.929446 0.5
68 4 0.352424 0.94332 0.5
45 3 0.721542 0.958831 0.5
1 1 0.976676 0.952513 0.5
ITEM: TIMESTEP
100
ITEM: NUMBER OF ATOMS
80
ITEM: BOX BOUNDS pp pp pp
-6.4370517111534529e+00 6.4370517111534529e+00
-6.4370517111534529e+00 6.4370517111534529e+00
-1.0000000000000001e-01 1.0000000000000001e-01
ITEM: ATOMS id type xs ys zs
20 1 0.0690962 0.0302636 0.5
73 4 0.480753 0.00884839 0.5
28 2 0.193635 0.109561 0.5
49 3 0.178347 0.0505055 0.5
39 2 0.389131 0.0855519 0.5
48 3 0.631311 0.0612251 0.5
36 2 0.953706 0.0628044 0.5
25 2 0.251348 0.14356 0.5
67 4 0.341411 0.131774 0.5
78 4 0.557914 0.115926 0.5
12 1 0.614592 0.148077 0.5
40 2 0.691634 0.105877 0.5
29 2 0.902079 0.12326 0.5
64 4 0.837102 0.172916 0.5
70 4 0.0177436 0.216945 0.5
15 1 0.491156 0.230269 0.5
62 4 0.54844 0.262828 0.5
79 4 0.601036 0.225632 0.5
5 1 0.260411 0.293134 0.5
52 3 0.456553 0.292773 0.5
35 2 0.0576612 0.330052 0.5
51 3 0.203091 0.358426 0.5
34 2 0.726919 0.329432 0.5
69 4 0.811294 0.352298 0.5
11 1 0.129422 0.406818 0.5
18 1 0.359097 0.410724 0.5
38 2 0.831578 0.408941 0.5
53 3 0.572972 0.450548 0.5
60 3 0.570001 0.506586 0.5
76 4 0.641965 0.499905 0.5
71 4 0.891979 0.499427 0.5
13 1 0.129459 0.530688 0.5
26 2 0.220392 0.524859 0.5
3 1 0.311254 0.508014 0.5
6 1 0.396748 0.535913 0.5
27 2 0.524188 0.524316 0.5
33 2 0.707575 0.550551 0.5
10 1 0.0165514 0.582728 0.5
4 1 0.178992 0.610826 0.5
24 2 0.251702 0.628496 0.5
58 3 0.286731 0.582481 0.5
14 1 0.357891 0.641337 0.5
77 4 0.328832 0.577472 0.5
8 1 0.453945 0.588571 0.5
42 3 0.533226 0.591111 0.5
41 3 0.633882 0.584157 0.5
61 4 0.741574 0.628058 0.5
74 4 0.848173 0.587997 0.5
2 1 0.921006 0.585082 0.5
19 1 0.544042 0.645554 0.5
17 1 0.620983 0.667456 0.5
65 4 0.972806 0.664048 0.5
44 3 0.139909 0.730783 0.5
22 2 0.201507 0.719081 0.5
46 3 0.251877 0.68731 0.5
23 2 0.343299 0.723101 0.5
32 2 0.431766 0.693175 0.5
43 3 0.794559 0.721922 0.5
55 3 0.937968 0.703009 0.5
66 4 0.0750725 0.744282 0.5
57 3 0.275141 0.743533 0.5
16 1 0.430786 0.764694 0.5
50 3 0.201516 0.794983 0.5
31 2 0.334583 0.854201 0.5
80 4 0.351179 0.793293 0.5
21 2 0.408254 0.834039 0.5
7 1 0.845634 0.824913 0.5
47 3 0.779726 0.78842 0.5
9 1 0.242356 0.860792 0.5
63 4 0.492407 0.888243 0.5
75 4 0.766979 0.852539 0.5
72 4 0.987692 0.884125 0.5
59 3 0.23463 0.933314 0.5
37 2 0.130928 0.973122 0.5
54 3 0.278369 0.967482 0.5
30 2 0.395439 0.991233 0.5
56 3 0.420113 0.925168 0.5
68 4 0.347884 0.941764 0.5
45 3 0.721542 0.958831 0.5
1 1 0.976432 0.953805 0.5
ITEM: TIMESTEP
110
ITEM: NUMBER OF ATOMS
80
ITEM: BOX BOUNDS pp pp pp
-6.4826764541331530e+00 6.4826764541331530e+00
-6.4826764541331530e+00 6.4826764541331530e+00
-1.0000000000000001e-01 1.0000000000000001e-01
ITEM: ATOMS id type xs ys zs
20 1 0.0661972 0.033031 0.5
73 4 0.480753 0.00884839 0.5
28 2 0.193342 0.112244 0.5
49 3 0.177204 0.0467916 0.5
39 2 0.389547 0.0851985 0.5
48 3 0.630606 0.0593601 0.5
36 2 0.954822 0.0615051 0.5
25 2 0.252784 0.144591 0.5
67 4 0.340991 0.132181 0.5
78 4 0.555553 0.114885 0.5
12 1 0.615185 0.150731 0.5
40 2 0.694139 0.105926 0.5
29 2 0.900962 0.124569 0.5
64 4 0.837102 0.172916 0.5
70 4 0.0177436 0.216945 0.5
15 1 0.492297 0.225743 0.5
62 4 0.549883 0.263287 0.5
79 4 0.601003 0.225835 0.5
5 1 0.260834 0.292655 0.5
52 3 0.453969 0.29684 0.5
35 2 0.0574792 0.32986 0.5
51 3 0.203106 0.358618 0.5
34 2 0.726919 0.329432 0.5
69 4 0.810694 0.350622 0.5
11 1 0.129166 0.407294 0.5
18 1 0.359186 0.410542 0.5
38 2 0.832179 0.410617 0.5
53 3 0.573178 0.448826 0.5
60 3 0.571514 0.507219 0.5
76 4 0.641965 0.499905 0.5
71 4 0.891979 0.499427 0.5
13 1 0.127518 0.52898 0.5
26 2 0.216863 0.520475 0.5
3 1 0.314012 0.502079 0.5
6 1 0.398624 0.532885 0.5
27 2 0.524343 0.521018 0.5
33 2 0.70781 0.550439 0.5
10 1 0.0193921 0.582659 0.5
4 1 0.176396 0.613881 0.5
24 2 0.250861 0.634736 0.5
58 3 0.289164 0.582912 0.5
14 1 0.359365 0.646762 0.5
77 4 0.327283 0.575351 0.5
8 1 0.448685 0.589937 0.5
42 3 0.535589 0.590935 0.5
41 3 0.633944 0.583227 0.5
61 4 0.741574 0.628058 0.5
74 4 0.847748 0.588014 0.5
2 1 0.918587 0.585136 0.5
19 1 0.542975 0.64816 0.5
17 1 0.624389 0.669807 0.5
65 4 0.973507 0.663265 0.5
44 3 0.136915 0.731333 0.5
22 2 0.202888 0.718581 0.5
46 3 0.252551 0.685991 0.5
23 2 0.342875 0.723109 0.5
32 2 0.432632 0.691305 0.5
43 3 0.794589 0.721725 0.5
55 3 0.937267 0.703793 0.5
66 4 0.0750703 0.744282 0.5
57 3 0.275251 0.74498 0.5
16 1 0.43377 0.762762 0.5
50 3 0.201074 0.794729 0.5
31 2 0.332272 0.857049 0.5
80 4 0.349638 0.791059 0.5
21 2 0.41017 0.8379 0.5
7 1 0.850401 0.826773 0.5
47 3 0.775879 0.786083 0.5
9 1 0.24249 0.859387 0.5
63 4 0.492407 0.888243 0.5
75 4 0.766029 0.853213 0.5
72 4 0.987922 0.882698 0.5
59 3 0.233419 0.934611 0.5
37 2 0.13388 0.970397 0.5
54 3 0.279443 0.968476 0.5
30 2 0.396096 0.997107 0.5
56 3 0.423988 0.920824 0.5
68 4 0.343356 0.940182 0.5
45 3 0.721542 0.958831 0.5
1 1 0.976151 0.955181 0.5
ITEM: TIMESTEP
120
ITEM: NUMBER OF ATOMS
80
ITEM: BOX BOUNDS pp pp pp
-6.5184120481123777e+00 6.5184120481123777e+00
-6.5184120481123777e+00 6.5184120481123777e+00
-1.0000000000000001e-01 1.0000000000000001e-01
ITEM: ATOMS id type xs ys zs
20 1 0.0632617 0.0358718 0.5
73 4 0.480753 0.00884839 0.5
28 2 0.192892 0.114925 0.5
49 3 0.176045 0.0429922 0.5
39 2 0.389998 0.0848857 0.5
48 3 0.629864 0.0574288 0.5
36 2 0.955994 0.0601562 0.5
25 2 0.254397 0.145715 0.5
67 4 0.34053 0.132627 0.5
78 4 0.553111 0.11379 0.5
12 1 0.615765 0.153457 0.5
40 2 0.696791 0.105944 0.5
29 2 0.899783 0.12595 0.5
64 4 0.837102 0.172916 0.5
70 4 0.0177436 0.216945 0.5
15 1 0.493372 0.221087 0.5
62 4 0.551421 0.263813 0.5
79 4 0.600955 0.226119 0.5
5 1 0.261308 0.292117 0.5
52 3 0.451357 0.30097 0.5
35 2 0.0572703 0.329639 0.5
51 3 0.203131 0.358829 0.5
34 2 0.726919 0.329432 0.5
69 4 0.810071 0.348882 0.5
11 1 0.128877 0.407827 0.5
18 1 0.359339 0.410232 0.5
38 2 0.832802 0.412357 0.5
53 3 0.573391 0.44699 0.5
60 3 0.573262 0.507895 0.5
76 4 0.641965 0.499905 0.5
71 4 0.891979 0.499427 0.5
13 1 0.125383 0.527162 0.5
26 2 0.213473 0.516088 0.5
3 1 0.316557 0.496062 0.5
6 1 0.400517 0.529691 0.5
27 2 0.52426 0.517685 0.5
33 2 0.708092 0.550307 0.5
10 1 0.0223322 0.582595 0.5
4 1 0.17366 0.617019 0.5
24 2 0.250144 0.640808 0.5