ITEM: TIMESTEP
500
ITEM: NUMBER OF ATOMS
60
ITEM: BOX BOUNDS pp pp pp
-4.7921097863296351e+00 4.7921097863296351e+00
-4.7927045844088960e+00 4.7927045844088960e+00
-1.0000000000000001e-01 1.0000000000000001e-01
ITEM: ATOMS id type xs ys zs
28 1 0.0514542 0.0946668 0.499699
63 1 0.572274 0.0812756 0.499741
25 1 0.5874 0.985818 0.500463
7 1 0.808753 0.0653538 0.500294
31 1 0.951744 0.0192678 0.500577
10 1 0.164209 0.167172 0.499711
51 1 0.259319 0.0918105 0.500318
60 1 0.355391 0.0914706 0.499942
32 1 0.424869 0.179542 0.500273
12 1 0.56816 0.199703 0.50025
38 1 0.671953 0.0826237 0.499977
3 1 0.879357 0.208626 0.499784
69 1 0.958271 0.123189 0.499983
6 1 0.292595 0.209106 0.499883
8 1 0.727664 0.206742 0.499989
77 1 0.809663 0.291417 0.499855
2 1 0.0379865 0.235309 0.500097
18 1 0.069348 0.388423 0.500041
40 1 0.264368 0.343542 0.500039
39 1 0.401493 0.305699 0.500181
43 1 0.55973 0.484889 0.500157
26 1 0.623272 0.392865 0.499924
78 1 0.636483 0.491735 0.499876
4 1 0.754374 0.38836 0.499479
5 1 0.922739 0.351255 0.500415
59 1 0.086116 0.519428 0.500026
15 1 0.204094 0.471085 0.500117
20 1 0.352759 0.447438 0.499913
44 1 0.473495 0.479388 0.500496
65 1 0.607121 0.546161 0.500066
13 1 0.73215 0.533279 0.499778
61 1 0.838056 0.572131 0.500416
23 1 0.873631 0.483149 0.500086
21 1 0.983117 0.483062 0.49991
1 1 0.0412092 0.623408 0.499826
53 1 0.162558 0.597545 0.500169
24 1 0.52432 0.582591 0.499714
72 1 0.775486 0.638433 0.49959
76 1 0.849796 0.633307 0.49952
66 1 0.896486 0.683604 0.500086
49 1 0.920061 0.595006 0.500033
73 1 0.96976 0.704972 0.500246
50 1 0.148772 0.686823 0.499619
11 1 0.260427 0.753195 0.499742
9 1 0.419748 0.703069 0.500241
17 1 0.572045 0.731701 0.49974
36 1 0.698916 0.682845 0.500296
34 1 0.812545 0.734304 0.499933
54 1 0.919546 0.766526 0.499901
14 1 0.0417798 0.768854 0.499444
58 1 0.371878 0.815836 0.499983
30 1 0.475866 0.814846 0.499966
55 1 0.691881 0.820646 0.500351
27 1 0.797214 0.840281 0.499993
42 1 0.895034 0.849563 0.499536
22 1 0.485414 0.939001 0.499797
29 1 0.584896 0.868351 0.500115
19 1 0.712208 0.949487 0.500041
52 1 0.860993 0.950676 0.499815
56 1 0.959341 0.920453 0.50004
ITEM: TIMESTEP
750
ITEM: NUMBER OF ATOMS
60
ITEM: BOX BOUNDS pp pp pp
-4.7909117361200995e+00 4.7909117361200995e+00
-4.7942441188461284e+00 4.7942441188461284e+00
-1.0000000000000001e-01 1.0000000000000001e-01
ITEM: ATOMS id type xs ys zs
28 1 0.0512308 0.0962734 0.500054
63 1 0.571911 0.0806841 0.49996
25 1 0.588223 0.985633 0.500006
7 1 0.808672 0.0661284 0.501397
31 1 0.951537 0.0198714 0.500117
10 1 0.164311 0.167377 0.499989
51 1 0.259015 0.0920782 0.500194
60 1 0.354936 0.0923786 0.498474
32 1 0.424617 0.179924 0.499682
12 1 0.568264 0.19909 0.500821
38 1 0.671654 0.0833343 0.500992
3 1 0.879137 0.209492 0.500219
69 1 0.957908 0.123654 0.49967
6 1 0.292484 0.209296 0.501366
8 1 0.72752 0.207692 0.501441
77 1 0.809857 0.291878 0.499203
2 1 0.0383121 0.236295 0.499962
18 1 0.0697213 0.388444 0.499365
40 1 0.26403 0.343873 0.501949
39 1 0.402055 0.305749 0.499762
43 1 0.55956 0.484994 0.500179
26 1 0.622897 0.39273 0.500795
78 1 0.636291 0.491789 0.501479
4 1 0.754357 0.38888 0.501351
5 1 0.922519 0.351587 0.500207
59 1 0.0858496 0.519824 0.500178
15 1 0.203942 0.471063 0.497758
20 1 0.352355 0.447248 0.499236
44 1 0.473019 0.478965 0.49997
65 1 0.606936 0.546067 0.50156
13 1 0.731805 0.533238 0.499981
61 1 0.837872 0.572894 0.500519
23 1 0.873288 0.484106 0.500678
21 1 0.982895 0.482797 0.50014
1 1 0.0414161 0.623528 0.499594
53 1 0.163518 0.598257 0.500502
24 1 0.523655 0.582454 0.499782
72 1 0.776187 0.638086 0.498028
76 1 0.849658 0.634393 0.498441
66 1 0.897232 0.683813 0.500045
49 1 0.92008 0.595758 0.501474
73 1 0.969895 0.705105 0.501357
50 1 0.148642 0.687262 0.501687
11 1 0.260342 0.753515 0.497729
9 1 0.419091 0.703519 0.501475
17 1 0.571953 0.731769 0.500953
36 1 0.699406 0.681901 0.499049
34 1 0.812502 0.734252 0.499897
54 1 0.919358 0.766764 0.501584
14 1 0.0418965 0.769331 0.498331
58 1 0.372058 0.815874 0.499096
30 1 0.476064 0.815141 0.497628
55 1 0.692178 0.821705 0.502197
27 1 0.797939 0.840446 0.502013
42 1 0.895683 0.849805 0.498812
22 1 0.485591 0.939596 0.501502
29 1 0.585179 0.86846 0.500621
19 1 0.712874 0.950034 0.501261
52 1 0.861073 0.950999 0.5001
56 1 0.959174 0.921231 0.500698
ITEM: TIMESTEP
1000
ITEM: NUMBER OF ATOMS
60
ITEM: BOX BOUNDS pp pp pp
-4.7897136859105629e+00 4.7897136859105629e+00
-4.7945127247568013e+00 4.7945127247568013e+00
-1.0000000000000001e-01 1.0000000000000001e-01
ITEM: ATOMS id type xs ys zs
28 1 0.0514069 0.0964245 0.501437
63 1 0.573079 0.0813055 0.500401
25 1 0.588335 0.985756 0.501129
7 1 0.809746 0.0659097 0.500523
31 1 0.9525 0.0200936 0.499826
10 1 0.163827 0.168183 0.499742
51 1 0.25919 0.0923625 0.500668
60 1 0.355162 0.0917 0.499816
32 1 0.424751 0.180387 0.500356
12 1 0.568405 0.199768 0.499454
38 1 0.672704 0.0825698 0.500889
3 1 0.879753 0.210173 0.500511
69 1 0.957873 0.124176 0.498956
6 1 0.292771 0.20937 0.502157
8 1 0.727798 0.207253 0.501565
77 1 0.81009 0.291673 0.500928
2 1 0.0387308 0.23705 0.498103
18 1 0.0695635 0.3895 0.499935
40 1 0.264094 0.343749 0.499752
39 1 0.401885 0.305978 0.500389
43 1 0.559684 0.483924 0.500233
26 1 0.624168 0.391973 0.500457
78 1 0.636327 0.49122 0.500711
4 1 0.755477 0.388983 0.503345
5 1 0.922998 0.352524 0.500738
59 1 0.0867121 0.520724 0.49966
15 1 0.204328 0.471228 0.49504
20 1 0.352858 0.447123 0.499764
44 1 0.473677 0.477407 0.499115
65 1 0.606813 0.545555 0.501024
13 1 0.732161 0.532753 0.498711
61 1 0.837836 0.573341 0.500771
23 1 0.873951 0.484602 0.501537
21 1 0.98357 0.484321 0.49934
1 1 0.0411907 0.624005 0.500542
53 1 0.162781 0.598057 0.501798
24 1 0.523582 0.58114 0.498618
72 1 0.776053 0.638164 0.498412
76 1 0.849848 0.634481 0.495571
66 1 0.896743 0.684666 0.499431
49 1 0.920186 0.596225 0.501256
73 1 0.9699 0.705827 0.502986
50 1 0.149086 0.687389 0.501647
11 1 0.261161 0.753451 0.499405
9 1 0.420078 0.703391 0.500916
17 1 0.572357 0.732035 0.500127
36 1 0.698793 0.681669 0.500218
34 1 0.811986 0.734212 0.500222
54 1 0.919609 0.767011 0.503379
14 1 0.042296 0.769455 0.497449
58 1 0.372531 0.816882 0.498817
30 1 0.476573 0.815417 0.499869
55 1 0.692998 0.820903 0.501119
27 1 0.798579 0.840509 0.502898
42 1 0.896319 0.850627 0.498549
22 1 0.486523 0.939667 0.502396
29 1 0.585927 0.868205 0.499943
19 1 0.712804 0.949542 0.500106
52 1 0.861724 0.951208 0.500801
56 1 0.960239 0.921011 0.50025
ITEM: TIMESTEP
1250
ITEM: NUMBER OF ATOMS
60
ITEM: BOX BOUNDS pp pp pp
-4.7885156357010263e+00 4.7885156357010263e+00
-4.7990593059406361e+00 4.7990593059406361e+00
-1.0000000000000001e-01 1.0000000000000001e-01
ITEM: ATOMS id type xs ys zs
28 1 0.0519514 0.0963192 0.502401
63 1 0.572077 0.0806125 0.500621
25 1 0.588552 0.985494 0.500285
7 1 0.809709 0.0663903 0.501193
31 1 0.952846 0.0198215 0.497638
10 1 0.164796 0.168264 0.499554
51 1 0.258975 0.0920513 0.499224
60 1 0.355273 0.0921503 0.501162
32 1 0.425315 0.179165 0.499156
12 1 0.568844 0.19879 0.499751
38 1 0.672114 0.0827126 0.500958
3 1 0.879691 0.209999 0.498993
69 1 0.958207 0.124187 0.497455
6 1 0.293675 0.209532 0.503068
8 1 0.727991 0.206893 0.500948
77 1 0.80932 0.291842 0.500657
2 1 0.0387483 0.236778 0.499715
18 1 0.0694196 0.38982 0.500795
40 1 0.265406 0.343859 0.497549
39 1 0.40255 0.305276 0.500337
43 1 0.560749 0.483941 0.498337
26 1 0.625185 0.392188 0.500758
78 1 0.637394 0.491553 0.500916
4 1 0.75668 0.390497 0.502722
5 1 0.922782 0.352664 0.501345
59 1 0.086787 0.520354 0.499965
15 1 0.204529 0.470797 0.493923
20 1 0.353532 0.44686 0.49804
44 1 0.474623 0.477853 0.499493
65 1 0.607526 0.545521 0.499189
13 1 0.732402 0.533785 0.498845
61 1 0.837566 0.573369 0.500903
23 1 0.874809 0.485248 0.502309
21 1 0.98371 0.484081 0.499786
1 1 0.0409936 0.623068 0.500666
53 1 0.162258 0.597309 0.501548
24 1 0.52451 0.58118 0.498197
72 1 0.77571 0.638447 0.498755
76 1 0.849328 0.634259 0.49649
66 1 0.896861 0.683966 0.499668
49 1 0.919537 0.596132 0.5015
73 1 0.970046 0.704903 0.502503
50 1 0.148864 0.686513 0.501709
11 1 0.261452 0.752702 0.499684
9 1 0.420133 0.703838 0.503126
17 1 0.572181 0.732282 0.500115
36 1 0.699054 0.682783 0.501728
34 1 0.812436 0.734444 0.499991
54 1 0.919612 0.766343 0.502091
14 1 0.0420373 0.768776 0.496759
58 1 0.372169 0.81638 0.49792
30 1 0.476799 0.815127 0.500437
55 1 0.693398 0.821278 0.502233
27 1 0.798847 0.841142 0.504072
42 1 0.896782 0.849783 0.500641
22 1 0.486156 0.939254 0.503354
29 1 0.586132 0.868876 0.501088
19 1 0.71344 0.9502 0.500617
52 1 0.861688 0.951456 0.500709
56 1 0.960456 0.921429 0.501358
ITEM: TIMESTEP
1500
ITEM: NUMBER OF ATOMS
60
ITEM: BOX BOUNDS pp pp pp
-4.7873175854914898e+00 4.7873175854914898e+00
-4.7955452678681860e+00 4.7955452678681860e+00
-1.0000000000000001e-01 1.0000000000000001e-01
ITEM: ATOMS id type xs ys zs
28 1 0.0520665 0.095797 0.501862
63 1 0.573027 0.0808983 0.498612
25 1 0.587783 0.985543 0.498681
7 1 0.808981 0.0655184 0.502543
31 1 0.952219 0.0202257 0.498976
10 1 0.164795 0.168857 0.499832
51 1 0.25912 0.0930497 0.499367
60 1 0.355351 0.0923003 0.501929
32 1 0.425004 0.180294 0.500168
12 1 0.568549 0.199581 0.499628
38 1 0.672199 0.0828711 0.501038
3 1 0.879964 0.209516 0.498214
69 1 0.958694 0.124234 0.497446
6 1 0.293404 0.209951 0.502672
8 1 0.728233 0.206617 0.500786
77 1 0.809544 0.291759 0.501059
2 1 0.0386107 0.236836 0.500161
18 1 0.0700211 0.38939 0.500805
40 1 0.264529 0.343949 0.49668
39 1 0.402863 0.306776 0.501115
43 1 0.559964 0.484466 0.496798
26 1 0.624755 0.392647 0.50117
78 1 0.636962 0.491878 0.500799
4 1 0.756267 0.389717 0.504522
5 1 0.922528 0.352235 0.501531
59 1 0.0866778 0.520499 0.498311
15 1 0.205069 0.471484 0.494437
20 1 0.35304 0.447958 0.499212
44 1 0.473982 0.478148 0.500162
65 1 0.606598 0.545972 0.501911
13 1 0.7323 0.533997 0.498931
61 1 0.838015 0.573011 0.500355
23 1 0.874136 0.484744 0.501262
21 1 0.983533 0.483634 0.500163
1 1 0.0410661 0.623728 0.497726
53 1 0.162389 0.597796 0.501982
24 1 0.523696 0.581925 0.498679
72 1 0.776968 0.638729 0.499792
76 1 0.849283 0.634166 0.496568
66 1 0.896724 0.684109 0.498923
49 1 0.919899 0.596406 0.502619
73 1 0.969688 0.705704 0.501932
50 1 0.148904 0.686824 0.50322
11 1 0.261742 0.751204 0.49989
9 1 0.421274 0.702059 0.505506
17 1 0.572982 0.731238 0.499014
36 1 0.699561 0.681906 0.502751
34 1 0.812542 0.734719 0.500168
54 1 0.919643 0.767219 0.500576
14 1 0.0418782 0.768658 0.495459
58 1 0.372444 0.815182 0.497286
30 1 0.476856 0.814279 0.501217
55 1 0.692783 0.821123 0.502061
27 1 0.798074 0.841076 0.504408
42 1 0.895947 0.850675 0.498597
22 1 0.485665 0.938737 0.503203
29 1 0.585322 0.86788 0.500939
19 1 0.712299 0.949969 0.501574
52 1 0.862032 0.95094 0.501306
56 1 0.960843 0.921465 0.49838
ITEM: TIMESTEP
1750
ITEM: NUMBER OF ATOMS
60
ITEM: BOX BOUNDS pp pp pp
-4.7861195352819532e+00 4.7861195352819532e+00
-4.7952963463686631e+00 4.7952963463686631e+00
-1.0000000000000001e-01 1.0000000000000001e-01
ITEM: ATOMS id type xs ys zs
28 1 0.051792 0.0963858 0.502662
63 1 0.572851 0.0802531 0.498855
25 1 0.588267 0.9851 0.49823
7 1 0.81017 0.0653178 0.501313
31 1 0.95377 0.0185523 0.498145
10 1 0.164004 0.168068 0.499864
51 1 0.259191 0.0925217 0.500005
60 1 0.355696 0.0920873 0.501051
32 1 0.424952 0.180234 0.500077
12 1 0.568666 0.198224 0.498716
38 1 0.672788 0.0825381 0.501977
3 1 0.880196 0.209121 0.500393
69 1 0.958128 0.122921 0.498619
6 1 0.293011 0.209561 0.503268
8 1 0.728044 0.207291 0.500063
77 1 0.809911 0.291785 0.49816
2 1 0.0388428 0.237548 0.499575
18 1 0.0698338 0.389792 0.499618
40 1 0.264126 0.343874 0.497988
39 1 0.401494 0.306496 0.499791
43 1 0.559522 0.483852 0.496431
26 1 0.623671 0.39255 0.50212
78 1 0.636179 0.491486 0.501278
4 1 0.755007 0.388765 0.504549
5 1 0.923054 0.351976 0.501854
59 1 0.0860356 0.520894 0.499145
15 1 0.204148 0.472283 0.494527
20 1 0.35241 0.447252 0.499575
44 1 0.473479 0.478089 0.502416
65 1 0.606967 0.545663 0.501808
13 1 0.731936 0.533302 0.499042
61 1 0.837074 0.573248 0.500949
23 1 0.873659 0.484466 0.50406
21 1 0.983127 0.483274 0.500172
1 1 0.0403778 0.624394 0.498098
53 1 0.162223 0.598334 0.50233
24 1 0.523189 0.581391 0.498082
72 1 0.776995 0.637637 0.499509
76 1 0.848648 0.634615 0.495132
66 1 0.896165 0.684207 0.499248
49 1 0.918763 0.597278 0.501706
73 1 0.9688 0.705736 0.503605
50 1 0.148255 0.687761 0.502868
11 1 0.261543 0.752032 0.500615
9 1 0.420796 0.701923 0.503937
17 1 0.573566 0.73106 0.500175
36 1 0.69942 0.679854 0.503881
34 1 0.811421 0.73421 0.500484
54 1 0.918797 0.767417 0.499521
14 1 0.0413307 0.76926 0.494405
58 1 0.372381 0.814416 0.498399
30 1 0.476511 0.81373 0.501907
55 1 0.693521 0.821138 0.503659
27 1 0.798495 0.840824 0.505877
42 1 0.896085 0.851006 0.498921
22 1 0.48646 0.938151 0.504457
29 1 0.585744 0.867349 0.501688
19 1 0.712966 0.949727 0.503457
52 1 0.862441 0.950519 0.502683
56 1 0.961003 0.920111 0.498078
ITEM: TIMESTEP
2000
ITEM: NUMBER OF ATOMS
60
ITEM: BOX BOUNDS pp pp pp
-4.7849214850724175e+00 4.7849214850724175e+00
-4.7935219411610435e+00 4.7935219411610435e+00
-1.0000000000000001e-01 1.0000000000000001e-01
ITEM: ATOMS id type xs ys zs
28 1 0.0526198 0.0957721 0.501892
63 1 0.573108 0.0807248 0.500971
25 1 0.587818 0.98519 0.498481
7 1 0.809951 0.0658518 0.502172
31 1 0.953146 0.0195025 0.497349
10 1 0.165033 0.169409 0.500882
51 1 0.259257 0.0926695 0.500506
60 1 0.355553 0.0921136 0.501594
32 1 0.425682 0.179874 0.501579
12 1 0.569111 0.199161 0.498727
38 1 0.672851 0.0823585 0.502049
3 1 0.879958 0.209264 0.50152
69 1 0.959122 0.123837 0.497603
6 1 0.29355 0.209785 0.502421
8 1 0.72839 0.207227 0.50289
77 1 0.810653 0.292154 0.497566
2 1 0.0385697 0.236966 0.497492
18 1 0.069597 0.389492 0.499226
40 1 0.264768 0.344023 0.497332
39 1 0.402502 0.30584 0.499963
43 1 0.559443 0.485223 0.497156
26 1 0.624089 0.393772 0.500628
78 1 0.636329 0.492383 0.500692
4 1 0.754987 0.388733 0.505389
5 1 0.922755 0.352429 0.500358
59 1 0.0861518 0.52047 0.499843
15 1 0.203637 0.471784 0.496216
20 1 0.352291 0.44785 0.500316
44 1 0.473352 0.478561 0.50084
65 1 0.606675 0.546767 0.502189
13 1 0.732005 0.533575 0.499171
61 1 0.837333 0.57353 0.500505
23 1 0.87358 0.484693 0.50507
21 1 0.982848 0.484178 0.500235
1 1 0.0404711 0.624143 0.498448
53 1 0.162254 0.598458 0.500552
24 1 0.523112 0.582184 0.496985
72 1 0.777128 0.637653 0.501117
76 1 0.847666 0.634527 0.493508
66 1 0.895366 0.684286 0.501349
49 1 0.918999 0.597571 0.503001
73 1 0.968934 0.705494 0.503118
50 1 0.147786 0.687864 0.502076
11 1 0.260915 0.752195 0.499472
9 1 0.421379 0.701522 0.503329
17 1 0.573561 0.731076 0.501148
36 1 0.699583 0.678865 0.506172
34 1 0.811181 0.734961 0.501369
54 1 0.918374 0.767105 0.500372
14 1 0.0410812 0.76945 0.49494
58 1 0.372896 0.813886 0.496909
30 1 0.476607 0.813722 0.502397
55 1 0.692499 0.820447 0.501169
27 1 0.798142 0.840687 0.505736
42 1 0.895559 0.850953 0.498957
22 1 0.485304 0.938463 0.50243
29 1 0.585044 0.868235 0.502175
19 1 0.712875 0.949702 0.503125
52 1 0.862226 0.950919 0.505272
56 1 0.960864 0.920719 0.500309
ITEM: TIMESTEP
2250
ITEM: NUMBER OF ATOMS
60
ITEM: BOX BOUNDS pp pp pp
-4.7837234348628810e+00 4.7837234348628810e+00
-4.7877869506628823e+00 4.7877869506628823e+00
-1.0000000000000001e-01 1.0000000000000001e-01
ITEM: ATOMS id type xs ys zs
28 1 0.0528538 0.0952923 0.501207
63 1 0.57186 0.0810692 0.500946
25 1 0.587506 0.985418 0.499404
7 1 0.809012 0.0655803 0.50299
31 1 0.952273 0.0207045 0.497122
10 1 0.165104 0.168431 0.499436
51 1 0.260085 0.0929112 0.500593
60 1 0.356481 0.0920177 0.502468
32 1 0.42586 0.180135 0.500957
12 1 0.568744 0.199803 0.498086
38 1 0.671862 0.0827849 0.501941
3 1 0.878929 0.209786 0.500529
69 1 0.959802 0.124712 0.497451
6 1 0.293768 0.209784 0.501573
8 1 0.727922 0.206991 0.5036
77 1 0.810037 0.291943 0.498484
2 1 0.0379833 0.235735 0.497717
18 1 0.0695759 0.388729 0.499773
40 1 0.262891 0.344408 0.497387
39 1 0.402257 0.306285 0.499378
43 1 0.559882 0.484478 0.497022
26 1 0.625158 0.393375 0.501907
78 1 0.636307 0.491892 0.500001
4 1 0.755972 0.389511 0.504435
5 1 0.922385 0.351933 0.499548
59 1 0.0858757 0.520435 0.498643
15 1 0.203881 0.472633 0.495473
20 1 0.352276 0.447799 0.499082
44 1 0.473819 0.478682 0.502913
65 1 0.607032 0.546355 0.503068
13 1 0.731858 0.533929 0.499255
61 1 0.836781 0.573024 0.499886
23 1 0.873376 0.484206 0.506018
21 1 0.983077 0.483683 0.49895
1 1 0.0401727 0.624246 0.499258
53 1 0.161546 0.598962 0.500915
24 1 0.524041 0.582406 0.496368
72 1 0.778502 0.637536 0.50008
76 1 0.848173 0.634358 0.493489
66 1 0.895686 0.684796 0.501094
49 1 0.918568 0.596496 0.503295
73 1 0.968911 0.706366 0.502136
50 1 0.147699 0.688536 0.501729
11 1 0.262396 0.750606 0.49832
9 1 0.421608 0.701787 0.503962
17 1 0.573856 0.730452 0.499215
36 1 0.700151 0.678958 0.504202
34 1 0.810958 0.734569 0.503103
54 1 0.91795 0.767429 0.500926
14 1 0.0410518 0.770265 0.495518
58 1 0.373301 0.814755 0.495693
30 1 0.477311 0.813318 0.501282
55 1 0.69216 0.820823 0.499326
27 1 0.797918 0.840515 0.504962
42 1 0.895431 0.85108 0.500072
22 1 0.485573 0.93768 0.502591
29 1 0.585393 0.867572 0.503117
19 1 0.71235 0.949686 0.502503
52 1 0.862209 0.951017 0.504755
56 1 0.960643 0.921406 0.499235
ITEM: TIMESTEP
2500
ITEM: NUMBER OF ATOMS
60
ITEM: BOX BOUNDS pp pp pp
-4.7825253846533444e+00 4.7825253846533444e+00
-4.7916972493732484e+00 4.7916972493732484e+00
-1.0000000000000001e-01 1.0000000000000001e-01
ITEM: ATOMS id type xs ys zs
28 1 0.0524688 0.0962465 0.501122
63 1 0.57177 0.0819086 0.499993
25 1 0.586863 0.986411 0.500184
7 1 0.80871 0.0659347 0.504364
31 1 0.952685 0.0206682 0.497087
10 1 0.164977 0.168725 0.500628
51 1 0.259948 0.0921239 0.499853
60 1 0.356665 0.0912834 0.502738
32 1 0.425897 0.179781 0.500212
12 1 0.569178 0.200451 0.497288
38 1 0.671567 0.0830001 0.501355
3 1 0.879473 0.209015 0.499161
69 1 0.959209 0.124583 0.497259
6 1 0.293997 0.209843 0.502242
8 1 0.728192 0.207243 0.503946
77 1 0.810267 0.292327 0.498446
2 1 0.0381226 0.236151 0.497788
18 1 0.0689346 0.38926 0.501153
40 1 0.263085 0.344016 0.497162
39 1 0.403173 0.306517 0.499201
43 1 0.559214 0.484608 0.497433
26 1 0.624212 0.393095 0.50173
78 1 0.636091 0.49184 0.498661
4 1 0.755482 0.389649 0.5034
5 1 0.922325 0.351971 0.499641
59 1 0.0853474 0.520234 0.499081
15 1 0.203117 0.472181 0.49416
20 1 0.351363 0.447341 0.500843
44 1 0.472621 0.478801 0.501374
65 1 0.60662 0.546151 0.502901
13 1 0.731356 0.534118 0.498337
61 1 0.837449 0.573135 0.498953
23 1 0.872929 0.484422 0.506911
21 1 0.982494 0.483747 0.499688
1 1 0.0403405 0.624207 0.497982
53 1 0.16164 0.598578 0.49997
24 1 0.5235 0.58203 0.496124
72 1 0.778704 0.637823 0.500527
76 1 0.848331 0.634106 0.495287
66 1 0.895439 0.684342 0.502173
49 1 0.919291 0.596912 0.502355
73 1 0.969053 0.705835 0.504136
50 1 0.147814 0.687434 0.499971
11 1 0.261908 0.751024 0.49823
9 1 0.422226 0.701072 0.502233
17 1 0.574338 0.73152 0.499455
36 1 0.699923 0.678481 0.502902
34 1 0.811248 0.734716 0.50298
54 1 0.918522 0.766964 0.501559
14 1 0.0410309 0.769835 0.495093
58 1 0.373013 0.814316 0.494297
30 1 0.477075 0.813902 0.49981
55 1 0.69293 0.821154 0.500904
27 1 0.798598 0.841147 0.506385
42 1 0.895888 0.850916 0.499482
22 1 0.485304 0.938253 0.50578
29 1 0.585784 0.868796 0.503118
19 1 0.712041 0.949953 0.502313
52 1 0.862016 0.951804 0.50412
56 1 0.960788 0.921743 0.498671
ITEM: TIMESTEP
2750
ITEM: NUMBER OF ATOMS
60
ITEM: BOX BOUNDS pp pp pp
-4.7813273344438079e+00 4.7813273344438079e+00
-4.7936939248301895e+00 4.7936939248301895e+00
-1.0000000000000001e-01 1.0000000000000001e-01
ITEM: ATOMS id type xs ys zs
28 1 0.0522516 0.0950176 0.501107
63 1 0.571493 0.0806057 0.499922
25 1 0.587493 0.984957 0.50008
7 1 0.809099 0.0658924 0.502513
31 1 0.952616 0.020247 0.498804
10 1 0.16415 0.169024 0.49972
51 1 0.258187 0.0922425 0.497235
60 1 0.354485 0.0914761 0.503635
32 1 0.424942 0.178519 0.499505
12 1 0.568526 0.199092 0.497153
38 1 0.67126 0.0829135 0.502383
3 1 0.879907 0.209201 0.498447
69 1 0.958538 0.123274 0.497437
6 1 0.292814 0.209852 0.501526
8 1 0.728735 0.207053 0.503524
77 1 0.810786 0.292218 0.498233
2 1 0.0374849 0.236054 0.495618
18 1 0.0687881 0.388951 0.500644
40 1 0.262857 0.343801 0.49843
39 1 0.402168 0.305065 0.497992
43 1 0.558976 0.485112 0.496009
26 1 0.623232 0.392729 0.501287
78 1 0.635777 0.492224 0.499429
4 1 0.75489 0.388616 0.504114
5 1 0.921799 0.35243 0.503138
59 1 0.0863322 0.520823 0.499827
15 1 0.20354 0.471363 0.49451
20 1 0.352964 0.445969 0.501765
44 1 0.473457 0.478161 0.501983
65 1 0.606751 0.546622 0.50317
13 1 0.731586 0.533685 0.498732
61 1 0.837233 0.573515 0.500486
23 1 0.873844 0.485139 0.506788
21 1 0.983094 0.483885 0.498746
1 1 0.0404374 0.624044 0.498328
53 1 0.162572 0.598615 0.500176
24 1 0.523035 0.58175 0.498704
72 1 0.778839 0.637348 0.499907
76 1 0.847925 0.63468 0.495255
66 1 0.895415 0.684202 0.501734
49 1 0.918802 0.597819 0.502082
73 1 0.969037 0.705741 0.503798
50 1 0.147827 0.687426 0.499167
11 1 0.26243 0.74921 0.499676
9 1 0.421854 0.700026 0.502612
17 1 0.573831 0.730444 0.500408
36 1 0.699877 0.677572 0.504318
34 1 0.810467 0.734807 0.50372
54 1 0.918268 0.766758 0.500016
14 1 0.0408637 0.769755 0.495107
58 1 0.372486 0.8133 0.492564
30 1 0.475991 0.813067 0.500298
55 1 0.693261 0.821267 0.500864
27 1 0.798358 0.840951 0.505646
42 1 0.896026 0.850776 0.498567
22 1 0.48537 0.938099 0.504631
29 1 0.585059 0.867506 0.504726
19 1 0.712491 0.949831 0.501521
52 1 0.861471 0.951384 0.504179
56 1 0.960367 0.921304 0.497253
ITEM: TIMESTEP
3000
ITEM: NUMBER OF ATOMS
60
ITEM: BOX BOUNDS pp pp pp
-4.7801292842342713e+00 4.7801292842342713e+00
-4.7914279286422561e+00 4.7914279286422561e+00
-1.0000000000000001e-01 1.0000000000000001e-01
ITEM: ATOMS id type xs ys zs
28 1 0.0525237 0.0949597 0.50299
63 1 0.572009 0.0809366 0.499564
25 1 0.587195 0.985603 0.499544
7 1 0.808818 0.0657089 0.503714
31 1 0.952132 0.0201502 0.49763
10 1 0.163894 0.167976 0.497143
51 1 0.258962 0.0923323 0.497512
60 1 0.354898 0.091369 0.501374
32 1 0.425129 0.178982 0.498217
12 1 0.568182 0.199352 0.495666
38 1 0.671836 0.0826961 0.500814
3 1 0.880043 0.208989 0.498268
69 1 0.95896 0.123733 0.497287
6 1 0.292739 0.209903 0.502567
8 1 0.728359 0.206895 0.504592
77 1 0.810173 0.291701 0.497864
2 1 0.0373231 0.23554 0.495016
18 1 0.0692786 0.388976 0.498021
40 1 0.262611 0.343607 0.497307
39 1 0.402261 0.304831 0.499036
43 1 0.558907 0.484585 0.496686
26 1 0.622347 0.392493 0.5025
78 1 0.635406 0.491924 0.499844
4 1 0.753807 0.388253 0.504613
5 1 0.922009 0.352078 0.502575
59 1 0.0854131 0.520334 0.499536
15 1 0.203641 0.471985 0.493655
20 1 0.352196 0.446437 0.501935
44 1 0.472491 0.478974 0.500536
65 1 0.605774 0.546085 0.503019
13 1 0.731064 0.532925 0.496657
61 1 0.836584 0.572864 0.501477
23 1 0.87317 0.48441 0.506914
21 1 0.982404 0.483541 0.498289
1 1 0.0400481 0.623506 0.497388
53 1 0.160748 0.597539 0.500225
24 1 0.523128 0.58225 0.496949
72 1 0.778075 0.63722 0.49757
76 1 0.846237 0.63439 0.4956
66 1 0.894087 0.683909 0.502977
49 1 0.917935 0.599272 0.504448
73 1 0.968054 0.704926 0.50412
50 1 0.147929 0.686328 0.50002
11 1 0.261616 0.750137 0.502121
9 1 0.421612 0.701838 0.503179
17 1 0.573552 0.731271 0.502374
36 1 0.698838 0.676928 0.504787
34 1 0.810154 0.734919 0.50608
54 1 0.91784 0.76667 0.497537
14 1 0.0405404 0.768829 0.493627
58 1 0.372349 0.814157 0.491453
30 1 0.476855 0.813298 0.499358
55 1 0.692713 0.819731 0.501005
27 1 0.797958 0.840723 0.50652
42 1 0.895788 0.850503 0.500074
22 1 0.485015 0.937672 0.502726
29 1 0.585769 0.867873 0.503825
19 1 0.71228 0.949569 0.504934
52 1 0.86137 0.951109 0.504008
56 1 0.959762 0.921734 0.496936
ITEM: TIMESTEP
3250
ITEM: NUMBER OF ATOMS
60
ITEM: BOX BOUNDS pp pp pp
-4.7789312340247356e+00 4.7789312340247356e+00
-4.7949167936218942e+00 4.7949167936218942e+00
-1.0000000000000001e-01 1.0000000000000001e-01
ITEM: ATOMS id type xs ys zs
28 1 0.0525809 0.0955491 0.503429
63 1 0.571303 0.0811418 0.498557
25 1 0.587087 0.985682 0.500441
7 1 0.80847 0.0658346 0.504844
31 1 0.952331 0.0199183 0.497593
10 1 0.164542 0.168472 0.497441
51 1 0.258313 0.0915563 0.498006
60 1 0.355176 0.0911508 0.500989
32 1 0.425202 0.179003 0.499204
12 1 0.568169 0.200069 0.496203
38 1 0.671016 0.0831793 0.499749
3 1 0.879608 0.20926 0.498485
69 1 0.959138 0.123656 0.496605
6 1 0.293 0.209363 0.50242
8 1 0.728129 0.206847 0.504652
77 1 0.809776 0.291991 0.499552
2 1 0.0378364 0.23591 0.494891
18 1 0.0687467 0.388665 0.497904
40 1 0.262503 0.34306 0.495574
39 1 0.402428 0.305179 0.498913
43 1 0.557801 0.485478 0.495462
26 1 0.620592 0.393127 0.503839
78 1 0.634828 0.492504 0.50033
4 1 0.752035 0.388342 0.506983
5 1 0.922117 0.35233 0.502738
59 1 0.0859663 0.52007 0.49855
15 1 0.204112 0.471226 0.494493
20 1 0.352103 0.44605 0.501025
44 1 0.471609 0.480185 0.500685
65 1 0.605279 0.546772 0.504351
13 1 0.731151 0.532617 0.494915
61 1 0.835959 0.572855 0.500121
23 1 0.872955 0.484329 0.508297
21 1 0.982525 0.484099 0.499777
1 1 0.0392501 0.623389 0.497075
53 1 0.160504 0.596502 0.500317
24 1 0.522273 0.58309 0.498094
72 1 0.776826 0.636728 0.497799
76 1 0.846056 0.634462 0.494715
66 1 0.893915 0.684038 0.50307
49 1 0.917408 0.59811 0.505046
73 1 0.967201 0.705063 0.503906
50 1 0.147228 0.685766 0.500124
11 1 0.260767 0.75024 0.504123
9 1 0.420876 0.702646 0.5028
17 1 0.573032 0.731015 0.498674
36 1 0.69786 0.676696 0.504837
34 1 0.809072 0.733944 0.505915
54 1 0.917054 0.766356 0.499788
14 1 0.0400749 0.768614 0.492486
58 1 0.371911 0.815432 0.489429
30 1 0.476558 0.814336 0.498444
55 1 0.692583 0.820853 0.500612
27 1 0.797905 0.840414 0.506701
42 1 0.895496 0.850488 0.498827
22 1 0.485 0.938336 0.504951
29 1 0.584916 0.867926 0.504039
19 1 0.711515 0.949933 0.501939
52 1 0.861634 0.95122 0.505474
56 1 0.960262 0.920898 0.497583
ITEM: TIMESTEP
3500
ITEM: NUMBER OF ATOMS
60
ITEM: BOX BOUNDS pp pp pp
-4.7777331838151991e+00 4.7777331838151991e+00
-4.7879504767596588e+00 4.7879504767596588e+00
-1.0000000000000001e-01 1.0000000000000001e-01
ITEM: ATOMS id type xs ys zs
28 1 0.0519531 0.0956136 0.504097
63 1 0.571273 0.0810504 0.500454
25 1 0.587011 0.985731 0.499097
7 1 0.80884 0.0657303 0.504412
31 1 0.951872 0.0200269 0.497044
10 1 0.16365 0.169213 0.496979
51 1 0.258726 0.0922483 0.49967
60 1 0.354868 0.091029 0.50131
32 1 0.425089 0.178589 0.498278
12 1 0.568288 0.200038 0.495995
38 1 0.671376 0.0828249 0.501159
3 1 0.879645 0.209796 0.49716
69 1 0.958392 0.123656 0.497986
6 1 0.293001 0.209406 0.502993
8 1 0.727817 0.20737 0.50642
77 1 0.809914 0.291863 0.499661
2 1 0.0359885 0.23593 0.494884
18 1 0.0680289 0.38972 0.498741
40 1 0.26127 0.34303 0.494563
39 1 0.402761 0.304165 0.49812
43 1 0.558281 0.485483 0.497017
26 1 0.621704 0.39283 0.503225
78 1 0.634869 0.491799 0.501273
4 1 0.752812 0.387933 0.507331
5 1 0.921223 0.352973 0.5005
59 1 0.0858563 0.520347 0.499482
15 1 0.203707 0.47149 0.493805
20 1 0.35193 0.445522 0.500486
44 1 0.471684 0.480563 0.499716
65 1 0.605876 0.546177 0.503907
13 1 0.73034 0.533164 0.497066
61 1 0.835759 0.572788 0.500835
23 1 0.872937 0.485043 0.506348
21 1 0.982418 0.484658 0.499769
1 1 0.0392191 0.623325 0.494901
53 1 0.160899 0.597886 0.500441
24 1 0.523407 0.583668 0.500039
72 1 0.777194 0.636519 0.497021
76 1 0.845101 0.634194 0.494457
66 1 0.89296 0.683569 0.501863
49 1 0.91707 0.598051 0.505911
73 1 0.967298 0.704487 0.503517
50 1 0.14669 0.687463 0.502331
11 1 0.259782 0.751026 0.503546
9 1 0.419852 0.702461 0.504018
17 1 0.572975 0.731079 0.499924
36 1 0.698275 0.675982 0.505258
34 1 0.809315 0.734251 0.504045
54 1 0.917045 0.766103 0.498902
14 1 0.0393607 0.769228 0.491347
58 1 0.37169 0.814608 0.487816
30 1 0.476079 0.814088 0.497416
55 1 0.69297 0.821041 0.500708
27 1 0.798773 0.840959 0.506501
42 1 0.896341 0.850554 0.500095
22 1 0.485391 0.938164 0.504102
29 1 0.585095 0.867848 0.504642
19 1 0.712495 0.949496 0.500692
52 1 0.861517 0.950487 0.505916
56 1 0.960495 0.921237 0.498845
ITEM: TIMESTEP
3750
ITEM: NUMBER OF ATOMS
60
ITEM: BOX BOUNDS pp pp pp
-4.7765351336056625e+00 4.7765351336056625e+00
-4.7901355508742558e+00 4.7901355508742558e+00
-1.0000000000000001e-01 1.0000000000000001e-01
ITEM: ATOMS id type xs ys zs
28 1 0.0527242 0.0955338 0.504344
63 1 0.572517 0.0810507 0.499914
25 1 0.587766 0.985472 0.498589
7 1 0.809457 0.0656953 0.505152
31 1 0.952744 0.0204944 0.495953
10 1 0.164336 0.169269 0.495459
51 1 0.258009 0.0926883 0.501236
60 1 0.354435 0.0911308 0.501165
32 1 0.42488 0.178662 0.497114
12 1 0.568089 0.199244 0.495282
38 1 0.672375 0.082847 0.498791
3 1 0.879281 0.208897 0.497355
69 1 0.959805 0.124688 0.499574
6 1 0.293429 0.210032 0.503858
8 1 0.727752 0.20723 0.507335
77 1 0.810249 0.291987 0.500209
2 1 0.0360541 0.235403 0.497294
18 1 0.0682526 0.388328 0.499233
40 1 0.26087 0.343514 0.49436
39 1 0.402743 0.305515 0.496641
43 1 0.558062 0.484202 0.497455
26 1 0.620763 0.391394 0.504721
78 1 0.63452 0.490664 0.500086
4 1 0.752963 0.388274 0.5074
5 1 0.920928 0.35141 0.501839
59 1 0.0855449 0.520063 0.499643
15 1 0.202644 0.471715 0.493536
20 1 0.351494 0.446029 0.500844
44 1 0.471451 0.479983 0.499146
65 1 0.606153 0.545557 0.501706
13 1 0.730447 0.532855 0.498138
61 1 0.836422 0.572859 0.501552
23 1 0.873008 0.484282 0.505977
21 1 0.982315 0.483222 0.50099
1 1 0.0394356 0.623632 0.494549
53 1 0.161257 0.598804 0.501217
24 1 0.523738 0.582567 0.499295
72 1 0.778578 0.63604 0.497122
76 1 0.845337 0.634716 0.494128
66 1 0.893972 0.68313 0.501077
49 1 0.917458 0.599664 0.506327
73 1 0.96794 0.704853 0.503726
50 1 0.14718 0.688328 0.503696
11 1 0.260713 0.751512 0.503894
9 1 0.420492 0.700938 0.503617
17 1 0.572902 0.729997 0.499794
36 1 0.698988 0.676526 0.502973
34 1 0.809409 0.733781 0.502785
54 1 0.91686 0.765803 0.49952
14 1 0.0395333 0.769642 0.491593
58 1 0.372236 0.814106 0.489157
30 1 0.476693 0.813236 0.497839
55 1 0.692647 0.819852 0.501943
27 1 0.798416 0.840392 0.50638
42 1 0.896144 0.850372 0.498323
22 1 0.485399 0.937848 0.505141
29 1 0.585704 0.867686 0.502771
19 1 0.71292 0.949403 0.499483