LAMMPS (23 Jun 2022 - Update 4)
  using 1 OpenMP thread(s) per MPI task
# Compute elastic constant tensor for a crystal
#
# Written by Aidan Thompson (Sandia, athomps@sandia.gov)
#
#  This script uses the following three include files.
#
#   init.mod      (must be modified for different crystal structures)
# 	       	  Define units, deformation parameters and initial
#		  configuration of the atoms and simulation cell.
#
#
#   potential.mod    (must be modified for different pair styles)
# 		     Define pair style and other attributes
#		     not stored in restart file
#
#
#   displace.mod    (displace.mod should not need to be modified)
# 		    Perform positive and negative box displacements
# 		    in direction ${dir} and size ${up}.
# 		    It uses the resultant changes
#		    in stress to compute one
# 		    row of the elastic stiffness tensor
#
#		    Inputs variables:
#		    	   dir = the Voigt deformation component
#		    		    (1,2,3,4,5,6)
#		    Global constants:
#       	    	   up = the deformation magnitude (strain units)
#       		   cfac = conversion from LAMMPS pressure units to
#               	   output units for elastic constants
#
#
#  To run this on a different system, it should only be necessary to
#  modify the files init.mod and potential.mod. In order to calculate
#  the elastic constants correctly, care must be taken to specify
#  the correct units in init.mod (units, cfac and cunits). It is also
#  important to verify that the minimization of energy w.r.t atom
#  positions in the deformed cell is fully converged.
#  One indication of this is that the elastic constants are insensitive
#  to the choice of the variable ${up} in init.mod. Another is to check
#  the final max and two-norm forces reported in the log file. If you know
#  that minimization is not required, you can set maxiter = 0.0 in
#  init.mod.
#



variable dt equal 0.01
variable strain equal 0.05
variable srate equal 1e-4
variable M equal 1000 # averaging time for properties
variable strainsteps equal ${strain}/${dt}/${srate}
variable strainsteps equal 0.05/${dt}/${srate}
variable strainsteps equal 0.05/0.01/${srate}
variable strainsteps equal 0.05/0.01/0.0001


dimension 2
include init.mod
# NOTE: This script can be modified for different atomic structures,
# units, etc. See in.elastic for more info.
#

# Define the finite deformation size. Try several values of this
# variable to verify that results do not depend on it.
variable up equal 1.0e-1

# Define the amount of random jiggle for atoms
# This prevents atoms from staying on saddle points
variable atomjiggle equal 1.0e-6

# Uncomment one of these blocks, depending on what units
# you are using in LAMMPS and for output

# metal units, elastic constants in eV/A^3
#units		metal
#variable cfac equal 6.2414e-7
#variable cunits string eV/A^3

# Choose potential
# metal units, elastic constants in GPa
units		metal
atom_style	full
#pair_style      lj/cut 1.0
#pair_style      yukawa 1.0 2.0
#pair_modify     mix arithmetic
bond_style      harmonic
angle_style     harmonic
dihedral_style  zero
special_bonds   amber
variable cfac equal 1.0e-4
variable cunits string GPa
boundary	p p p

# Need to set mass to something, just to satisfy LAMMPS
#mass 1 1.0e-20
read_data network.lmp
Reading data file ...
  orthogonal box = (-4.792202 -4.792202 -0.1) to (4.792202 4.792202 0.1)
  1 by 1 by 1 MPI processor grid
WARNING: Atom style in data file differs from currently defined atom style (src/read_data.cpp:538)
  reading atoms ...
  60 atoms
WARNING: Bond style in data file differs from currently defined bond style (src/read_data.cpp:630)
  scanning bonds ...
  6 = max bonds/atom
  reading bonds ...
  135 bonds
Finding 1-2 1-3 1-4 neighbors ...
  special bond factors lj:    0        0        0.5     
  special bond factors coul:  0        0        0.8333333333333334
     8 = max # of 1-2 neighbors
    43 = max # of 1-3 neighbors
   250 = max # of 1-4 neighbors
    31 = max # of special neighbors
  special bonds CPU = 0.000 seconds
  read_data CPU = 0.003 seconds

# real units, elastic constants in GPa
#units		real
#variable cfac equal 1.01325e-4
#variable cunits string GPa

# Define minimization parameters
variable etol equal 0.0
variable ftol equal 5.0e-10
variable maxiter equal 100000
variable maxeval equal 20000
variable dmax equal 1.0e-2


include potential.mod
# NOTE: This script can be modified for different pair styles
# See in.elastic for more info.

# Setup neighbor style
neighbor 3.0 nsq
neigh_modify once no every 1 delay 0 check yes
comm_modify cutoff 2.0

# Setup minimization style
min_style	     cg
min_modify	     dmax ${dmax} line quadratic
min_modify	     dmax 0.01 line quadratic

timestep	0.001


# Setup output
thermo		500
thermo_style custom step temp pe ebond eangle edihed press pxx pyy pzz pxy pxz pyz lx ly lz vol
thermo_modify norm no


#change_box all triclinic
comm_modify mode single cutoff 10.0 vel yes
atom_modify sort 0 0



# Compute initial state

#dump rela all atom 1 traj_relax.lmpstrj
fix 3 all box/relax x 0 y 0 # xy 0  #MS comment: relax if the network is periodic
minimize ${etol} ${ftol} ${maxiter} ${maxeval}
minimize 0 ${ftol} ${maxiter} ${maxeval}
minimize 0 5e-10 ${maxiter} ${maxeval}
minimize 0 5e-10 100000 ${maxeval}
minimize 0 5e-10 100000 20000
Neighbor list info ...
  update every 1 steps, delay 0 steps, check yes
  max neighbors/atom: 2000, page size: 100000
  master list distance cutoff = 0
  ghost atom cutoff = 10
  0 neighbor lists, perpetual/occasional/extra = 0 0 0
WARNING: Inconsistent image flags (src/domain.cpp:819)
Per MPI rank memory allocation (min/avg/max) = 9.03 | 9.03 | 9.03 Mbytes
   Step          Temp          PotEng         E_bond        E_angle        E_dihed         Press           Pxx            Pyy            Pzz            Pxy            Pxz            Pyz             Lx             Ly             Lz           Volume    
         0   0              3.1052248e-11  3.1052248e-11  0              0              0.059881832   -0.0048531175   0.12461678     0             -0.064316226    0              0              9.584404       9.584404       0.2            91.8608      
       481   0              1.1015572e-18  1.1015572e-18  0              0              7.6891298e-08  2.7011074e-07 -1.1632814e-07  0              9.2176536e-06  0              0              9.5844017      9.5844033      0.2            91.860771    
Loop time of 0.0240726 on 1 procs for 481 steps with 60 atoms

98.8% CPU use with 1 MPI tasks x 1 OpenMP threads

Minimization stats:
  Stopping criterion = force tolerance
  Energy initial, next-to-last, final = 
    3.1052248491671e-11 1.14934113099265e-18 1.10155723655214e-18
  Force two-norm initial, final = 2.2195544e-05 4.7748214e-10
  Force max component initial, final = 7.1449039e-06 1.4987715e-10
  Final line search alpha, max atom move = 1 1.4987715e-10
  Iterations, force evaluations = 481 962

MPI task timing breakdown:
Section |  min time  |  avg time  |  max time  |%varavg| %total
---------------------------------------------------------------
Pair    | 0          | 0          | 0          |   0.0 |  0.00
Bond    | 0.0034331  | 0.0034331  | 0.0034331  |   0.0 | 14.26
Neigh   | 0          | 0          | 0          |   0.0 |  0.00
Comm    | 0.0072938  | 0.0072938  | 0.0072938  |   0.0 | 30.30
Output  | 0          | 0          | 0          |   0.0 |  0.00
Modify  | 0          | 0          | 0          |   0.0 |  0.00
Other   |            | 0.01335    |            |       | 55.44

Nlocal:             60 ave          60 max          60 min
Histogram: 1 0 0 0 0 0 0 0 0 0
Nghost:            507 ave         507 max         507 min
Histogram: 1 0 0 0 0 0 0 0 0 0
Neighs:              0 ave           0 max           0 min
Histogram: 1 0 0 0 0 0 0 0 0 0

Total # of neighbors = 0
Ave neighs/atom = 0
Ave special neighs/atom = 21.766667
Neighbor list builds = 0
Dangerous builds = 0
#dump rela all atom 1 traj_relax.lmpstrj
thermo 100
unfix 3

fix 2d all enforce2d



#dump dump0 all xyz 1000000 cfg0.xyz
#dump_modify dump0 format line "%d %20.10g %20.10g %20.10g"
#minimize ${etol} ${ftol} ${maxiter} ${maxeval}

#undump rela

#write_restart restart.equil

# These formulas define the derivatives w.r.t. strain components
# Constants uses $, variables use v_


timestep        ${dt}
timestep        0.01
variable nsteps equal round(${strainsteps})
variable nsteps equal round(50000)

fix             4 all nve
fix             5 all langevin 0.1 0.1 1 904297
#fix		6 all press/berendsen y  0.0 0.0 1 x 0.0 0.0 10
fix             6 all nph y 0.0 0.0 10 ptemp 0.1 # x 0.0 0.0 10

# For PLUMED2
# fix 22 all plumed plumedfile plumed.dat outfile plumed.out

#fix             6 all nph x 0.0 0.0 10
fix     	9 all deform 1 x erate -${srate} units box remap x
fix     	9 all deform 1 x erate -0.0001 units box remap x

#fix     8 all deform 1 xy erate ${srate} units box remap x



#fix    10 all ave/time

dump 1 all atom 250 deform_dump.lammpstrj


#To avoid flying ice cube phenomenon:
#fix 21 all momentum 100 linear 1 1 1 angular


run  ${nsteps}
run  50000
WARNING: One or more atoms are time integrated more than once (src/modify.cpp:292)
WARNING: Inconsistent image flags (src/domain.cpp:819)
Per MPI rank memory allocation (min/avg/max) = 7.905 | 7.905 | 7.905 Mbytes
   Step          Temp          PotEng         E_bond        E_angle        E_dihed         Press           Pxx            Pyy            Pzz            Pxy            Pxz            Pyz             Lx             Ly             Lz           Volume    
       481   0              1.1015572e-18  1.1015572e-18  0              0              7.6891298e-08  2.7011074e-07 -1.1632814e-07  0              9.2176536e-06  0              0              9.5844017      9.5844033      0.2            91.860771    
       500   0.08848859     7.5952562e-05  7.5952562e-05  0              0             -64.354303     -103.30169     -25.566619      0              16.508369      0              0              9.5842196      9.5854092      0.2            91.868666    
       600   0.17670686     0.00084702289  0.00084702289  0              0              254.43902      686.19907     -177.4973       0              141.64235      0              0              9.5832611      9.5800121      0.2            91.807757    
       700   0.21774035     0.0009622776   0.0009622776   0              0             -184.56436     -202.14871     -167.18821      0             -55.475356      0              0              9.5823027      9.5894564      0.2            91.889074    
       800   0.16182583     0.00085664477  0.00085664477  0              0             -396.04267     -524.98076     -267.26434      0              435.42084      0              0              9.5813443      9.5965978      0.2            91.948308    
       900   0.19229773     0.0008267872   0.0008267872   0              0             -463.83213     -603.45129     -324.37387      0             -208.6139       0              0              9.5803858      9.5939156      0.2            91.913413    
      1000   0.19819727     0.00072604209  0.00072604209  0              0             -175.40829     -25.647606     -325.32582      0             -370.46207      0              0              9.5794274      9.5890254      0.2            91.857373    
      1100   0.197929       0.00080493301  0.00080493301  0              0             -93.541338      172.18103     -359.41454      0              145.08059      0              0              9.5784689      9.5978852      0.2            91.933045    
      1200   0.19339848     0.00091785904  0.00091785904  0              0             -541.2165      -605.0409      -477.55379      0              51.906663      0              0              9.5775105      9.6002834      0.2            91.946815    
      1300   0.22918216     0.0011622302   0.0011622302   0              0              509.95972      1478.6721     -458.9397       0             -360.35899      0              0              9.5765521      9.6017462      0.2            91.951622    
      1400   0.22859108     0.0010252138   0.0010252138   0              0             -69.248874      431.30735     -570.02924      0             -210.79651      0              0              9.5755936      9.5934686      0.2            91.863156    
      1500   0.20497093     0.00079171295  0.00079171295  0              0              138.8444       872.65852     -595.12144      0              3.0230243      0              0              9.5746352      9.5910905      0.2            91.831193    
      1600   0.21208549     0.0011030328   0.0011030328   0              0              96.895324      820.59529     -626.99046      0             -298.50598      0              0              9.5736767      9.5957189      0.2            91.866311    
      1700   0.23399894     0.0010535172   0.0010535172   0              0              94.412558      844.73373     -656.075        0              227.17447      0              0              9.5727183      9.5968201      0.2            91.867655    
      1800   0.20202233     0.00099071194  0.00099071194  0              0              117.36046      800.98046     -566.44865      0              520.10899      0              0              9.5717599      9.5922463      0.2            91.814678    
      1900   0.19675175     0.0011747735   0.0011747735   0              0              195.66666      940.61544     -549.45574      0             -381.43044      0              0              9.5708014      9.5859045      0.2            91.744788    
      2000   0.25140625     0.00093045096  0.00093045096  0              0              119.43148      724.75224     -486.07854      0             -41.382657      0              0              9.569843       9.5870439      0.2            91.746505    
      2100   0.1922271      0.00085852027  0.00085852027  0              0             -104.3581       209.07248     -417.9925       0              390.94499      0              0              9.5688845      9.5857569      0.2            91.725001    
      2200   0.23486606     0.00083921086  0.00083921086  0              0              869.92637      2012.9004     -273.18881      0              28.814667      0              0              9.5679261      9.5794824      0.2            91.655779    
      2300   0.18086597     0.0012418724   0.0012418724   0              0              901.28581      2022.9618     -220.58581      0              598.34808      0              0              9.5669676      9.5785249      0.2            91.637438    
      2400   0.24179911     0.0012324336   0.0012324336   0              0              244.05858      560.12434     -72.148949      0              345.11914      0              0              9.5660092      9.5835776      0.2            91.676591    
      2500   0.24918644     0.00083149233  0.00083149233  0              0              903.12323      1642.7987      163.30857      0              525.41888      0              0              9.5650508      9.5833945      0.2            91.665655    
      2600   0.22209074     0.00085924302  0.00085924302  0              0              663.50926      1072.2253      254.60863      0             -7.8608346      0              0              9.5640923      9.5823423      0.2            91.646407    
      2700   0.20964518     0.0010077896   0.0010077896   0              0              1067.3198      1581.0723      553.40588      0              87.265035      0              0              9.5631339      9.580098       0.2            91.61576     
      2800   0.23417892     0.00097086643  0.00097086643  0              0              1376.3626      1892.6763      859.87425      0              342.77982      0              0              9.5621754      9.5824192      0.2            91.628774    
      2900   0.25303684     0.00095625655  0.00095625655  0              0              847.88087      735.83224      959.73568      0             -317.15304      0              0              9.561217       9.5818623      0.2            91.614265    
      3000   0.1658972      0.00095402728  0.00095402728  0              0              1451.8216      1835.4322      1068.0497      0             -126.19973      0              0              9.5602586      9.5828559      0.2            91.61458     
      3100   0.17751397     0.001028174    0.001028174    0              0              1453.9613      1663.1766      1244.5791      0              405.86024      0              0              9.5593001      9.5763061      0.2            91.542785    
      3200   0.21843801     0.00097472089  0.00097472089  0              0              1852.8238      2318.7168      1386.7474      0              448.39773      0              0              9.5583417      9.5809157      0.2            91.577666    
      3300   0.13595509     0.0011643412   0.0011643412   0              0              1617.267       1801.9155      1432.4129      0             -191.80181      0              0              9.5573832      9.5738013      0.2            91.500488    
      3400   0.21257576     0.001115699    0.001115699    0              0              1623.3098      1977.061       1269.3761      0              547.76101      0              0              9.5564248      9.579524       0.2            91.546001    
      3500   0.16339657     0.0010529649   0.0010529649   0              0              1787.0001      2267.1653      1306.6567      0              150.30295      0              0              9.5554664      9.575901       0.2            91.5022      
      3600   0.19694156     0.0010136146   0.0010136146   0              0              876.52693      472.43102      1280.4365      0             -97.813122      0              0              9.5545079      9.5709526      0.2            91.445742    
      3700   0.20447837     0.0010213402   0.0010213402   0              0              1513.4867      1866.2976      1160.482       0             -84.145482      0              0              9.5535495      9.5727482      0.2            91.453724    
      3800   0.21969954     0.00104868     0.00104868     0              0              1980.9801      2884.1242      1077.6311      0              36.487569      0              0              9.552591       9.5661372      0.2            91.381397    
      3900   0.23002295     0.00096743498  0.00096743498  0              0              1437.961       1929.5124      946.21509      0              80.808336      0              0              9.5516326      9.5799763      0.2            91.504414    
      4000   0.19946207     0.0012277374   0.0012277374   0              0              947.15144      1143.9549      750.18094      0              382.09283      0              0              9.5506742      9.5783901      0.2            91.480083    
      4100   0.21162409     0.001273603    0.001273603    0              0              1361.4516      2039.6042      683.14804      0             -125.93823      0              0              9.5497157      9.5893281      0.2            91.575357    
      4200   0.1918722      0.0011850474   0.0011850474   0              0              847.95955      1152.8545      542.86716      0             -40.747013      0              0              9.5487573      9.5903092      0.2            91.575535    
      4300   0.17651198     0.0015828746   0.0015828746   0              0              958.36425      1544.0853      372.4418       0              570.94672      0              0              9.5477988      9.5870424      0.2            91.535153    
      4400   0.24510811     0.0010104767   0.0010104767   0              0              757.6259       1108.4512      406.59296      0             -67.83816       0              0              9.5468404      9.5995011      0.2            91.644905    
      4500   0.17880978     0.001033951    0.001033951    0              0              826.81605      1454.1964      199.25105      0              266.01187      0              0              9.545882       9.5869289      0.2            91.515692    
      4600   0.19158522     0.00094137919  0.00094137919  0              0              866.20195      1710.0405      22.207247      0              48.444165      0              0              9.5449235      9.5899668      0.2            91.5355      
      4700   0.21654946     0.00097155361  0.00097155361  0              0              655.41876      1360.9868     -50.323666      0              321.38941      0              0              9.5439651      9.5929613      0.2            91.554887    
      4800   0.21554924     0.0010429778   0.0010429778   0              0              311.28671      775.47251     -153.07846      0             -358.12924      0              0              9.5430066      9.5977329      0.2            91.591228    
      4900   0.21766496     0.0010784802   0.0010784802   0              0              308.4772       924.75351     -307.97996      0              527.75959      0              0              9.5420482      9.6028949      0.2            91.631286    
      5000   0.24629615     0.0011782591   0.0011782591   0              0              480.85387      1446.0799     -484.57725      0              472.81167      0              0              9.5410898      9.6090638      0.2            91.68094     
      5100   0.18172891     0.0013044426   0.0013044426   0              0              246.04612      1104.1418     -612.24164      0              79.986963      0              0              9.5401313      9.6042113      0.2            91.625437    
      5200   0.23482551     0.00094120785  0.00094120785  0              0             -8.2025595      677.96527     -694.50082      0              127.3134       0              0              9.5391729      9.6098964      0.2            91.670463    
      5300   0.22202434     0.00085804779  0.00085804779  0              0              452.22122      1693.0915     -788.81257      0             -197.44251      0              0              9.5382144      9.6133891      0.2            91.694567    
      5400   0.23193021     0.0010682046   0.0010682046   0              0              338.5004       1587.0043     -910.17757      0              0.078076447    0              0              9.537256       9.6222935      0.2            91.770277    
      5500   0.25488178     0.00096614515  0.00096614515  0              0              86.775274      1164.3633     -990.98448      0             -34.419937      0              0              9.5362976      9.6179947      0.2            91.72006     
      5600   0.25408768     0.00094514793  0.00094514793  0              0              66.597199      1120.8259     -987.81192      0              55.756713      0              0              9.5353391      9.6233406      0.2            91.761817    
      5700   0.18869873     0.0011727188   0.0011727188   0              0              412.96967      1818.1613     -992.42391      0             -14.386337      0              0              9.5343807      9.6264478      0.2            91.782218    
      5800   0.15913217     0.0012397143   0.0012397143   0              0              741.4207       2425.3539     -942.69097      0             -29.341276      0              0              9.5334222      9.6171503      0.2            91.684355    
      5900   0.24450856     0.0012907017   0.0012907017   0              0              600.85925      2149.5833     -948.05448      0              700.20818      0              0              9.5324638      9.6188039      0.2            91.6909      
      6000   0.21392084     0.0012038669   0.0012038669   0              0              831.2847       2493.6459     -831.28715      0              69.082787      0              0              9.5315054      9.6305852      0.2            91.793975    
      6100   0.19556637     0.0013100453   0.0013100453   0              0              803.49634      2488.598      -881.76713      0              248.21866      0              0              9.5305469      9.6256888      0.2            91.738079    
      6200   0.21162948     0.0012435884   0.0012435884   0              0              589.88988      2021.5913     -842.00322      0              516.00741      0              0              9.5295885      9.6267188      0.2            91.738668    
      6300   0.24407295     0.001193882    0.001193882    0              0              481.83741      1678.0074     -714.54646      0              672.27988      0              0              9.52863        9.6265421      0.2            91.727759    
      6400   0.21195183     0.0011260817   0.0011260817   0              0              201.98817      1144.8777     -741.10055      0              98.140005      0              0              9.5276716      9.6235177      0.2            91.689717    
      6500   0.2541583      0.00091767034  0.00091767034  0              0              441.69597      1496.1471     -612.90814      0              69.261252      0              0              9.5267132      9.6262935      0.2            91.706937    
      6600   0.19074738     0.0011101116   0.0011101116   0              0              375.26563      1435.2381     -684.87395      0              45.106745      0              0              9.5257547      9.6388228      0.2            91.817062    
      6700   0.2200837      0.0012719043   0.0012719043   0              0              199.43069      978.91002     -580.27129      0              98.734125      0              0              9.5247963      9.6410613      0.2            91.829145    
      6800   0.24525916     0.0012864331   0.0012864331   0              0              668.58161      1836.8681     -499.91312      0              522.18351      0              0              9.5238378      9.6403775      0.2            91.813392    
      6900   0.17118475     0.0013447957   0.0013447957   0              0              560.75468      1732.2793     -610.96653      0              55.42486       0              0              9.5228794      9.636436       0.2            91.766618    
      7000   0.21129851     0.0011242      0.0011242      0              0              610.58009      1825.2442     -604.26784      0             -41.093963      0              0              9.521921       9.6352647      0.2            91.746228    
      7100   0.21961081     0.0011724017   0.0011724017   0              0              79.695086      661.31297     -502.124        0              41.830413      0              0              9.5209625      9.6297677      0.2            91.684657    
      7200   0.23905212     0.00091283328  0.00091283328  0              0              186.74698      853.13121     -479.84101      0              190.53197      0              0              9.5200041      9.6277432      0.2            91.656155    
      7300   0.22171041     0.00087911598  0.00087911598  0              0              417.95543      1385.3473     -549.58025      0              155.21285      0              0              9.5190456      9.6309173      0.2            91.677142    
      7400   0.20084543     0.0011664208   0.0011664208   0              0              377.481        1321.7147     -566.94286      0             -133.69716      0              0              9.5180872      9.6345998      0.2            91.702961    
      7500   0.18698772     0.001250267    0.001250267    0              0              646.16603      1953.1111     -660.93753      0              904.8348       0              0              9.5171288      9.6326384      0.2            91.67506     
      7600   0.20745577     0.0012743405   0.0012743405   0              0              895.88424      2355.2877     -563.6961       0              555.8601       0              0              9.5161703      9.6279335      0.2            91.621055    
      7700   0.22483552     0.0012512931   0.0012512931   0              0              241.89337      978.13333     -494.51493      0              470.85955      0              0              9.5152119      9.6186419      0.2            91.523416    
      7800   0.21060606     0.0010863333   0.0010863333   0              0              840.92974      2110.4514     -428.78595      0              290.12262      0              0              9.5142534      9.6230013      0.2            91.555673    
      7900   0.26137514     0.0010836897   0.0010836897   0              0              65.807636      446.77173     -315.3528       0              98.567392      0              0              9.513295       9.6293955      0.2            91.60728     
      8000   0.19726031     0.0014573265   0.0014573265   0              0              964.50153      2230.7943     -301.95469      0             -343.81899      0              0              9.5123366      9.6400959      0.2            91.699837    
      8100   0.21121048     0.0012148127   0.0012148127   0              0              619.05723      1496.029      -258.09292      0              117.62327      0              0              9.5113781      9.640295       0.2            91.692491    
      8200   0.1839719      0.0013150672   0.0013150672   0              0              106.70521      443.99426     -230.78222      0              592.48806      0              0              9.5104197      9.6338069      0.2            91.621546    
      8300   0.22870411     0.0011257889   0.0011257889   0              0              1199.871       2614.7919     -215.24809      0             -3.2758103      0              0              9.5094612      9.6363049      0.2            91.636068    
      8400   0.22370948     0.0013297158   0.0013297158   0              0              897.85126      2068.6839     -273.14472      0             -471.17764      0              0              9.5085028      9.6316372      0.2            91.582449    
      8500   0.20983285     0.0012451496   0.0012451496   0              0              495.99432      1300.2941     -308.45229      0             -8.5426692      0              0              9.5075444      9.6215449      0.2            91.477265    
      8600   0.19944775     0.0012271592   0.0012271592   0              0              569.59382      1395.0707     -256.0964       0              472.82557      0              0              9.5065859      9.6285739      0.2            91.534865    
      8700   0.26310847     0.0013151424   0.0013151424   0              0              918.21952      1923.69       -87.447401      0              569.14556      0              0              9.5056275      9.6158642      0.2            91.404823    
      8800   0.22222916     0.0014387054   0.0014387054   0              0              544.30624      1053.0271      35.379752      0              354.6967       0              0              9.504669       9.6206616      0.2            91.441205    
      8900   0.17513269     0.0015264456   0.0015264456   0              0              1202.4669      2271.6156      133.12577      0              299.93305      0              0              9.5037106      9.6196317      0.2            91.422196    
      9000   0.18669777     0.0015118356   0.0015118356   0              0              1252.9663      2265.6178      240.12367      0             -50.546293      0              0              9.5027522      9.6132705      0.2            91.352527    
      9100   0.19150317     0.0012650864   0.0012650864   0              0              846.79067      1520.6385      172.79342      0              170.95372      0              0              9.5017937      9.6221074      0.2            91.427279    
      9200   0.2280017      0.0012216785   0.0012216785   0              0              756.34245      1487.8945      24.607264      0              218.72814      0              0              9.5008353      9.6344875      0.2            91.535679    
      9300   0.20766557     0.0010647519   0.0010647519   0              0              1609.794       3206.4827      12.948213      0              138.1485       0              0              9.4998768      9.6330246      0.2            91.512547    
      9400   0.17902197     0.0011539284   0.0011539284   0              0              1527.0859      3125.5886     -71.589894      0              154.40748      0              0              9.4989184      9.6256955      0.2            91.433696    
      9500   0.19353221     0.0011068702   0.0011068702   0              0              911.19618      1914.5172     -92.274446      0              83.81173       0              0              9.49796        9.6311592      0.2            91.476364    
      9600   0.15591788     0.0013206157   0.0013206157   0              0              831.58533      1864.6413     -201.62455      0              146.53402      0              0              9.4970015      9.6280614      0.2            91.437714    
      9700   0.23307438     0.001501221    0.001501221    0              0              1046.8219      2395.3213     -301.85944      0             -261.25488      0              0              9.4960431      9.6302888      0.2            91.449637    
      9800   0.22688658     0.0013051761   0.0013051761   0              0              832.83081      1937.4972     -272.00775      0             -41.693341      0              0              9.4950846      9.6376589      0.2            91.510387    
      9900   0.23074353     0.0011271019   0.0011271019   0              0              1057.55        2337.4924     -222.55576      0             -272.12423      0              0              9.4941262      9.6380455      0.2            91.50482     
     10000   0.26200877     0.0012817823   0.0012817823   0              0              1390.5151      3049.7797     -268.90465      0             -19.733137      0              0              9.4931678      9.6449463      0.2            91.561094    
     10100   0.24040441     0.0013548869   0.0013548869   0              0              1438.4987      3139.9709     -263.16835      0             -463.17244      0              0              9.4922093      9.6384227      0.2            91.489926    
     10200   0.21830916     0.001243028    0.001243028    0              0              1219.0768      2745.44       -307.46965      0             -4.3322364      0              0              9.4912509      9.6310349      0.2            91.410569    
     10300   0.18349521     0.0010865841   0.0010865841   0              0              1416.6696      3072.5523     -239.41085      0              19.670259      0              0              9.4902924      9.628777       0.2            91.379909    
     10400   0.17949524     0.0012696727   0.0012696727   0              0              978.78075      2282.7637     -325.36033      0             -7.8984498      0              0              9.489334       9.6305132      0.2            91.387156    
     10500   0.24266772     0.0013206363   0.0013206363   0              0              1534.4638      3378.731      -309.95329      0              239.74972      0              0              9.4883756      9.6252234      0.2            91.327734    
     10600   0.19772276     0.0013424527   0.0013424527   0              0              755.91238      1851.3673     -339.72149      0             -48.02264       0              0              9.4874171      9.6369288      0.2            91.429563    
     10700   0.16684167     0.0014001861   0.0014001861   0              0              548.49559      1477.2543     -380.47471      0             -215.54778      0              0              9.4864587      9.6354766      0.2            91.406551    
     10800   0.18966814     0.0013312676   0.0013312676   0              0              805.254        2054.8611     -444.56448      0              123.74009      0              0              9.4855002      9.6379979      0.2            91.421232    
     10900   0.24324109     0.0013025483   0.0013025483   0              0              1243.6867      2828.676      -341.47429      0              600.81274      0              0              9.4845418      9.621339       0.2            91.253992    
     11000   0.21058269     0.0013562612   0.0013562612   0              0              1242.6173      2904.58       -419.48232      0              63.29289       0              0              9.4835834      9.6227279      0.2            91.257942    
     11100   0.21577566     0.0014903096   0.0014903096   0              0              1027.4936      2422.7861     -367.99         0              247.4262       0              0              9.4826249      9.6234949      0.2            91.255993    
     11200   0.20699142     0.0015043515   0.0015043515   0              0              751.34437      1752.8015     -250.27682      0             -450.00614      0              0              9.4816665      9.6145596      0.2            91.162047    
     11300   0.19361708     0.0016136726   0.0016136726   0              0              1246.0486      2734.0971     -242.19942      0              687.74803      0              0              9.480708       9.6238419      0.2            91.240835    
     11400   0.20677213     0.0012068861   0.0012068861   0              0              1771.3661      3668.5348     -126.00769      0              4.8060073      0              0              9.4797496      9.6238216      0.2            91.231419    
     11500   0.204399       0.0011788603   0.0011788603   0              0              1371.4227      2822.8255     -80.171841      0              235.67393      0              0              9.4787912      9.6230102      0.2            91.214504    
     11600   0.21469337     0.001537448    0.001537448    0              0              979.46527      2065.1463     -106.39284      0             -93.220913      0              0              9.4778327      9.6253123      0.2            91.2271      
     11700   0.19441414     0.0012235926   0.0012235926   0              0              1386.3078      2907.0544     -134.60942      0             -29.853128      0              0              9.4768743      9.6218612      0.2            91.185169    
     11800   0.23204559     0.0014005419   0.0014005419   0              0              1187.2662      2425.3757     -51.028899      0              169.95743      0              0              9.4759158      9.6191989      0.2            91.150719    
     11900   0.21680006     0.001610761    0.001610761    0              0              1679.6656      3300.6273      58.50671       0              54.563037      0              0              9.4749574      9.6079517      0.2            91.034933    
     12000   0.28449524     0.0016516543   0.0016516543   0              0              1768.6431      3378.1609      158.94744      0              103.99778      0              0              9.473999       9.6125358      0.2            91.069154    
     12100   0.23285302     0.0016801013   0.0016801013   0              0              907.56812      1551.917       263.04529      0              98.702612      0              0              9.4730405      9.6078491      0.2            91.015544    
     12200   0.2303708      0.0012202925   0.0012202925   0              0              1064.241       1857.59        270.70553      0              9.8595739      0              0              9.4720821      9.6156026      0.2            91.079777    
     12300   0.23175616     0.0013690109   0.0013690109   0              0              1745.3228      3081.1184      409.36349      0             -496.25324      0              0              9.4711236      9.6126798      0.2            91.042878    
     12400   0.16220507     0.0014341049   0.0014341049   0              0              1694.0565      2860.8532      527.07182      0             -206.04497      0              0              9.4701652      9.6066766      0.2            90.976815    
     12500   0.26763365     0.0011584772   0.0011584772   0              0              1703.745       2842.3008      564.97224      0              185.01678      0              0              9.4692068      9.6123828      0.2            91.02164     
     12600   0.2173602      0.0014254715   0.0014254715   0              0              1393.9469      2295.5158      492.19396      0              690.58809      0              0              9.4682483      9.6095306      0.2            90.985422    
     12700   0.20191122     0.001129077    0.001129077    0              0              1769.1946      2993.2222      544.99245      0              162.63447      0              0              9.4672899      9.6129026      0.2            91.008136    
     12800   0.14148082     0.0013686904   0.0013686904   0              0              1735.105       2789.0709      680.92189      0              157.76486      0              0              9.4663314      9.6050666      0.2            90.924744    
     12900   0.17735447     0.0010766744   0.0010766744   0              0              1570.1123      2320.989       819.02258      0              304.25972      0              0              9.465373       9.6019385      0.2            90.88593     
     13000   0.17436393     0.0014071124   0.0014071124   0              0              1794.3975      2590.4646      998.14062      0              584.01366      0              0              9.4644146      9.598314       0.2            90.842423    
     13100   0.18051738     0.0013822332   0.0013822332   0              0              1434.9065      1956.1596      913.46915      0              679.45917      0              0              9.4634561      9.6028031      0.2            90.875705    
     13200   0.15895453     0.0012615274   0.0012615274   0              0              1330.4651      1748.0329      912.69147      0              960.70345      0              0              9.4624977      9.6017583      0.2            90.856616    
     13300   0.18167704     0.0013244365   0.0013244365   0              0              1667.741       2487.5565      847.77464      0              246.19743      0              0              9.4615392      9.6006571      0.2            90.836993    
     13400   0.18184661     0.0013169299   0.0013169299   0              0              1646.2098      2610.9101      681.3289       0              155.35845      0              0              9.4605808      9.5988864      0.2            90.81104     
     13500   0.25813112     0.0013407862   0.0013407862   0              0              1698.4029      2771.1987      625.42738      0              39.747328      0              0              9.4596224      9.59484        0.2            90.763563    
     13600   0.21754259     0.0011569123   0.0011569123   0              0              1288.1115      2123.8033      452.1931       0              367.78934      0              0              9.4586639      9.6008287      0.2            90.811012    
     13700   0.19178891     0.0014218103   0.0014218103   0              0              1170.8813      1885.4221      456.12962      0              581.82738      0              0              9.4577055      9.6066013      0.2            90.856405    
     13800   0.22654566     0.0011697886   0.0011697886   0              0              1121.0478      1730.1601      511.70753      0              601.81728      0              0              9.456747       9.597007       0.2            90.756467    
     13900   0.20939442     0.0012018936   0.0012018936   0              0              2020.4729      3655.9565      384.80831      0              518.95991      0              0              9.4557886      9.5998586      0.2            90.774234    
     14000   0.23028871     0.0010767447   0.0010767447   0              0              1160.8719      2104.892       216.67623      0              651.11979      0              0              9.4548302      9.6010526      0.2            90.776322    
     14100   0.21803777     0.0013197052   0.0013197052   0              0              754.70953      1400.9872      108.25008      0              372.4737       0              0              9.4538717      9.605154       0.2            90.805893    
     14200   0.19739687     0.0013539362   0.0013539362   0              0              653.10179      1270.9799      35.056474      0              521.96461      0              0              9.4529133      9.5996964      0.2            90.745098    
     14300   0.2553443      0.0011580607   0.0011580607   0              0              809.05326      1666.4316     -48.532738      0             -543.31211      0              0              9.4519548      9.602153       0.2            90.759116    
     14400   0.23115875     0.0012797465   0.0012797465   0              0              586.97121      1385.3002     -211.51918      0              631.29029      0              0              9.4509964      9.5969428      0.2            90.700672    
     14500   0.25442656     0.0010648784   0.0010648784   0              0              867.31789      1921.5797     -187.09506      0              196.59216      0              0              9.4500379      9.5930017      0.2            90.65423     
     14600   0.21756626     0.0012043486   0.0012043486   0              0              54.545239      420.03673     -311.11895      0              1069.401       0              0              9.4490795      9.5934265      0.2            90.64905     
     14700   0.15490505     0.001077112    0.001077112    0              0              212.18002      634.3172      -210.13758      0              399.22574      0              0              9.4481211      9.596548       0.2            90.669347    
     14800   0.13574173     0.0010205469   0.0010205469   0              0              421.06878      1091.9636     -250.03847      0              647.10757      0              0              9.4471626      9.5938778      0.2            90.634924    
     14900   0.16939797     0.0010725238   0.0010725238   0              0              402.85165      1075.9275     -270.3923       0              214.2996       0              0              9.4462042      9.5912645      0.2            90.601043    
     15000   0.16860246     0.0010543802   0.0010543802   0              0              9.8314805      355.29443     -335.85964      0             -40.231393      0              0              9.4452457      9.5922254      0.2            90.600926    
     15100   0.16032056     0.001097022    0.001097022    0              0              128.28571      541.55734     -285.14423      0             -134.79761      0              0              9.4442873      9.5922533      0.2            90.591996    
     15200   0.15244108     0.0013294305   0.0013294305   0              0              176.79134      720.35007     -366.92347      0             -59.488774      0              0              9.4433289      9.5873535      0.2            90.536532    
     15300   0.16478389     0.0011337793   0.0011337793   0              0              54.279435      465.71481     -357.32567      0              66.696638      0              0              9.4423704      9.5914522      0.2            90.566045    
     15400   0.20133605     0.0011304055   0.0011304055   0              0              26.603685      487.76056     -434.74516      0              163.14914      0              0              9.441412       9.5959455      0.2            90.599275    
     15500   0.16120627     0.00096297755  0.00096297755  0              0              331.65725      1025.4833     -362.32966      0              124.59057      0              0              9.4404535      9.5945042      0.2            90.576471    
     15600   0.20294802     0.001326091    0.001326091    0              0              37.597745      335.34646     -260.33831      0              307.66055      0              0              9.4394951      9.5974386      0.2            90.594974    
     15700   0.2138577      0.0010683214   0.0010683214   0              0             -101.18209      128.74361     -331.33919      0              393.21615      0              0              9.4385367      9.5969615      0.2            90.581273    
     15800   0.16799009     0.0012116964   0.0012116964   0              0              237.30284      802.98994     -328.55763      0             -137.81162      0              0              9.4375782      9.5962447      0.2            90.56531     
     15900   0.21754278     0.0010346847   0.0010346847   0              0             -9.4704068      332.52004     -351.64641      0              115.04186      0              0              9.4366198      9.5893909      0.2            90.491436    
     16000   0.20440041     0.0012024687   0.0012024687   0              0              451.3038       1249.448      -347.02491      0              164.82569      0              0              9.4356613      9.5955895      0.2            90.540733    
     16100   0.24911271     0.0014007379   0.0014007379   0              0              546.89061      1363.5974     -269.98201      0             -2.7289223      0              0              9.4347029      9.602547       0.2            90.597178    
     16200   0.23740467     0.0010891822   0.0010891822   0              0              982.4322       2206.6372     -241.93296      0              415.45652      0              0              9.4337445      9.5988026      0.2            90.552651    
     16300   0.17157173     0.0015757328   0.0015757328   0              0              187.65946      695.04774     -319.90161      0              506.96374      0              0              9.432786       9.6008906      0.2            90.563146    
     16400   0.18840354     0.0012254783   0.0012254783   0              0              1115.6819      2556.6443     -325.44902      0              555.98859      0              0              9.4318276      9.5963892      0.2            90.511489    
     16500   0.19300228     0.0012329964   0.0012329964   0              0              429.95269      1253.7789     -394.07391      0              316.5055       0              0              9.4308691      9.6054924      0.2            90.588142    
     16600   0.24895306     0.00099618741  0.00099618741  0              0              507.50924      1376.0967     -361.31189      0              729.77569      0              0              9.4299107      9.6022718      0.2            90.548566    
     16700   0.24871639     0.0012001845   0.0012001845   0              0              759.69054      1805.9092     -286.7156       0              32.962397      0              0              9.4289523      9.6063322      0.2            90.577648    
     16800   0.23796178     0.0010719396   0.0010719396   0              0              187.13826      647.97649     -273.88082      0              311.09387      0              0              9.4279938      9.6103849      0.2            90.60665     
     16900   0.18476771     0.0010335985   0.0010335985   0              0              198.03599      699.94496     -304.08205      0              174.59564      0              0              9.4270354      9.6022881      0.2            90.52111     
     17000   0.19845676     0.0012755287   0.0012755287   0              0              181.01286      526.44074     -164.6124       0              612.63031      0              0              9.4260769      9.6025453      0.2            90.514331    
     17100   0.21667645     0.0011827495   0.0011827495   0              0              1225.6747      2492.984      -41.830701      0              235.69094      0              0              9.4251185      9.5995497      0.2            90.476894    
     17200   0.23600278     0.001342388    0.001342388    0              0              947.55624      1723.8442      171.11485      0             -46.605093      0              0              9.4241601      9.6051618      0.2            90.520582    
     17300   0.20112108     0.0011604807   0.0011604807   0              0              944.35239      1526.4691      362.10501      0              338.89923      0              0              9.4232016      9.6014702      0.2            90.47659     
     17400   0.19681834     0.0012661245   0.0012661245   0              0              897.98046      1389.5848      406.19122      0             -64.518122      0              0              9.4222432      9.596526       0.2            90.420802    
     17500   0.26462027     0.0010808341   0.0010808341   0              0              1055.8297      1666.3486      445.12104      0              204.51166      0              0              9.4212847      9.5880062      0.2            90.331337    
     17600   0.20515586     0.001013447    0.001013447    0              0              792.10289      1013.2664      570.74901      0             -99.316517      0              0              9.4203263      9.5805168      0.2            90.251595    
     17700   0.21039984     0.0013406443   0.0013406443   0              0              1264.7888      1854.5401      674.82869      0              177.37396      0              0              9.4193679      9.5891592      0.2            90.323818    
     17800   0.19772332     0.0011431304   0.0011431304   0              0              1266.8633      1897.0381      636.47884      0             -391.49802      0              0              9.4184094      9.5855843      0.2            90.280958    
     17900   0.25275775     0.0010461097   0.0010461097   0              0              1224.6885      1757.5776      691.63477      0             -1154.4794      0              0              9.417451       9.5886679      0.2            90.30081     
     18000   0.16782383     0.00086343639  0.00086343639  0              0              923.15625      1169.258       676.86872      0             -211.57886      0              0              9.4164925      9.5865479      0.2            90.271657    
     18100   0.21286645     0.0011583568   0.0011583568   0              0              1188.077       1731.0802      644.88635      0             -304.88812      0              0              9.4155341      9.5859529      0.2            90.256866    
     18200   0.22579739     0.0010109      0.0010109      0              0              1122.3688      1617.5734      626.99546      0              185.95895      0              0              9.4145757      9.5861189      0.2            90.249242    
     18300   0.2002265      0.0012395059   0.0012395059   0              0              839.17617      1106.5669      571.62176      0              426.1076       0              0              9.4136172      9.5780433      0.2            90.164034    
     18400   0.17707071     0.00098720168  0.00098720168  0              0              1444.6177      2320.757       568.29573      0             -127.49283      0              0              9.4126588      9.5940128      0.2            90.305169    
     18500   0.22487872     0.0011475066   0.0011475066   0              0              1077.0666      1753.6054      400.32936      0             -354.63002      0              0              9.4117003      9.606111       0.2            90.409839    
     18600   0.17725614     0.0012222251   0.0012222251   0              0              1437.263       2476.3992      397.941        0              136.16371      0              0              9.4107419      9.5960336      0.2            90.305796    
     18700   0.17703842     0.0011797662   0.0011797662   0              0              651.60028      932.84866      370.17654      0             -246.71211      0              0              9.4097835      9.5903651      0.2            90.243258    
     18800   0.19706793     0.001092251    0.001092251    0              0              1103.8678      2064.971       142.58063      0             -19.688908      0              0              9.408825       9.5825837      0.2            90.160853    
     18900   0.22945918     0.00091200505  0.00091200505  0              0              1065.8962      2113.2181      18.377981      0              48.372521      0              0              9.4078666      9.5765458      0.2            90.094865    
     19000   0.17708915     0.0011096534   0.0011096534   0              0              460.6182       1086.927      -165.90797      0              518.58252      0              0              9.4069081      9.5795893      0.2            90.114316    
     19100   0.17397261     0.00092563265  0.00092563265  0              0              559.20288      1318.2387     -199.99462      0              916.35116      0              0              9.4059497      9.5773875      0.2            90.084425    
     19200   0.21897854     0.0010424731   0.0010424731   0              0              100.19939      535.49914     -335.27893      0              736.60027      0              0              9.4049913      9.5707735      0.2            90.013041    
     19300   0.2238261      0.0011536805   0.0011536805   0              0              506.82684      1495.1807     -481.70099      0              560.38733      0              0              9.4040328      9.5712784      0.2            90.008616    
     19400   0.24663789     0.0010583325   0.0010583325   0              0              112.02475      710.34116     -486.48293      0              438.20219      0              0              9.4030744      9.571233       0.2            89.999016    
     19500   0.20089358     0.001494448    0.001494448    0              0              122.67024      869.16762     -624.0395       0              455.33722      0              0              9.4021159      9.5755223      0.2            90.030171    
     19600   0.17714091     0.0011730493   0.0011730493   0              0              186.99305      1042.1253     -668.3159       0              243.13785      0              0              9.4011575      9.5807687      0.2            90.070316    
     19700   0.18361258     0.0013376154   0.0013376154   0              0              478.06662      1701.9095     -745.9509       0              122.28661      0              0              9.4001991      9.5780501      0.2            90.035577    
     19800   0.2268704      0.001011856    0.001011856    0              0              266.3375       1247.7963     -715.29771      0              224.51031      0              0              9.3992406      9.5779803      0.2            90.025742    
     19900   0.20376697     0.00093260503  0.00093260503  0              0              280.14507      1176.5462     -616.47079      0              276.20717      0              0              9.3982822      9.5777413      0.2            90.014315    
     20000   0.23911518     0.0012638015   0.0012638015   0              0              577.05649      1621.3985     -467.4586       0              587.22419      0              0              9.3973237      9.5923184      0.2            90.142121    
     20100   0.23210418     0.0010560601   0.0010560601   0              0             -15.704059      330.50329     -362.0827       0              343.62637      0              0              9.3963653      9.5878939      0.2            90.091353    
     20200   0.20154561     0.0011807195   0.0011807195   0              0              1000.9715      2108.4716     -106.70234      0              394.7604       0              0              9.3954069      9.5850123      0.2            90.05509     
     20300   0.2781337      0.001045998    0.001045998    0              0              436.71128      766.75324      106.44805      0              456.75107      0              0              9.3944484      9.5753358      0.2            89.954999    
     20400   0.25987094     0.0012653295   0.0012653295   0              0              834.95845      1376.4347      293.28705      0              798.2296       0              0              9.39349        9.5781644      0.2            89.972392    
     20500   0.24546086     0.0011184016   0.0011184016   0              0              837.24688      1222.8324      451.45707      0             -76.152339      0              0              9.3925315      9.583793       0.2            90.016078    
     20600   0.19112465     0.0012874828   0.0012874828   0              0              683.9467       832.64241      535.08825      0              388.5285       0              0              9.3915731      9.5885523      0.2            90.051589    
     20700   0.19476445     0.00099498805  0.00099498805  0              0              737.5223       1011.7285      463.14284      0              968.69831      0              0              9.3906147      9.5829795      0.2            89.990068    
     20800   0.20484167     0.001055736    0.001055736    0              0              1108.8796      1679.6462      537.89698      0              269.03129      0              0              9.3896562      9.5766615      0.2            89.921559    
     20900   0.25428127     0.0011337764   0.0011337764   0              0              1183.1194      1814.7331      551.29746      0              643.20734      0              0              9.3886978      9.5739687      0.2            89.887099    
     21000   0.17069689     0.0011717489   0.0011717489   0              0              1326.8912      2017.7031      635.90961      0              645.97068      0              0              9.3877393      9.5755835      0.2            89.893082    
     21100   0.170733       0.0012430209   0.0012430209   0              0              1136.037       1724.7853      547.09598      0             -525.34797      0              0              9.3867809      9.5752621      0.2            89.880887    
     21200   0.18175726     0.0012057898   0.0012057898   0              0              1203.8915      1964.8634      442.74328      0              188.28737      0              0              9.3858225      9.5796695      0.2            89.913077    
     21300   0.17281338     0.0013668702   0.0013668702   0              0              912.82064      1507.6876      317.76997      0              412.16692      0              0              9.384864       9.5827339      0.2            89.932655    
     21400   0.20088393     0.0013005183   0.0013005183   0              0              972.15748      1728.5382      215.61822      0             -213.77478      0              0              9.3839056      9.5921857      0.2            90.012165    
     21500   0.21453039     0.0013719197   0.0013719197   0              0              1053.2282      2090.0563      16.236634      0              1138.0613      0              0              9.3829471      9.590443       0.2            89.986619    
     21600   0.21656347     0.0012071537   0.0012071537   0              0              1643.0984      3283.5147      2.4768333      0              111.36765      0              0              9.3819887      9.582707       0.2            89.904849    
     21700   0.19346803     0.0013569047   0.0013569047   0              0              929.10918      1876.7543     -18.722782      0              805.22632      0              0              9.3810303      9.5881157      0.2            89.946403    
     21800   0.24140415     0.0010454574   0.0010454574   0              0              590.10997      1293.4197     -113.39542      0              420.0384       0              0              9.3800718      9.5861401      0.2            89.918683    
     21900   0.20256871     0.0012099751   0.0012099751   0              0              503.83882      1236.4067     -228.90528      0              428.49133      0              0              9.3791134      9.5831301      0.2            89.881263    
     22000   0.24539872     0.0010159551   0.0010159551   0              0              214.80526      729.83671     -300.40878      0              742.01227      0              0              9.3781549      9.5807932      0.2            89.850163    
     22100   0.19594736     0.0014129027   0.0014129027   0              0              848.88245      2030.4714     -332.86654      0              524.27441      0              0              9.3771965      9.5727864      0.2            89.765899    
     22200   0.23973606     0.0009765955   0.0009765955   0              0              473.08243      1393.8672     -447.8946       0              748.28913      0              0              9.3762381      9.5659077      0.2            89.692228    
     22300   0.23685929     0.0012595804   0.0012595804   0              0              330.46715      1115.051      -454.33258      0              451.56471      0              0              9.3752796      9.5649222      0.2            89.67382     
     22400   0.25761776     0.0010862433   0.0010862433   0              0             -258.01733     -26.753371     -489.48952      0              258.88697      0              0              9.3743212      9.559533       0.2            89.614133    
     22500   0.17186198     0.0014267933   0.0014267933   0              0              72.418687      594.63474     -449.95884      0              1142.5201      0              0              9.3733627      9.5604255      0.2            89.613336    
     22600   0.21765781     0.0011534639   0.0011534639   0              0             -78.206032      281.79332     -438.38354      0              750.79385      0              0              9.3724043      9.5654525      0.2            89.651288    
     22700   0.19883674     0.00098112849  0.00098112849  0              0              566.7539       1585.6402     -452.32182      0              266.56991      0              0              9.3714459      9.5666818      0.2            89.653641    
     22800   0.19950893     0.0009928448   0.0009928448   0              0              489.93469      1425.0521     -445.39531      0              451.54774      0              0              9.3704874      9.5639635      0.2            89.618999    
     22900   0.21828122     0.0010908971   0.0010908971   0              0              242.45575      929.53456     -444.78517      0              128.25117      0              0              9.369529       9.5717732      0.2            89.683006    
     23000   0.16069185     0.0011103913   0.0011103913   0              0              78.769627      534.96648     -377.60642      0             -311.81688      0              0              9.3685705      9.5767181      0.2            89.720159    
     23100   0.21551888     0.0013467913   0.0013467913   0              0              623.84021      1602.1275     -354.64475      0             -22.975006      0              0              9.3676121      9.5793968      0.2            89.736073    
     23200   0.21130736     0.0012797656   0.0012797656   0              0              363.35392      1091.1154     -364.5561       0              38.335861      0              0              9.3666537      9.583482       0.2            89.765157    
     23300   0.25067993     0.0013750142   0.0013750142   0              0              1043.5871      2325.5766     -238.55852      0              1117.7763      0              0              9.3656952      9.57295        0.2            89.657332    
     23400   0.17045364     0.0011395414   0.0011395414   0              0              607.66781      1291.4122     -76.288547      0              332.42511      0              0              9.3647368      9.5660356      0.2            89.583405    
     23500   0.21073605     0.0011811267   0.0011811267   0              0              1027.786       2157.7617     -102.36677      0              233.24519      0              0              9.3637783      9.5787851      0.2            89.69362     
     23600   0.20901674     0.0012824028   0.0012824028   0              0              505.07893      895.07787      114.87232      0             -75.689183      0              0              9.3628199      9.5770461      0.2            89.668158    
     23700   0.23597768     0.0013167944   0.0013167944   0              0              365.59082      596.97309      134.04425      0              329.26262      0              0              9.3618615      9.5804388      0.2            89.69074     
     23800   0.21798744     0.0011435582   0.0011435582   0              0              429.969        783.3414       76.420077      0              356.85669      0              0              9.360903       9.5805126      0.2            89.682249    
     23900   0.23898215     0.0012412342   0.0012412342   0              0              1026.7642      1812.9983      240.30525      0              953.07579      0              0              9.3599446      9.5753156      0.2            89.624423    
     24000   0.22659883     0.001397659    0.001397659    0              0              862.21782      1299.9424      424.33525      0              773.54861      0              0              9.3589861      9.5816638      0.2            89.674659    
     24100   0.20065509     0.001281583    0.001281583    0              0              799.43061      1158.0936      440.54872      0              977.92995      0              0              9.3580277      9.5866345      0.2            89.711991    
     24200   0.22171794     0.0012363687   0.0012363687   0              0              819.09477      1097.5417      540.48106      0              439.54478      0              0              9.3570693      9.5878708      0.2            89.714371    
     24300   0.20015634     0.00095913305  0.00095913305  0              0              799.76092      1007.9578      591.38706      0              530.6734       0              0              9.3561108      9.5886826      0.2            89.712777    
     24400   0.22985253     0.0011062891   0.0011062891   0              0              848.68116      1145.5281      551.64984      0             -118.52523      0              0              9.3551524      9.5754803      0.2            89.580077    
     24500   0.21324427     0.0010326884   0.0010326884   0              0              811.362        1065.8027      556.78956      0             -335.23125      0              0              9.3541939      9.5864851      0.2            89.673841    
     24600   0.18829617     0.00095640797  0.00095640797  0              0              400.59458      270.05787      530.93685      0             -205.58215      0              0              9.3532355      9.5829427      0.2            89.63152     
     24700   0.19213624     0.00116434     0.00116434     0              0              452.435        362.84898      541.84189      0             -637.52783      0              0              9.3522771      9.5819771      0.2            89.613304    
     24800   0.14968634     0.0012449156   0.0012449156   0              0              692.30228      954.77891      429.5985       0             -194.9223       0              0              9.3513186      9.5816652      0.2            89.601204    
     24900   0.19311544     0.0009152655   0.0009152655   0              0              972.93315      1678.2447      267.40275      0             -340.25729      0              0              9.3503602      9.5750187      0.2            89.529874    
     25000   0.21433748     0.0010300181   0.0010300181   0              0              570.02672      888.5752       251.31654      0              428.2398       0              0              9.3494017      9.5716073      0.2            89.488802    
     25100   0.2548813      0.0010389934   0.0010389934   0              0              223.66666      275.33209      171.82969      0              103.1237       0              0              9.3484433      9.5732721      0.2            89.495191    
     25200   0.15706632     0.0012523418   0.0012523418   0              0             -30.870846     -395.57911      333.65846      0             -180.46472      0              0              9.3474849      9.5809752      0.2            89.558021    
     25300   0.17894036     0.0012506003   0.0012506003   0              0              289.03449      433.49462      144.40985      0             -39.644849      0              0              9.3465264      9.578362       0.2            89.524413    
     25400   0.22398034     0.0015373399   0.0015373399   0              0              363.4799       534.51671      192.26064      0              649.88209      0              0              9.345568       9.5791385      0.2            89.52249     
     25500   0.20711246     0.0013029256   0.0013029256   0              0              744.51073      1295.5314      193.2788       0             -318.20763      0              0              9.3446095      9.5841112      0.2            89.559777    
     25600   0.24351769     0.0012903671   0.0012903671   0              0              432.14134      775.56702      88.518424      0             -63.253119      0              0              9.3436511      9.5821635      0.2            89.532392    
     25700   0.16216154     0.0012135124   0.0012135124   0              0             -158.56336     -390.65063      73.32661       0              1005.446       0              0              9.3426927      9.5796181      0.2            89.499428    
     25800   0.21472759     0.0011342436   0.0011342436   0              0              791.7468       1606.961      -23.615572      0              675.95925      0              0              9.3417342      9.5842009      0.2            89.533058    
     25900   0.19794016     0.0011275925   0.0011275925   0              0              995.09902      2120.152      -130.12653      0              341.07616      0              0              9.3407758      9.586772       0.2            89.547887    
     26000   0.17824471     0.0010777258   0.0010777258   0              0              445.56146      1158.7168     -267.81057      0              288.51363      0              0              9.3398173      9.5868771      0.2            89.539681    
     26100   0.19212096     0.00097937421  0.00097937421  0              0              311.35036      1038.9014     -416.37151      0             -106.37103      0              0              9.3388589      9.5860582      0.2            89.522845    
     26200   0.19724942     0.0010907097   0.0010907097   0              0              497.4047       1594.1442     -599.49839      0             -51.388699      0              0              9.3379004      9.5738008      0.2            89.399199    
     26300   0.21123481     0.0011742452   0.0011742452   0              0              776.35474      2209.789      -657.27991      0              19.14185       0              0              9.336942       9.5742871      0.2            89.394564    
     26400   0.23351978     0.0011914598   0.0011914598   0              0              330.34277      1352.7683     -692.258        0             -407.073        0              0              9.3359836      9.5769758      0.2            89.410489    
     26500   0.22743499     0.0010311206   0.0010311206   0              0              430.74877      1438.0005     -576.66336      0             -404.14629      0              0              9.3350251      9.570639       0.2            89.342156    
     26600   0.27204508     0.0012735435   0.0012735435   0              0              47.719731      554.93914     -459.68488      0             -128.21312      0              0              9.3340667      9.5690265      0.2            89.317932    
     26700   0.2469769      0.0013089457   0.0013089457   0              0              305.18634      911.89308     -301.7477       0              450.25974      0              0              9.3331082      9.5566973      0.2            89.19369     
     26800   0.21870534     0.0011211265   0.0011211265   0              0              485.35696      1138.2689     -167.7006       0              251.83037      0              0              9.3321498      9.558781       0.2            89.203976    
     26900   0.20883345     0.0010000571   0.0010000571   0              0              378.0959       622.3566       133.64183      0             -91.36147       0              0              9.3311914      9.5647437      0.2            89.250454    
     27000   0.16824064     0.0011526761   0.0011526761   0              0              962.69488      1644.3415      280.86753      0             -411.92333      0              0              9.3302329      9.5673868      0.2            89.265948    
     27100   0.23573598     0.0012905274   0.0012905274   0              0              616.69714      762.28736      470.92602      0             -25.531474      0              0              9.3292745      9.5669481      0.2            89.252685    
     27200   0.21403021     0.0013696746   0.0013696746   0              0              1330.7519      2114.3227      546.96259      0              983.48722      0              0              9.328316       9.5712054      0.2            89.283229    
     27300   0.20839458     0.0012412099   0.0012412099   0              0              1682.1414      2613.2747      750.78985      0              384.3383       0              0              9.3273576      9.5589927      0.2            89.160143    
     27400   0.23418593     0.0011231496   0.0011231496   0              0              1125.8994      1404.4465      847.16276      0              66.061869      0              0              9.3263992      9.5642002      0.2            89.199549    
     27500   0.25276231     0.0011808098   0.0011808098   0              0              1514.1256      2102.1522      925.95108      0              640.9642       0              0              9.3254407      9.5592231      0.2            89.143968    
     27600   0.17157105     0.0011821538   0.0011821538   0              0              1752.3522      2496.4046      1008.0853      0              343.53952      0              0              9.3244823      9.5587422      0.2            89.130323    
     27700   0.21066069     0.0011126656   0.0011126656   0              0              1286.4017      1672.622       900.02719      0             -5.4949964      0              0              9.3235238      9.5593268      0.2            89.126611    
     27800   0.20841198     0.00098076062  0.00098076062  0              0              732.90313      705.27507      760.35752      0             -48.346569      0              0              9.3225654      9.5562035      0.2            89.088332    
     27900   0.2291139      0.0011348477   0.0011348477   0              0              1622.0767      2609.9693      633.97506      0              804.90136      0              0              9.321607       9.5705131      0.2            89.212562    
     28000   0.20686126     0.0011733521   0.0011733521   0              0              995.40302      1561.1225      429.4769       0              657.80762      0              0              9.3206485      9.5662778      0.2            89.163913    
     28100   0.23999231     0.0012528986   0.0012528986   0              0              313.1594       444.59317      181.54106      0              226.93077      0              0              9.3196901      9.5656401      0.2            89.148801    
     28200   0.23549689     0.0011668542   0.0011668542   0              0              803.47455      1707.8595     -101.09868      0              369.8422       0              0              9.3187316      9.5668844      0.2            89.151229    
[...]
     43200   0.14865632     0.0009695439   0.0009695439   0              0              877.12476      1675.2195      78.83161       0             -610.50353      0              0              9.1749656      9.5775322      0.2            87.873529    
     43300   0.18775971     0.0012404935   0.0012404935   0              0              716.30472      1269.7635      162.63419      0             -472.59522      0              0              9.1740072      9.5666451      0.2            87.764471    
     43400   0.17803322     0.0013021853   0.0013021853   0              0              436.35951      592.30806      280.23694      0             -430.41995      0              0              9.1730487      9.5632547      0.2            87.724202    
     43500   0.20713633     0.0010575211   0.0010575211   0              0              253.48261      122.53186      384.25105      0              13.858754      0              0              9.1720903      9.5622374      0.2            87.705705    
     43600   0.20845969     0.001193421    0.001193421    0              0              817.15899      1163.7134      470.40811      0              542.99269      0              0              9.1711319      9.5627873      0.2            87.701583    
     43700   0.20523425     0.0011360033   0.0011360033   0              0              988.26894      1502.6711      473.66082      0             -19.202367      0              0              9.1701734      9.5674153      0.2            87.734857    
     43800   0.16170052     0.0010191348   0.0010191348   0              0              1190.2698      1833.5349      546.82855      0             -240.1638       0              0              9.169215       9.5702534      0.2            87.751711    
     43900   0.21960807     0.0011359216   0.0011359216   0              0              557.46202      532.99504      581.73663      0              423.74367      0              0              9.1682565      9.5640727      0.2            87.685872    
     44000   0.24909313     0.00099473731  0.00099473731  0              0              666.02996      760.35164      571.49426      0              132.05539      0              0              9.1672981      9.5585444      0.2            87.626026    
     44100   0.25359688     0.0011630212   0.0011630212   0              0              60.111222     -466.59615      586.61501      0             -224.43212      0              0              9.1663397      9.5578613      0.2            87.610603    
     44200   0.16221624     0.0012928615   0.0012928615   0              0              517.41468      411.6158       623.03255      0             -79.978014      0              0              9.1653812      9.5550669      0.2            87.575831    
     44300   0.19020232     0.0010124165   0.0010124165   0              0              1194.916       1699.9281      689.74131      0             -145.46143      0              0              9.1644228      9.5618208      0.2            87.628568    
     44400   0.22403924     0.0012936354   0.0012936354   0              0              1251.1996      1799.4852      702.71081      0              204.54575      0              0              9.1634643      9.564237       0.2            87.641545    
     44500   0.19066826     0.0013529306   0.0013529306   0              0              1001.7631      1245.0913      758.26096      0              756.66777      0              0              9.1625059      9.5578993      0.2            87.574309    
     44600   0.16487125     0.0012832402   0.0012832402   0              0              1715.1616      2797.753       632.38541      0              144.69743      0              0              9.1615475      9.5691392      0.2            87.668123    
     44700   0.24360931     0.0011614488   0.0011614488   0              0              1474.1551      2297.1226      650.99981      0             -625.15839      0              0              9.160589       9.5644644      0.2            87.616127    
     44800   0.17561865     0.0010956621   0.0010956621   0              0              940.48195      1263.9489      616.83915      0             -962.09043      0              0              9.1596306      9.5519371      0.2            87.492215    
     44900   0.2118216      0.0010932586   0.0010932586   0              0              941.43333      1330.4095      552.2373       0             -158.29794      0              0              9.1586721      9.5485716      0.2            87.452236    
     45000   0.19165311     0.0012044687   0.0012044687   0              0              1207.79        1933.9226      481.48579      0             -522.39878      0              0              9.1577137      9.5549355      0.2            87.501363    
     45100   0.15965019     0.0011998658   0.0011998658   0              0              1499.2362      2520.206       478.07332      0              438.98629      0              0              9.1567553      9.5499724      0.2            87.44676     
     45200   0.21115883     0.001083661    0.001083661    0              0              1113.0662      1879.7201      346.22121      0              103.64008      0              0              9.1557968      9.5599895      0.2            87.529321    
     45300   0.26258622     0.00091051793  0.00091051793  0              0              778.91118      1295.8316      261.77872      0              119.03215      0              0              9.1548384      9.561106       0.2            87.53038     
     45400   0.18470122     0.0012950679   0.0012950679   0              0              901.01074      1681.466       120.34471      0             -132.41478      0              0              9.1538799      9.5552491      0.2            87.467603    
     45500   0.20604927     0.0013607399   0.0013607399   0              0              938.084        2018.0822     -142.0996       0             -274.94074      0              0              9.1529215      9.5592334      0.2            87.494912    
     45600   0.21758539     0.0011060833   0.0011060833   0              0              357.15427      1141.2363     -427.10061      0              705.53775      0              0              9.1519631      9.5628724      0.2            87.519055    
     45700   0.22089532     0.0013063189   0.0013063189   0              0             -64.070087      594.29736     -722.65534      0             -110.7256       0              0              9.1510046      9.5592584      0.2            87.476818    
     45800   0.1669742      0.0011245343   0.0011245343   0              0              62.817856      1016.0974     -890.64825      0              18.822999      0              0              9.1500462      9.5635379      0.2            87.506813    
     45900   0.22006832     0.001162923    0.001162923    0              0             -278.16434      495.06859     -1051.5923      0              269.28922      0              0              9.1490877      9.5621654      0.2            87.48509     
     46000   0.19961478     0.0012265239   0.0012265239   0              0             -498.65667      350.12315     -1347.6275      0              286.15087      0              0              9.1481293      9.5659264      0.2            87.510331    
     46100   0.20710154     0.0011615272   0.0011615272   0              0             -574.47194      422.26718     -1571.4234      0              515.55282      0              0              9.1471709      9.5636986      0.2            87.480785    
     46200   0.2233247      0.0012672561   0.0012672561   0              0             -506.36508      594.58703     -1607.5191      0              765.76156      0              0              9.1462124      9.5704912      0.2            87.533745    
     46300   0.19623665     0.0011116615   0.0011116615   0              0             -447.80942      740.91101     -1636.7232      0              288.44729      0              0              9.145254       9.5569741      0.2            87.400955    
     46400   0.21252969     0.001146489    0.001146489    0              0             -604.78701      469.07725     -1678.8254      0              296.35932      0              0              9.1442955      9.5612598      0.2            87.430985    
     46500   0.20380348     0.0011264502   0.0011264502   0              0             -633.39331      281.85307     -1548.8699      0              412.59831      0              0              9.1433371      9.5621158      0.2            87.429648    
     46600   0.23567824     0.00088354669  0.00088354669  0              0             -513.05865      357.20798     -1383.4966      0              84.476391      0              0              9.1423787      9.5606434      0.2            87.407023    
     46700   0.2028686      0.0011447712   0.0011447712   0              0             -324.44294      651.56661     -1300.6606      0              105.45069      0              0              9.1414202      9.5684271      0.2            87.469013    
     46800   0.1827116      0.0012941273   0.0012941273   0              0             -19.543188      1090.0614     -1129.3095      0             -251.49145      0              0              9.1404618      9.554693       0.2            87.334307    
     46900   0.22929286     0.0012488336   0.0012488336   0              0             -214.85491      380.31968     -810.21109      0             -478.48654      0              0              9.1395033      9.5532793      0.2            87.312228    
     47000   0.25961635     0.0010715488   0.0010715488   0              0             -124.17905      387.90059     -636.42834      0             -265.66936      0              0              9.1385449      9.5522854      0.2            87.293989    
     47100   0.20173142     0.0012550479   0.0012550479   0              0              418.18102      1213.0585     -376.87919      0              71.375344      0              0              9.1375865      9.5556628      0.2            87.315695    
     47200   0.19819208     0.001149634    0.001149634    0              0              413.33103      964.08065     -137.63897      0              308.17063      0              0              9.136628       9.5492958      0.2            87.248363    
     47300   0.19315135     0.0012474929   0.0012474929   0              0              446.61917      668.09034      224.99686      0              31.795292      0              0              9.1356696      9.5393702      0.2            87.148534    
     47400   0.19512251     0.0012300416   0.0012300416   0              0              181.7935      -58.78421       422.14933      0              62.920953      0              0              9.1347111      9.5358745      0.2            87.107459    
     47500   0.1852292      0.00094038794  0.00094038794  0              0              691.56046      854.83797      528.08975      0              177.7997       0              0              9.1337527      9.5343376      0.2            87.084282    
     47600   0.21631818     0.0010925717   0.0010925717   0              0              832.38951      1032.2627      632.32702      0              346.03609      0              0              9.1327943      9.5375143      0.2            87.104156    
     47700   0.19484196     0.0011594388   0.0011594388   0              0              407.32697      138.52082      675.95282      0              463.51105      0              0              9.1318358      9.5283103      0.2            87.010966    
     47800   0.16575654     0.00074551635  0.00074551635  0              0              618.16758      577.44263      658.71537      0              373.1224       0              0              9.1308774      9.5299648      0.2            87.01694     
     47900   0.20519087     0.00091694003  0.00091694003  0              0              1212.3017      1752.6939      671.70509      0              669.80087      0              0              9.1299189      9.5408729      0.2            87.107396    
     48000   0.20935837     0.00096330443  0.00096330443  0              0              661.44598      607.32183      715.37364      0              679.86305      0              0              9.1289605      9.5441343      0.2            87.128025    
     48100   0.17274473     0.0009426201   0.0009426201   0              0              768.82184      692.01607      845.4453       0              228.4425       0              0              9.1280021      9.5418274      0.2            87.09782     
     48200   0.22969539     0.00094313073  0.00094313073  0              0             -91.939048     -1039.7028      855.61791      0              33.01238       0              0              9.1270436      9.5410836      0.2            87.081887    
     48300   0.2257822      0.00094307115  0.00094307115  0              0              307.43989     -121.53407      736.23639      0              70.411042      0              0              9.1260852      9.5484264      0.2            87.139753    
     48400   0.20852723     0.0012724424   0.0012724424   0              0              649.13646      738.56899      559.51803      0             -105.63128      0              0              9.1251267      9.5507535      0.2            87.151836    
     48500   0.18574183     0.00093789971  0.00093789971  0              0              374.29599      371.98334      376.46165      0              0.086661992    0              0              9.1241683      9.5570839      0.2            87.200442    
     48600   0.18791135     0.0012646714   0.0012646714   0              0              271.02186      231.52642      310.33811      0             -936.46209      0              0              9.1232099      9.5607077      0.2            87.224342    
     48700   0.20189371     0.0010772782   0.0010772782   0              0              294.19121      340.71919      247.46156      0              288.73038      0              0              9.1222514      9.5675623      0.2            87.277709    
     48800   0.26144885     0.0010756659   0.0010756659   0              0             -154.2939      -450.90637      142.09502      0              303.25869      0              0              9.121293       9.5734923      0.2            87.322628    
     48900   0.20523881     0.0011565017   0.0011565017   0              0              334.3915       546.51077      122.09369      0             -282.59908      0              0              9.1203345      9.5799779      0.2            87.372603    
     49000   0.20256939     0.0010221973   0.0010221973   0              0              637.79666      1176.183       99.202624      0              364.51053      0              0              9.1193761      9.5709945      0.2            87.281499    
     49100   0.20441779     0.00088008864  0.00088008864  0              0              908.88821      1838.661      -21.052347      0              95.266616      0              0              9.1184177      9.571017       0.2            87.27253     
     49200   0.21321597     0.00098422659  0.00098422659  0              0              18.772433      122.32907     -85.007097      0              941.11838      0              0              9.1174592      9.569044       0.2            87.245369    
     49300   0.19047596     0.0011776158   0.0011776158   0              0              632.92384      1192.2439      73.416346      0              66.294616      0              0              9.1165008      9.5661846      0.2            87.210129    
     49400   0.19594201     0.0012147255   0.0012147255   0              0              215.31994      330.82949      99.60307       0              197.57048      0              0              9.1155423      9.5650083      0.2            87.190238    
     49500   0.21975868     0.0011649412   0.0011649412   0              0             -56.579755     -111.40872     -1.9244801      0              634.90027      0              0              9.1145839      9.5747253      0.2            87.269637    
     49600   0.17845138     0.0011683671   0.0011683671   0              0              40.541805      154.23716     -73.355608      0              68.787367      0              0              9.1136255      9.5684986      0.2            87.203712    
     49700   0.18535488     0.0012324569   0.0012324569   0              0             -664.36057     -1119.0422     -209.87289      0             -202.64544      0              0              9.112667       9.5690434      0.2            87.199506    
     49800   0.22577149     0.00096836617  0.00096836617  0              0              139.18858      566.80055     -288.66558      0             -176.62444      0              0              9.1117086      9.5736827      0.2            87.232606    
     49900   0.2391534      0.0010459674   0.0010459674   0              0              750.93671      1884.1242     -382.47384      0             -19.645484      0              0              9.1107501      9.5693209      0.2            87.183691    
     50000   0.18515104     0.001086996    0.001086996    0              0             -442.3338      -410.11108     -474.79286      0              753.56743      0              0              9.1097917      9.5713139      0.2            87.192676    
     50100   0.22821958     0.00097199117  0.00097199117  0              0             -399.9687      -398.75192     -401.37603      0             -679.182        0              0              9.1088332      9.5744808      0.2            87.212349    
     50200   0.18332964     0.0011335979   0.0011335979   0              0             -107.91646      222.06616     -438.11719      0              89.280978      0              0              9.1078748      9.5698702      0.2            87.16118     
     50300   0.19505129     0.0010730107   0.0010730107   0              0             -90.980221      266.62923     -448.74912      0              453.37786      0              0              9.1069164      9.5712065      0.2            87.164177    
     50400   0.21729602     0.00091576599  0.00091576599  0              0             -483.83808     -604.37612     -363.46843      0              477.94242      0              0              9.1059579      9.5701215      0.2            87.145124    
     50481   0.15116646     0.0010197966   0.0010197966   0              0              663.32702      1031.9966      294.437        0              825.43051      0              0              9.1051816      9.5654552      0.2            87.095206    
Loop time of 1.1066 on 1 procs for 50000 steps with 60 atoms

Performance: 39038.373 ns/day, 0.001 hours/ns, 45183.302 timesteps/s
98.2% CPU use with 1 MPI tasks x 1 OpenMP threads

MPI task timing breakdown:
Section |  min time  |  avg time  |  max time  |%varavg| %total
---------------------------------------------------------------
Pair    | 0          | 0          | 0          |   0.0 |  0.00
Bond    | 0.1663     | 0.1663     | 0.1663     |   0.0 | 15.03
Neigh   | 0          | 0          | 0          |   0.0 |  0.00
Comm    | 0.36809    | 0.36809    | 0.36809    |   0.0 | 33.26
Output  | 0.0068179  | 0.0068179  | 0.0068179  |   0.0 |  0.62
Modify  | 0.53839    | 0.53839    | 0.53839    |   0.0 | 48.65
Other   |            | 0.02701    |            |       |  2.44

Nlocal:             60 ave          60 max          60 min
Histogram: 1 0 0 0 0 0 0 0 0 0
Nghost:            507 ave         507 max         507 min
Histogram: 1 0 0 0 0 0 0 0 0 0
Neighs:              0 ave           0 max           0 min
Histogram: 1 0 0 0 0 0 0 0 0 0

Total # of neighbors = 0
Ave neighs/atom = 0
Ave special neighs/atom = 21.766667
Neighbor list builds = 0
Dangerous builds = 0


Total wall time: 0:00:01
