LAMMPS data file.

     60 atoms
    135 bonds
      0 angles
      0 dihedrals
      0 impropers
      1 atom types
    135 bond types
      0 angle types
      0 dihedral types
      0 improper types
  -4.792202   4.792202 xlo xhi
  -4.792202   4.792202 ylo yhi
  -0.100000   0.100000 zlo zhi

Masses # ['atom_id', 'mass']

1 10000.0

Atoms # ['atomID', 'moleculeID', 'atomType', 'charge', 'x', 'y', 'z']

     28      1      1   0.000000  -4.298469  -3.884079   0.000000
     63      1      1   0.000000   0.692594  -4.013738   0.000000
     25      1      1   0.000000   0.838146   4.655084   0.000000
      7      1      1   0.000000   2.960075  -4.166493   0.000000
     31      1      1   0.000000   4.330475  -4.608004   0.000000
     10      1      1   0.000000  -3.218660  -3.189843   0.000000
     51      1      1   0.000000  -2.306838  -3.912440   0.000000
     60      1      1   0.000000  -1.385614  -3.915042   0.000000
     32      1      1   0.000000  -0.720482  -3.070782   0.000000
     12      1      1   0.000000   0.653272  -2.878395   0.000000
     38      1      1   0.000000   1.646995  -4.000135   0.000000
      3      1      1   0.000000   3.635748  -2.792667   0.000000
     69      1      1   0.000000   4.392598  -3.611267   0.000000
      6      1      1   0.000000  -1.987031  -2.787833   0.000000
      8      1      1   0.000000   2.181942  -2.810605   0.000000
     77      1      1   0.000000   2.967940  -1.999351   0.000000
      2      1      1   0.000000  -4.427058  -2.537180   0.000000
     18      1      1   0.000000  -4.127350  -1.069814   0.000000
     40      1      1   0.000000  -2.258876  -1.499659   0.000000
     39      1      1   0.000000  -0.944811  -1.862433   0.000000
     43      1      1   0.000000   0.572930  -0.144769   0.000000
     26      1      1   0.000000   1.181476  -1.027286   0.000000
     78      1      1   0.000000   1.307539  -0.077474   0.000000
      4      1      1   0.000000   2.438058  -1.069723   0.000000
      5      1      1   0.000000   4.052019  -1.426017   0.000000
     59      1      1   0.000000  -3.966760   0.186696   0.000000
     15      1      1   0.000000  -2.836690  -0.278594   0.000000
     20      1      1   0.000000  -1.411795  -0.505579   0.000000
     44      1      1   0.000000  -0.253386  -0.197396   0.000000
     65      1      1   0.000000   1.026606   0.442632   0.000000
     13      1      1   0.000000   2.226034   0.319589   0.000000
     61      1      1   0.000000   3.240372   0.691020   0.000000
     23      1      1   0.000000   3.581356  -0.160947   0.000000
     21      1      1   0.000000   4.629711  -0.162987   0.000000
      1      1      1   0.000000  -4.397659   1.181667   0.000000
     53      1      1   0.000000  -3.233956   0.935062   0.000000
     24      1      1   0.000000   0.233181   0.791814   0.000000
     72      1      1   0.000000   2.640898   1.327694   0.000000
     76      1      1   0.000000   3.352888   1.277039   0.000000
     66      1      1   0.000000   3.800288   1.760083   0.000000
     49      1      1   0.000000   4.026758   0.910699   0.000000
     73      1      1   0.000000   4.502461   1.963784   0.000000
     50      1      1   0.000000  -3.367165   1.790644   0.000000
     11      1      1   0.000000  -2.295710   2.427042   0.000000
      9      1      1   0.000000  -0.770032   1.945941   0.000000
     17      1      1   0.000000   0.689199   2.220166   0.000000
     36      1      1   0.000000   1.906431   1.751595   0.000000
     34      1      1   0.000000   2.994979   2.244836   0.000000
     54      1      1   0.000000   4.020418   2.553980   0.000000
     14      1      1   0.000000  -4.391480   2.576583   0.000000
     58      1      1   0.000000  -1.228588   3.028366   0.000000
     30      1      1   0.000000  -0.231693   3.016420   0.000000
     55      1      1   0.000000   1.838412   3.072822   0.000000
     27      1      1   0.000000   2.849485   3.261272   0.000000
     42      1      1   0.000000   3.785697   3.350885   0.000000
     22      1      1   0.000000  -0.139910   4.207757   0.000000
     29      1      1   0.000000   0.813222   3.529550   0.000000
     19      1      1   0.000000   2.033123   4.308217   0.000000
     52      1      1   0.000000   3.460920   4.318676   0.000000
     56      1      1   0.000000   4.402411   4.028371   0.000000

Bond Coeffs # ['bondID', 'bondCoeff', 'd']

      1   0.548870   1.349787
      2   1.187481   0.917670
      3   1.146163   0.934064
      4   1.146163   0.934064
      5   0.453607   1.484774
      6   0.663644   1.227531
      7   0.697949   1.196984
      8   0.788988   1.125809
      9   1.006094   0.996967
     10   0.530168   1.373387
     11   0.822852   1.102400
     12   0.663644   1.227531
     13   0.483603   1.437989
     14   0.623206   1.266730
     15   1.089284   0.958141
     16   1.178328   0.921228
     17   0.445834   1.497661
     18   0.695909   1.198737
     19   0.695909   1.198737
     20   0.730767   1.169797
     21   0.864532   1.075498
     22   0.475963   1.449484
     23   0.475963   1.449484
     24   0.727123   1.172724
     25   0.727123   1.172724
     26   0.658925   1.231918
     27   0.804552   1.114867
     28   0.658925   1.231918
     29   0.519693   1.387160
     30   0.945374   1.028485
     31   0.841236   1.090288
     32   0.793894   1.122325
     33   0.841236   1.090288
     34   1.448956   0.830754
     35   0.910507   1.047993
     36   0.613202   1.277021
     37   0.706704   1.189546
     38   0.910507   1.047993
     39   0.478317   1.445912
     40   0.478317   1.445912
     41   0.700171   1.195083
     42   1.007436   0.996302
     43   0.409178   1.563305
     44   1.191435   0.916146
     45   0.643907   1.246202
     46   0.578078   1.315245
     47   0.871768   1.071025
     48   0.700423   1.194867
     49   0.929957   1.036976
     50   0.426634   1.530991
     51   0.738789   1.163428
     52   0.696508   1.198221
     53   0.783745   1.129569
     54   0.473065   1.453917
     55   0.480342   1.442861
     56   1.500012   0.816493
     57   0.587816   1.304305
     58   0.436332   1.513879
     59   0.632591   1.257299
     60   0.576937   1.316545
     61   0.477446   1.447231
     62   0.599908   1.291093
     63   0.737925   1.164110
     64   0.482409   1.439768
     65   1.173348   0.923180
     66   0.570824   1.323576
     67   1.390559   0.848018
     68   1.722068   0.762035
     69   0.731520   1.169195
     70   0.857014   1.080205
     71   1.106276   0.950754
     72   1.173348   0.923180
     73   1.106276   0.950754
     74   0.513920   1.394930
     75   1.163499   0.927080
     76   1.163499   0.927080
     77   1.097615   0.954498
     78   1.131850   0.939952
     79   0.870198   1.071991
     80   1.330757   0.866863
     81   1.030204   0.985232
     82   1.815336   0.742201
     83   1.002663   0.998671
     84   0.639340   1.250645
     85   1.458646   0.827990
     86   0.925968   1.039207
     87   0.925968   1.039207
     88   2.306813   0.658406
     89   1.333753   0.865889
     90   1.837629   0.737685
     91   0.518410   1.388875
     92   1.473341   0.823850
     93   0.723632   1.175550
     94   0.774864   1.136024
     95   0.595762   1.295578
     96   0.506293   1.405397
     97   0.685323   1.207960
     98   0.485643   1.434966
     99   0.685323   1.207960
    100   0.850599   1.084270
    101   0.586255   1.306041
    102   1.034636   0.983119
    103   0.593752   1.297769
    104   0.645876   1.244301
    105   0.695948   1.198703
    106   0.546247   1.353023
    107   0.567363   1.327607
    108   0.948486   1.026797
    109   1.130552   0.940491
    110   0.606814   1.283726
    111   0.514777   1.393768
    112   0.669544   1.222110
    113   1.699796   0.767011
    114   2.808376   0.596722
    115   0.587838   1.304281
    116   0.547985   1.350876
    117   0.612632   1.277616
    118   2.861769   0.591130
    119   0.873375   1.070039
    120   0.998709   1.000646
    121   0.704725   1.191215
    122   0.704725   1.191215
    123   0.841477   1.090131
    124   0.427090   1.530172
    125   0.562618   1.333194
    126   0.562618   1.333194
    127   0.865669   1.074791
    128   0.909875   1.048357
    129   0.407095   1.567300
    130   0.666516   1.224883
    131   0.407095   1.567300
    132   0.662062   1.228996
    133   0.489953   1.428640
    134   0.674736   1.217400
    135   0.390755   1.599735

Bonds # ['ID', 'type', 'atom1', 'atom2']

         1         1         5        23
         2         2        61        23
         3         3        28        69
         4         4        69        28
         5         5         9        17
         6         6        18        21
         7         7         1        50
         8         8        25        29
         9         9        58        30
        10        10        10         2
        11        11        44        24
        12        12        21        18
        13        13        13        23
        14        14        18        59
        15        15        26        78
        16        16        51        60
        17        17         2        18
        18        18        28        31
        19        19        31        28
        20        20        22        29
        21        21        25        22
        22        22        18         5
        23        23         5        18
        24        24        54        14
        25        25        14        54
        26        26        25        38
        27        27         3        69
        28        28        38        25
        29        29        32        12
        30        30        55        27
        31        31        31        52
        32        32        55        29
        33        33        52        31
        34        34        54        42
        35        35        59        21
        36        36        15        53
        37        37         1        53
        38        38        21        59
        39        39         7        19
        40        40        19         7
        41        41        36        34
        42        42        43        24
        43        43         7         8
        44        44        42        56
        45        45        50        11
        46        46        17        29
        47        47        34        54
        48        48        30        22
        49        49         3        77
        50        50         7         3
        51        51        10        51
        52        52         9        30
        53        53         8        77
        54        54         3         8
        55        55        15        20
        56        56        61        49
        57        57        17        36
        58        58        18        15
        59        59        26         4
        60        60         6        40
        61        61        29        19
        62        62        50        14
        63        63        30        29
        64        64         7        31
        65        65        73        14
        66        66         7        38
        67        67        72        36
        68        68        73        54
        69        69        51         6
        70        70        13        61
        71        71        31        56
        72        72        14        73
        73        73        56        31
        74        74         1        14
        75        75        63        25
        76        76        25        63
        77        77        63        38
        78        78        66        34
        79        79        43        26
        80        80        65        24
        81        81        52        56
        82        82        43        65
        83        83        31        69
        84        84        55        19
        85        85        43        44
        86        86         1        73
        87        87        73         1
        88        88        76        66
        89        89        53        50
        90        90        43        78
        91        91         5        21
        92        92        66        54
        93        93         9        58
        94        94        63        12
        95        95        10         6
        96        96         4        13
        97        97         7        52
        98        98        39        20
        99        99        52         7
       100       100        59         1
       101       101        40        20
       102       102        72        34
       103       103        32         6
       104       104        25        19
       105       105        20        44
       106       106        28         2
       107       107        27        19
       108       108        34        27
       109       109        27        42
       110       110        28        10
       111       111         6        39
       112       112        59        15
       113       113        76        49
       114       114        61        76
       115       115        38         8
       116       116        40        15
       117       117        60         6
       118       118        78        65
       119       119        77         4
       120       120        78        13
       121       121         1        49
       122       122        49         1
       123       123        13        72
       124       124        12         8
       125       125        38        19
       126       126        19        38
       127       127        60        32
       128       128        23        21
       129       129         2         5
       130       130        11        58
       131       131         5         2
       132       132        32        39
       133       133         3         5
       134       134        17        30
       135       135        11         9
