LAMMPS data file via write_data, version 23 Jun 2022, timestep = 10000

80 atoms
4 atom types

-4.823263347069058 4.823263347069058 xlo xhi
-4.823263347069058 4.823263347069058 ylo yhi
-0.1 0.1 zlo zhi

Atoms # sphere

64 4 0.7 2.915451895043732 -3.9469036059289353 4.582058881888547 0 0 -1 0
37 2 1.3 0.4551661356395083 -4.567640533586349 -4.2749616891347815 0 1 0 0
52 3 1 1 -3.4784150255461945 -4.421500097544971 0 0 1 0
77 4 0.7 2.915451895043732 -2.582036565035674 -3.861511215793988 0 1 0 0
14 1 1.6 0.2441406249999999 -1.5303590437369508 -4.273882021025085 0 1 0 0
43 3 1 1 -0.38512977921488467 -4.548476294393996 0 0 0 0
39 2 1.3 0.4551661356395083 0.5262270425449822 -4.0876010030124466 0 0 1 0
9 1 1.6 0.2441406249999999 1.8637855888146477 -4.005551598646896 0 0 0 0
67 4 0.7 2.915451895043732 2.9953098528454074 -4.110484459617559 0 0 0 0
75 4 0.7 2.915451895043732 4.360197375765238 -4.767602299916854 0 0 1 0
44 3 1 1 3.9885137988151973 -4.068422664975658 0 0 1 0
79 4 0.7 2.915451895043732 -4.305100678528882 -3.3263635777582805 0 1 1 0
11 1 1.6 0.2441406249999999 -3.1804434948434275 -3.004472763799168 0 0 1 0
20 1 1.6 0.2441406249999999 -1.7802470448097982 -2.948826102835246 0 0 0 0
28 2 1.3 0.4551661356395083 -0.4192812748565906 -3.4254921819998714 0 0 0 0
55 3 1 1 0.5931811559969242 -2.9774958307091266 0 0 0 0
36 2 1.3 0.4551661356395083 1.6452652511828934 -2.741931338742171 0 0 0 0
19 1 1.6 0.2441406249999999 2.9679079704501987 -2.9252657179262314 0 0 1 0
31 2 1.3 0.4551661356395083 4.439399166216023 -3.1005187165198893 0 -1 1 0
59 3 1 1 -4.258349625836109 -2.5580213015181146 0 0 0 0
41 3 1 1 -3.8614567387015155 -1.8964875734883408 0 0 0 0
10 1 1.6 0.2441406249999999 -0.2537551532838087 -2.228359570535947 0 0 0 0
38 2 1.3 0.4551661356395083 0.8925857745566361 -1.8697865854750986 0 0 0 0
80 4 0.7 2.915451895043732 2.3348567186292737 -2.116992213018075 0 0 0 0
17 1 1.6 0.2441406249999999 3.30461317680387 -1.4537900531138113 0 0 0 0
24 2 1.3 0.4551661356395083 4.542816751137541 -1.8371729277569204 0 0 1 0
42 3 1 1 -4.447954133528819 -1.1429953138165163 0 1 1 0
58 3 1 1 -3.471946855652379 -0.8872957027829993 0 0 0 0
2 1 1.6 0.2441406249999999 -2.574091626936021 -1.588412623706597 0 0 0 0
65 4 0.7 2.915451895043732 -1.29166009660022 -1.80268931013783 0 0 0 0
16 1 1.6 0.2441406249999999 -0.5262163423409261 -0.8216740408783556 0 0 0 0
7 1 1.6 0.2441406249999999 0.9657474389228566 -0.4741220078040884 0 0 0 0
56 3 1 1 1.9138890882708575 -1.5607507568249641 0 0 0 0
50 3 1 1 2.217970218777853 -0.8038092257629197 0 0 0 0
18 1 1.6 0.2441406249999999 4.265496718107792 -0.4090329266814834 0 -1 0 0
33 2 1.3 0.4551661356395083 -4.069469687973988 0.098842226682887 0 0 0 0
8 1 1.6 0.2441406249999999 -2.662215535714406 0.002041226638242577 0 0 0 0
48 3 1 1 -1.6854661890357843 -0.678624818240757 0 0 0 0
1 1 1.6 0.2441406249999999 -1.2826650346491903 0.41010297473155166 0 0 0 0
62 4 0.7 2.915451895043732 2.0970587059552948 -0.04327956688408641 0 -1 0 0
54 3 1 1 3.03928744941771 -0.3023775278241505 0 0 0 0
70 4 0.7 2.915451895043732 3.8928662002992533 0.664591624723891 0 -1 0 0
72 4 0.7 2.915451895043732 -4.0349179284384595 1.680160815875774 0 1 -1 0
78 4 0.7 2.915451895043732 -3.530026184430773 0.9136632487444549 0 0 0 0
32 2 1.3 0.4551661356395083 -2.172270367197582 1.3142115812474966 0 0 0 0
4 1 1.6 0.2441406249999999 0.13059238882676905 0.7130811090763594 0 0 0 0
76 4 0.7 2.915451895043732 -0.22937457705487407 1.8385443291173855 0 0 -1 0
22 2 1.3 0.4551661356395083 1.5460102286728805 0.7444434592017748 0 0 0 0
27 2 1.3 0.4551661356395083 2.9667145609928793 0.82981195517148 0 -1 0 0
3 1 1.6 0.2441406249999999 4.797678117702271 1.1551329074727699 0 -1 0 0
5 1 1.6 0.2441406249999999 -4.5534962008654185 2.5643216682210586 0 0 -1 0
30 2 1.3 0.4551661356395083 -3.2581313805623884 1.9564735574006331 0 0 0 0
57 3 1 1 -2.4744527681251123 2.579098607357097 0 0 0 0
29 2 1.3 0.4551661356395083 -1.2084758160345253 1.9875015590803446 0 0 0 0
13 1 1.6 0.2441406249999999 0.8667125432610563 2.008734048399374 0 0 0 0
51 3 1 1 1.9211984021527293 2.258805738104762 0 0 0 0
66 4 0.7 2.915451895043732 2.101808379488239 1.5249307015241742 0 0 -1 0
40 2 1.3 0.4551661356395083 2.949553984946678 1.9812957456743376 0 0 1 0
60 3 1 1 3.9155980148714233 2.0100916846594696 0 0 0 0
53 3 1 1 -4.1311050860388505 3.674540777730276 0 0 -1 0
61 4 0.7 2.915451895043732 -3.68774943864715 2.9597316590775167 0 1 -1 0
71 4 0.7 2.915451895043732 -3.4341513826646914 3.459974313837612 0 1 0 0
63 4 0.7 2.915451895043732 -2.684322367593345 3.4330493063857146 0 0 0 0
35 2 1.3 0.4551661356395083 -1.6026566813541065 3.2363585837003734 0 0 0 0
15 1 1.6 0.2441406249999999 -0.2883307377008393 2.9904285928419405 0 0 0 0
21 2 1.3 0.4551661356395083 1.3231370991796059 3.27862455781126 0 0 -1 0
12 1 1.6 0.2441406249999999 2.6661629520729884 3.2041115805958045 0 0 1 0
73 4 0.7 2.915451895043732 3.6860897073272385 2.797963548731076 0 0 0 0
25 2 1.3 0.4551661356395083 4.274036499837043 3.5310089245283285 0 0 0 0
46 3 1 1 -4.802756978036511 4.321637989065246 0 1 0 0
23 2 1.3 0.4551661356395083 -3.0774506952916845 4.21473748823511 0 0 0 0
74 4 0.7 2.915451895043732 -2.6049692276833296 -4.554659899778241 0 0 1 0
45 3 1 1 -1.9693207415547849 4.247639867887773 0 0 0 0
34 2 1.3 0.4551661356395083 -0.8170712353678953 4.257605845192466 0 0 0 0
6 1 1.6 0.2441406249999999 0.586218981787777 4.3426475797982365 0 0 -1 0
69 4 0.7 2.915451895043732 3.0900593615712566 4.256735739860749 0 0 -1 0
26 2 1.3 0.4551661356395083 1.8646540423107236 4.362572064308975 0 0 0 0
68 4 0.7 2.915451895043732 3.478046371543143 3.824345890276539 0 -1 0 0
49 3 1 1 2.913006137301827 -4.725077732174079 0 0 1 0
47 3 1 1 3.788266961019162 4.593145946114032 0 -1 0 0

Velocities

64 0.026866209526581405 0.02544614171147914 0 0 0 0
37 -0.1365187562613527 0.169136950687913 0 0 0 0
52 0.07630492557376364 0.007161855938498513 0 0 0 0
77 -0.04734149322208326 0.07553844957213784 0 0 0 0
14 -0.198122112751161 0.02514870339264925 0 0 0 0
43 0.036926550746336044 -0.08948931249686165 0 0 0 0
39 0.14828753045132448 -0.017787400230530038 0 0 0 0
9 0.008275697666955269 -0.016549200544470385 0 0 0 0
67 -0.03214004302566323 -0.0005525832447840121 0 0 0 0
75 -0.10520780817511305 -0.018253709823788142 0 0 0 0
44 0.038176094936473656 -0.03241672101007953 0 0 0 0
79 -0.032729823302916516 -0.1274316849648412 0 0 0 0
11 -0.0369086671488056 -0.046223002235388395 0 0 0 0
20 -0.0027811263079831725 -0.013342823838543393 0 0 0 0
28 -0.04749136277800766 -0.07315708337674563 0 0 0 0
55 0.07224257990066105 -0.1283825189289778 0 0 0 0
36 0.07151644770536555 0.1895433787137143 0 0 0 0
19 -0.07566310007209463 0.01609569704387881 0 0 0 0
31 0.18424341924995413 -0.21572952056031214 0 0 0 0
59 -0.02150284306818341 0.14898972965087454 0 0 0 0
41 -0.09513125816746555 0.18696663629832388 0 0 0 0
10 0.02550542715368207 0.014658578500307506 0 0 0 0
38 -0.032736189105122784 -0.036543445123564125 0 0 0 0
80 -0.05992172875922067 -0.07452223874517476 0 0 0 0
17 0.21071861780861917 -0.02066293161982684 0 0 0 0
24 0.05552819929431323 -0.02072445832537937 0 0 0 0
42 0.09556332398879569 -0.04223348005947934 0 0 0 0
58 -0.06033498304455569 0.16656587521108504 0 0 0 0
2 -0.06357199643689632 0.10085063794312286 0 0 0 0
65 -0.14846919177608836 -0.03130842445472663 0 0 0 0
16 0.034386787638433836 0.16614633187722053 0 0 0 0
7 0.009187127931076015 0.05448337665741028 0 0 0 0
56 -0.2350818281332662 -0.1974439862205084 0 0 0 0
50 0.19805799114274486 0.15115774039984012 0 0 0 0
18 0.042963649000419483 0.09701179128870359 0 0 0 0
33 -0.0670649728622299 0.048773947275992734 0 0 0 0
8 -0.43729050958524646 -0.2506769211004455 0 0 0 0
48 -0.10113185026682163 0.055059291682795164 0 0 0 0
1 0.0266197147046544 0.016574286229732026 0 0 0 0
62 -0.13669024677626238 -0.06160837450485338 0 0 0 0
54 -0.07378443650458372 -0.0767443880407656 0 0 0 0
70 -0.2290137447803179 -0.08889076878625995 0 0 0 0
72 0.05989859098211325 0.11782112649614265 0 0 0 0
78 0.0008537571768908754 -0.10244605610614217 0 0 0 0
32 0.15113377612945197 0.005073178263999075 0 0 0 0
4 0.236131839719292 0.03543886196262561 0 0 0 0
76 0.06775563367558596 -0.10017089110191389 0 0 0 0
22 0.1237440556084365 -0.07016206204798718 0 0 0 0
27 0.07469012435988974 0.21836334059877716 0 0 0 0
3 -0.08773265433204444 0.02060234799470869 0 0 0 0
5 -0.05702561706359072 -0.2872960603067627 0 0 0 0
30 0.11382192158423579 0.1550348104927649 0 0 0 0
57 0.05264123142986068 -0.06457724890841421 0 0 0 0
29 -0.053172968115402015 -0.06917968139348532 0 0 0 0
13 0.2142193646954855 0.035547059021377 0 0 0 0
51 0.08670354600147887 -0.03271855621335497 0 0 0 0
66 0.06939182694168104 0.09021878078532575 0 0 0 0
40 0.0529382574081016 -0.010867680462879522 0 0 0 0
60 0.09133544906227288 0.045916002360166 0 0 0 0
53 0.029833244799627946 0.1978454413934177 0 0 0 0
61 -0.04325314528267577 0.07227077930257295 0 0 0 0
71 0.054800897423685734 0.03321003703093679 0 0 0 0
63 0.0284953875962538 0.009945130630813714 0 0 0 0
35 0.15812806474378147 -0.020454660506468332 0 0 0 0
15 0.13066776195837987 -0.11161964047786294 0 0 0 0
21 -0.06577144854728575 0.2443962927731818 0 0 0 0
12 0.022910798054292105 -0.0360075275829488 0 0 0 0
73 0.0302620298276916 0.035790013074654146 0 0 0 0
25 0.06657121469984752 -0.14987821855191516 0 0 0 0
46 -0.11416473791987944 -0.06251553495669657 0 0 0 0
23 0.00481124356752334 -0.010805563538799709 0 0 0 0
74 0.030874787542947743 -0.1024318011438481 0 0 0 0
45 0.01825129617113159 0.051635674239189765 0 0 0 0
34 -0.004328308469282539 -0.0984372644965936 0 0 0 0
6 -0.14854227192720518 -0.039229707454858376 0 0 0 0
69 -0.017822824428605864 0.006545287235728887 0 0 0 0
26 -0.07375027427806856 -0.0705133222196533 0 0 0 0
68 0.012745344637931115 -0.07274827523860353 0 0 0 0
49 -0.1561656552804156 0.16739534623276295 0 0 0 0
47 -0.04662176226212653 -0.06562417901932895 0 0 0 0
