LAMMPS data file.

     67 atoms
    158 bonds
      0 angles
      0 dihedrals
      0 impropers
      1 atom types
    158 bond types
      0 angle types
      0 dihedral types
      0 improper types
  -4.823263   4.823263 xlo xhi
  -4.823263   4.823263 ylo yhi
  -0.100000   0.100000 zlo zhi

Masses # ['atom_id', 'mass']

1 10000.0

Atoms # ['atomID', 'moleculeID', 'atomType', 'charge', 'x', 'y', 'z']

     37      1      1   0.000000  -4.567641  -4.274962   0.000000
     77      1      1   0.000000  -2.582037  -3.861511   0.000000
     14      1      1   0.000000  -1.530359  -4.273882   0.000000
     43      1      1   0.000000  -0.385130  -4.548476   0.000000
     39      1      1   0.000000   0.526227  -4.087601   0.000000
      9      1      1   0.000000   1.863786  -4.005552   0.000000
     75      1      1   0.000000   4.360197  -4.767602   0.000000
     44      1      1   0.000000   3.988514  -4.068423   0.000000
     79      1      1   0.000000  -4.305101  -3.326364   0.000000
     11      1      1   0.000000  -3.180443  -3.004473   0.000000
     20      1      1   0.000000  -1.780247  -2.948826   0.000000
     28      1      1   0.000000  -0.419281  -3.425492   0.000000
     55      1      1   0.000000   0.593181  -2.977496   0.000000
     36      1      1   0.000000   1.645265  -2.741931   0.000000
     19      1      1   0.000000   2.967908  -2.925266   0.000000
     31      1      1   0.000000   4.439399  -3.100519   0.000000
     59      1      1   0.000000  -4.258350  -2.558021   0.000000
     10      1      1   0.000000  -0.253755  -2.228360   0.000000
     38      1      1   0.000000   0.892586  -1.869787   0.000000
     80      1      1   0.000000   2.334857  -2.116992   0.000000
     17      1      1   0.000000   3.304613  -1.453790   0.000000
     24      1      1   0.000000   4.542817  -1.837173   0.000000
      2      1      1   0.000000  -2.574092  -1.588413   0.000000
     16      1      1   0.000000  -0.526216  -0.821674   0.000000
      7      1      1   0.000000   0.965747  -0.474122   0.000000
     56      1      1   0.000000   1.913889  -1.560751   0.000000
     50      1      1   0.000000   2.217970  -0.803809   0.000000
     18      1      1   0.000000   4.265497  -0.409033   0.000000
     33      1      1   0.000000  -4.069470   0.098842   0.000000
      8      1      1   0.000000  -2.662216   0.002041   0.000000
     48      1      1   0.000000  -1.685466  -0.678625   0.000000
      1      1      1   0.000000  -1.282665   0.410103   0.000000
     54      1      1   0.000000   3.039287  -0.302378   0.000000
     70      1      1   0.000000   3.892866   0.664592   0.000000
     72      1      1   0.000000  -4.034918   1.680161   0.000000
     32      1      1   0.000000  -2.172270   1.314212   0.000000
      4      1      1   0.000000   0.130592   0.713081   0.000000
     22      1      1   0.000000   1.546010   0.744443   0.000000
     27      1      1   0.000000   2.966715   0.829812   0.000000
      3      1      1   0.000000   4.797678   1.155133   0.000000
      5      1      1   0.000000  -4.553496   2.564322   0.000000
     30      1      1   0.000000  -3.258131   1.956474   0.000000
     13      1      1   0.000000   0.866713   2.008734   0.000000
     51      1      1   0.000000   1.921198   2.258806   0.000000
     66      1      1   0.000000   2.101808   1.524931   0.000000
     40      1      1   0.000000   2.949554   1.981296   0.000000
     60      1      1   0.000000   3.915598   2.010092   0.000000
     53      1      1   0.000000  -4.131105   3.674541   0.000000
     61      1      1   0.000000  -3.687749   2.959732   0.000000
     71      1      1   0.000000  -3.434151   3.459974   0.000000
     35      1      1   0.000000  -1.602657   3.236359   0.000000
     15      1      1   0.000000  -0.288331   2.990429   0.000000
     21      1      1   0.000000   1.323137   3.278625   0.000000
     12      1      1   0.000000   2.666163   3.204112   0.000000
     73      1      1   0.000000   3.686090   2.797964   0.000000
     25      1      1   0.000000   4.274036   3.531009   0.000000
     46      1      1   0.000000  -4.802757   4.321638   0.000000
     23      1      1   0.000000  -3.077451   4.214737   0.000000
     74      1      1   0.000000  -2.604969  -4.554660   0.000000
     45      1      1   0.000000  -1.969321   4.247640   0.000000
     34      1      1   0.000000  -0.817071   4.257606   0.000000
      6      1      1   0.000000   0.586219   4.342648   0.000000
     69      1      1   0.000000   3.090059   4.256736   0.000000
     26      1      1   0.000000   1.864654   4.362572   0.000000
     68      1      1   0.000000   3.478046   3.824346   0.000000
     49      1      1   0.000000   2.913006  -4.725078   0.000000
     47      1      1   0.000000   3.788267   4.593146   0.000000

Bond Coeffs # ['bondID', 'bondCoeff', 'd']

      1   0.734646   1.166705
      2   0.860310   1.078133
      3   0.783653   1.129635
      4   0.634683   1.255225
      5   1.880465   0.729235
      6   0.611877   1.278403
      7   1.156526   0.929870
      8   1.156526   0.929870
      9   0.864205   1.075701
     10   0.505529   1.406459
     11   0.505529   1.406459
     12   0.611877   1.278403
     13   0.721005   1.177689
     14   0.742073   1.160852
     15   2.113309   0.687889
     16   2.113309   0.687889
     17   0.511703   1.397948
     18   0.483168   1.438636
     19   0.617825   1.272235
     20   1.594894   0.791834
     21   0.851443   1.083733
     22   1.484966   0.820619
     23   0.693158   1.201113
     24   0.426122   1.531910
     25   1.413395   0.841140
     26   0.450331   1.490164
     27   1.078817   0.962778
     28   0.957996   1.021687
     29   1.079919   0.962287
     30   1.389570   0.848320
     31   0.478677   1.445369
     32   0.815806   1.107150
     33   0.750540   1.154285
     34   0.754029   1.151612
     35   0.403077   1.575092
     36   0.596390   1.294896
     37   0.660081   1.230839
     38   0.496324   1.419442
     39   1.154621   0.930637
     40   1.129874   0.940773
     41   0.602377   1.288445
     42   0.837182   1.092924
     43   0.837182   1.092924
     44   0.480899   1.442026
     45   1.119921   0.944945
     46   1.119921   0.944945
     47   0.684685   1.208522
     48   0.792230   1.123503
     49   2.963008   0.580943
     50   0.419093   1.544702
     51   0.559305   1.337137
     52   0.548966   1.349669
     53   0.549989   1.348413
     54   0.485466   1.435227
     55   1.103915   0.951770
     56   1.317162   0.871326
     57   1.317162   0.871326
     58   1.070583   0.966473
     59   1.149622   0.932658
     60   0.951779   1.025019
     61   1.502797   0.815736
     62   1.434920   0.834807
     63   0.878300   1.067035
     64   0.498905   1.415765
     65   0.394118   1.592893
     66   0.595192   1.296198
     67   0.580322   1.312700
     68   1.454989   0.829030
     69   0.580322   1.312700
     70   0.623726   1.266202
     71   0.549165   1.349424
     72   0.509257   1.401302
     73   0.474623   1.451529
     74   0.685719   1.207611
     75   0.685719   1.207611
     76   0.621577   1.268389
     77   0.596946   1.294293
     78   0.662682   1.228422
     79   0.881425   1.065142
     80   0.808527   1.112122
     81   0.438864   1.509507
     82   0.511972   1.397581
     83   0.556856   1.340073
     84   0.488413   1.430891
     85   1.132455   0.939700
     86   1.052975   0.974521
     87   1.052975   0.974521
     88   0.674340   1.217757
     89   0.674340   1.217757
     90   0.690333   1.203568
     91   0.810620   1.110686
     92   0.708717   1.187856
     93   0.552709   1.345091
     94   0.622962   1.266979
     95   0.622962   1.266979
     96   0.530418   1.373064
     97   1.144342   0.934807
     98   0.502580   1.410580
     99   1.144342   0.934807
    100   0.732964   1.168043
    101   2.079084   0.693528
    102   0.877089   1.067771
    103   0.608092   1.282376
    104   0.482382   1.439808
    105   0.482382   1.439808
    106   0.705544   1.190523
    107   1.032241   0.984259
    108   0.829733   1.097819
    109   0.944006   1.029230
    110   0.505956   1.405865
    111   1.089239   0.958161
    112   0.509726   1.400656
    113   1.471138   0.824467
    114   1.750723   0.755773
    115   0.811972   1.109761
    116   0.782163   1.130711
    117   0.570747   1.323666
    118   0.811972   1.109761
    119   0.570747   1.323666
    120   0.774280   1.136452
    121   1.664820   0.775026
    122   0.810204   1.110971
    123   0.810204   1.110971
    124   2.054999   0.697580
    125   0.435190   1.515866
    126   1.687663   0.769763
    127   0.628301   1.261584
    128   0.776575   1.134771
    129   2.446341   0.639354
    130   2.446341   0.639354
    131   0.478586   1.445507
    132   0.813647   1.108618
    133   0.863836   1.075931
    134   0.611698   1.278590
    135   0.863836   1.075931
    136   0.759496   1.147459
    137   0.618288   1.271758
    138   0.421427   1.540418
    139   0.560854   1.335288
    140   0.948713   1.026674
    141   0.487092   1.432829
    142   0.915243   1.045278
    143   0.660436   1.230509
    144   0.622379   1.267572
    145   0.776928   1.134513
    146   0.503919   1.408704
    147   1.836850   0.737842
    148   1.836850   0.737842
    149   0.958794   1.021263
    150   3.179097   0.560852
    151   0.716256   1.181587
    152   0.753487   1.152026
    153   1.007461   0.996290
    154   1.007461   0.996290
    155   0.681114   1.211686
    156   1.065942   0.968575
    157   1.065942   0.968575
    158   0.660436   1.230509

Bonds # ['ID', 'type', 'atom1', 'atom2']

         1         1        11        59
         2         2        55        36
         3         3        77        14
         4         4        40        12
         5         5        53        71
         6         6         9        26
         7         7        31        79
         8         8        79        31
         9         9        35        45
        10        10        18        33
        11        11        33        18
        12        12        26         9
        13        13        14        43
        14        14        48         1
        15        15        69        49
        16        16        49        69
        17        17        14        28
        18        18         8         1
        19        19         9        49
        20        20        75        44
        21        21        13        51
        22        22        60        73
        23        23        10        38
        24        24        16         7
        25        25        53        61
        26        26         4        13
        27        27        66        40
        28        28        12        68
        29        29        50        54
        30        30        25        68
        31        31         1         4
        32        32        28        55
        33        33        39        28
        34        34        27        40
        35        35        20         2
        36        36         7        50
        37        37        18        54
        38        38        17        18
        39        39        36        80
        40        40        70        27
        41        41        35        34
        42        42        31        59
        43        43        59        31
        44        44        20        28
        45        45        43        34
        46        46        34        43
        47        47        28        10
        48        48        43        28
        49        49        69        68
        50        50         9        19
        51        51        35        15
        52        52         7        22
        53        53        14        20
        54        54        22        13
        55        55         5        61
        56        56        37        75
        57        57        75        37
        58        58        40        60
        59        59        53        46
        60        60        72         5
        61        61        56        50
        62        62        71        23
        63        63        38        56
        64        64         4        22
        65        65         2         8
        66        66        17        24
        67        67        33         3
        68        68        68        47
        69        69         3        33
        70        70        17        50
        71        71        13        21
        72        72        11        20
        73        73         7         4
        74        74        14        45
        75        75        45        14
        76        76         1        32
        77        77        21         6
        78        78         3        60
        79        79        51        40
        80        80        39        55
        81        81        19        17
        82        82        38         7
        83        83        39         9
        84        84         5        30
        85        85        73        25
        86        86        25        46
        87        87        46        25
        88        88        39         6
        89        89         6        39
        90        90        51        12
        91        91        14        74
        92        92         5        53
        93        93        21        12
        94        94         5        25
        95        95        25         5
        96        96        15        34
        97        97        49        47
        98        98        33         8
        99        99        47        49
       100       100        16        48
       101       101        77        74
       102       102        44        31
       103       103         9        36
       104       104         3         5
       105       105         5         3
       106       106         8        48
       107       107        37        79
       108       108        12        73
       109       109        70         3
       110       110        34         6
       111       111        22        66
       112       112         8        32
       113       113        72        30
       114       114        51        66
       115       115        37        44
       116       116        55        10
       117       117        14        34
       118       118        44        37
       119       119        34        14
       120       120        18        70
       121       121        69        47
       122       122        59        24
       123       123        24        59
       124       124        80        56
       125       125        13        15
       126       126        79        59
       127       127        32        30
       128       128        12        69
       129       129        75        47
       130       130        47        75
       131       131        16         1
       132       132        23        45
       133       133        37        46
       134       134         6        26
       135       135        46        37
       136       136        55        38
       137       137         2        48
       138       138        11         2
       139       139        36        19
       140       140        19        80
       141       141        10        16
       142       142        77        11
       143       143        43         6
       144       144        31        24
       145       145        54        27
       146       146        12        26
       147       147        75        46
       148       148        46        75
       149       149        43        39
       150       150        61        71
       151       151        17        54
       152       152        36        38
       153       153        23        74
       154       154        74        23
       155       155        21        26
       156       156        72         3
       157       157         3        72
       158       158         6        43
