ITEM: TIMESTEP
0
ITEM: NUMBER OF ATOMS
80
ITEM: BOX BOUNDS pp pp pp
-1.0000000000000000e+01 1.0000000000000000e+01
-1.0000000000000000e+01 1.0000000000000000e+01
-1.0000000000000001e-01 1.0000000000000001e-01
ITEM: ATOMS id type xs ys zs
55 3 0.888978 0.0465267 0.5
72 4 0.937051 0.0221058 0.5
14 1 0.980784 0.0336025 0.5
20 1 0.260609 0.0530622 0.5
50 3 0.834656 0.060419 0.5
28 2 0.142093 0.153648 0.5
67 4 0.368247 0.123545 0.5
21 2 0.554122 0.12982 0.5
1 1 0.862983 0.151382 0.5
53 3 0.0548689 0.18091 0.5
16 1 0.874943 0.167662 0.5
37 2 0.924983 0.18312 0.5
69 4 0.400979 0.246624 0.5
4 1 0.940276 0.218962 0.5
59 3 0.104201 0.309889 0.5
64 4 0.350467 0.306865 0.5
73 4 0.886553 0.290231 0.5
31 2 0.0186429 0.330767 0.5
30 2 0.0571995 0.352091 0.5
6 1 0.413896 0.342124 0.5
2 1 0.551279 0.340295 0.5
66 4 0.571746 0.327914 0.5
48 3 0.740486 0.348055 0.5
76 4 0.757204 0.325699 0.5
10 1 0.243018 0.406735 0.5
18 1 0.44704 0.402575 0.5
68 4 0.0539325 0.444132 0.5
5 1 0.204642 0.423389 0.5
56 3 0.875911 0.430771 0.5
27 2 0.0807108 0.506391 0.5
7 1 0.25284 0.485431 0.5
80 4 0.284137 0.494785 0.5
41 3 0.52017 0.498852 0.5
54 3 0.735318 0.495587 0.5
3 1 0.0722657 0.568994 0.5
8 1 0.269803 0.574854 0.5
32 2 0.309489 0.57384 0.5
9 1 0.352625 0.56875 0.5
44 3 0.448716 0.563229 0.5
38 2 0.621202 0.534121 0.5
43 3 0.850036 0.551934 0.5
47 3 0.108563 0.617283 0.5
65 4 0.126113 0.585095 0.5
57 3 0.174191 0.620217 0.5
58 3 0.227679 0.597578 0.5
51 3 0.297768 0.584024 0.5
77 4 0.662259 0.581123 0.5
36 2 0.726341 0.610724 0.5
33 2 0.0488295 0.67697 0.5
70 4 0.332579 0.649009 0.5
45 3 0.580928 0.65083 0.5
25 2 0.533928 0.726897 0.5
17 1 0.626328 0.691232 0.5
22 2 0.647154 0.718897 0.5
39 2 0.632099 0.695737 0.5
61 4 0.827556 0.730483 0.5
29 2 0.245419 0.75073 0.5
34 2 0.621216 0.782608 0.5
19 1 0.645133 0.753746 0.5
62 4 0.0309873 0.803966 0.5
78 4 0.0425319 0.83316 0.5
35 2 0.101079 0.837425 0.5
74 4 0.0686554 0.891122 0.5
15 1 0.307958 0.849989 0.5
52 3 0.266311 0.894005 0.5
26 2 0.70452 0.870278 0.5
13 1 0.85297 0.858413 0.5
46 3 0.949834 0.862054 0.5
79 4 0.999456 0.857126 0.5
63 4 0.64306 0.915266 0.5
49 3 0.725585 0.900286 0.5
40 2 0.772175 0.94416 0.5
60 3 0.768186 0.901665 0.5
71 4 0.779432 0.906573 0.5
24 2 0.824594 0.943748 0.5
75 4 0.854877 0.911559 0.5
11 1 0.293923 0.960042 0.5
23 2 0.684057 0.948338 0.5
12 1 0.688224 0.979536 0.5
42 3 0.917652 0.971634 0.5
ITEM: TIMESTEP
10
ITEM: NUMBER OF ATOMS
80
ITEM: BOX BOUNDS pp pp pp
-9.2798422680430743e+00 9.2798422680430743e+00
-9.2798422680430743e+00 9.2798422680430743e+00
-1.0000000000000001e-01 1.0000000000000001e-01
ITEM: ATOMS id type xs ys zs
55 3 0.888978 0.0465267 0.5
72 4 0.937006 0.0220938 0.5
14 1 0.98083 0.0336146 0.5
20 1 0.260609 0.0530622 0.5
50 3 0.834656 0.060419 0.5
28 2 0.142093 0.153648 0.5
67 4 0.368247 0.123545 0.5
21 2 0.554122 0.12982 0.5
1 1 0.86284 0.151198 0.5
53 3 0.0548689 0.18091 0.5
16 1 0.875 0.167817 0.5
37 2 0.925019 0.183034 0.5
69 4 0.400979 0.246624 0.5
4 1 0.940325 0.219077 0.5
59 3 0.104201 0.309889 0.5
64 4 0.350467 0.306865 0.5
73 4 0.886553 0.290231 0.5
31 2 0.0185738 0.330729 0.5
30 2 0.0572686 0.35213 0.5
6 1 0.413874 0.342085 0.5
2 1 0.551172 0.34036 0.5
66 4 0.571852 0.327849 0.5
48 3 0.740453 0.348099 0.5
76 4 0.757237 0.325655 0.5
10 1 0.243148 0.406672 0.5
18 1 0.447061 0.402613 0.5
68 4 0.0539325 0.444132 0.5
5 1 0.204506 0.423438 0.5
56 3 0.875911 0.430771 0.5
27 2 0.0807158 0.506354 0.5
7 1 0.252758 0.485418 0.5
80 4 0.284226 0.494812 0.5
41 3 0.52017 0.498852 0.5
54 3 0.735318 0.495587 0.5
3 1 0.0722416 0.569013 0.5
8 1 0.269612 0.574785 0.5
32 2 0.309619 0.573748 0.5
9 1 0.352764 0.568729 0.5
44 3 0.448716 0.563229 0.5
38 2 0.621202 0.534121 0.5
43 3 0.850036 0.551934 0.5
47 3 0.108564 0.617319 0.5
65 4 0.126132 0.585077 0.5
57 3 0.174191 0.620217 0.5
58 3 0.227621 0.597609 0.5
51 3 0.297745 0.584176 0.5
77 4 0.662259 0.581123 0.5
36 2 0.726341 0.610724 0.5
33 2 0.0488295 0.67697 0.5
70 4 0.332579 0.649009 0.5
45 3 0.580914 0.650817 0.5
25 2 0.533928 0.726897 0.5
17 1 0.626052 0.69093 0.5
22 2 0.647322 0.718986 0.5
39 2 0.632202 0.695718 0.5
61 4 0.827556 0.730483 0.5
29 2 0.245419 0.75073 0.5
34 2 0.621133 0.782709 0.5
19 1 0.645236 0.753889 0.5
62 4 0.0309819 0.803952 0.5
78 4 0.0425373 0.833174 0.5
35 2 0.101079 0.837425 0.5
74 4 0.0686554 0.891122 0.5
15 1 0.307971 0.849975 0.5
52 3 0.266298 0.894019 0.5
26 2 0.704475 0.870214 0.5
13 1 0.852969 0.858394 0.5
46 3 0.949834 0.862054 0.5
79 4 0.999456 0.857126 0.5
63 4 0.64306 0.915266 0.5
49 3 0.7256 0.900349 0.5
40 2 0.772123 0.94426 0.5
60 3 0.768108 0.901565 0.5
71 4 0.779542 0.906573 0.5
24 2 0.824626 0.943764 0.5
75 4 0.854893 0.91156 0.5
11 1 0.293923 0.960042 0.5
23 2 0.684037 0.948188 0.5
12 1 0.688244 0.979686 0.5
42 3 0.917652 0.971634 0.5
ITEM: TIMESTEP
20
ITEM: NUMBER OF ATOMS
80
ITEM: BOX BOUNDS pp pp pp
-8.3718792057602744e+00 8.3718792057602744e+00
-8.3718792057602744e+00 8.3718792057602744e+00
-1.0000000000000001e-01 1.0000000000000001e-01
ITEM: ATOMS id type xs ys zs
55 3 0.88898 0.0465262 0.5
72 4 0.936825 0.0220464 0.5
14 1 0.98101 0.0336619 0.5
20 1 0.260609 0.0530622 0.5
50 3 0.834654 0.0604195 0.5
28 2 0.142093 0.153648 0.5
67 4 0.368247 0.123545 0.5
21 2 0.554122 0.12982 0.5
1 1 0.86231 0.150535 0.5
53 3 0.0548689 0.18091 0.5
16 1 0.875156 0.168341 0.5
37 2 0.925194 0.182738 0.5
69 4 0.400979 0.246624 0.5
4 1 0.940525 0.219512 0.5
59 3 0.104205 0.309886 0.5
64 4 0.350467 0.306865 0.5
73 4 0.886553 0.290231 0.5
31 2 0.0183147 0.330586 0.5
30 2 0.0575239 0.352276 0.5
6 1 0.413785 0.341922 0.5
2 1 0.550792 0.34059 0.5
66 4 0.572232 0.32762 0.5
48 3 0.740331 0.348262 0.5
76 4 0.757359 0.325492 0.5
10 1 0.243612 0.406407 0.5
18 1 0.447151 0.402777 0.5
68 4 0.0539325 0.444132 0.5
5 1 0.203991 0.423587 0.5
56 3 0.875911 0.430771 0.5
27 2 0.0807373 0.506195 0.5
7 1 0.252484 0.485435 0.5
80 4 0.28455 0.494908 0.5
41 3 0.52017 0.498852 0.5
54 3 0.735318 0.495587 0.5
3 1 0.0721099 0.569078 0.5
8 1 0.268917 0.57453 0.5
32 2 0.310075 0.573423 0.5
9 1 0.353321 0.568643 0.5
44 3 0.448716 0.563229 0.5
38 2 0.621202 0.534121 0.5
43 3 0.850036 0.551934 0.5
47 3 0.108576 0.617484 0.5
65 4 0.12623 0.585006 0.5
57 3 0.17419 0.620217 0.5
58 3 0.2274 0.597729 0.5
51 3 0.29765 0.584723 0.5
77 4 0.662259 0.581123 0.5
36 2 0.726341 0.610724 0.5
33 2 0.0488295 0.67697 0.5
70 4 0.332579 0.649009 0.5
45 3 0.58084 0.650752 0.5
25 2 0.533928 0.726897 0.5
17 1 0.625096 0.689863 0.5
22 2 0.647932 0.719286 0.5
39 2 0.632546 0.695616 0.5
61 4 0.827556 0.730483 0.5
29 2 0.245419 0.75073 0.5
34 2 0.620824 0.783085 0.5
19 1 0.64562 0.754447 0.5
62 4 0.0309574 0.80389 0.5
78 4 0.0425618 0.833236 0.5
35 2 0.101079 0.837425 0.5
74 4 0.0686554 0.891122 0.5
15 1 0.308037 0.849905 0.5
52 3 0.26623 0.894084 0.5
26 2 0.704309 0.869976 0.5
13 1 0.852966 0.858304 0.5
46 3 0.949834 0.862054 0.5
79 4 0.999456 0.857126 0.5
63 4 0.64305 0.915257 0.5
49 3 0.725644 0.900577 0.5
40 2 0.771917 0.94465 0.5
60 3 0.76785 0.901195 0.5
71 4 0.779937 0.90656 0.5
24 2 0.82475 0.943838 0.5
75 4 0.854968 0.911575 0.5
11 1 0.293925 0.960047 0.5
23 2 0.683973 0.947661 0.5
12 1 0.688316 0.980225 0.5
42 3 0.917652 0.971634 0.5
ITEM: TIMESTEP
30
ITEM: NUMBER OF ATOMS
80
ITEM: BOX BOUNDS pp pp pp
-7.7055721617478214e+00 7.7055721617478214e+00
-7.7055721617478214e+00 7.7055721617478214e+00
-1.0000000000000001e-01 1.0000000000000001e-01
ITEM: ATOMS id type xs ys zs
55 3 0.889008 0.0465191 0.5
72 4 0.936444 0.0219461 0.5
14 1 0.981391 0.0337623 0.5
20 1 0.260608 0.0530643 0.5
50 3 0.834626 0.0604267 0.5
28 2 0.142093 0.153648 0.5
67 4 0.368247 0.123545 0.5
21 2 0.554122 0.12982 0.5
1 1 0.861247 0.14924 0.5
53 3 0.0548689 0.18091 0.5
16 1 0.875345 0.169287 0.5
37 2 0.925622 0.182186 0.5
69 4 0.400979 0.246624 0.5
4 1 0.940971 0.220412 0.5
59 3 0.10424 0.309854 0.5
64 4 0.350467 0.306865 0.5
73 4 0.886553 0.290231 0.5
31 2 0.0177899 0.330296 0.5
30 2 0.0580136 0.352599 0.5
6 1 0.413584 0.341556 0.5
2 1 0.550058 0.341034 0.5
66 4 0.572966 0.327175 0.5
48 3 0.740084 0.348592 0.5
76 4 0.757606 0.325162 0.5
10 1 0.244515 0.405816 0.5
18 1 0.447352 0.403143 0.5
68 4 0.0539325 0.444132 0.5
5 1 0.202938 0.423823 0.5
56 3 0.875911 0.430771 0.5
27 2 0.0807866 0.505834 0.5
7 1 0.251987 0.485561 0.5
80 4 0.285191 0.495099 0.5
41 3 0.52017 0.498852 0.5
54 3 0.735318 0.495587 0.5
3 1 0.0717653 0.569201 0.5
8 1 0.267535 0.574048 0.5
32 2 0.310926 0.572799 0.5
9 1 0.354529 0.568459 0.5
44 3 0.448716 0.563229 0.5
38 2 0.621201 0.534121 0.5
43 3 0.850036 0.551934 0.5
47 3 0.108617 0.617873 0.5
65 4 0.126484 0.584856 0.5
57 3 0.174175 0.620224 0.5
58 3 0.226954 0.597977 0.5
51 3 0.297441 0.585798 0.5
77 4 0.662259 0.581124 0.5
36 2 0.726341 0.610724 0.5
33 2 0.0488295 0.67697 0.5
70 4 0.332579 0.649009 0.5
45 3 0.580643 0.650578 0.5
25 2 0.533928 0.726897 0.5
17 1 0.623308 0.687837 0.5
22 2 0.649139 0.719807 0.5
39 2 0.633178 0.69535 0.5
61 4 0.827556 0.730483 0.5
29 2 0.245419 0.75073 0.5
34 2 0.620191 0.783867 0.5
19 1 0.646399 0.755611 0.5
62 4 0.0309 0.803745 0.5
78 4 0.0426083 0.83338 0.5
35 2 0.10109 0.837426 0.5
74 4 0.0686552 0.891122 0.5
15 1 0.308202 0.849731 0.5
52 3 0.266046 0.894211 0.5
26 2 0.703974 0.869496 0.5
13 1 0.852958 0.858081 0.5
46 3 0.949825 0.862055 0.5
79 4 0.999465 0.857125 0.5
63 4 0.642993 0.915213 0.5
49 3 0.725703 0.900985 0.5
40 2 0.771497 0.945482 0.5
60 3 0.7674 0.900455 0.5
71 4 0.780688 0.906499 0.5
24 2 0.825015 0.944018 0.5
75 4 0.85514 0.911622 0.5
11 1 0.293945 0.960092 0.5
23 2 0.683857 0.946699 0.5
12 1 0.688455 0.98127 0.5
42 3 0.917652 0.971633 0.5
ITEM: TIMESTEP
40
ITEM: NUMBER OF ATOMS
80
ITEM: BOX BOUNDS pp pp pp
-7.2333672869117027e+00 7.2333672869117027e+00
-7.2333672869117027e+00 7.2333672869117027e+00
-1.0000000000000001e-01 1.0000000000000001e-01
ITEM: ATOMS id type xs ys zs
55 3 0.889089 0.0465014 0.5
72 4 0.935818 0.0217821 0.5
14 1 0.982033 0.0339311 0.5
20 1 0.260595 0.0531007 0.5
50 3 0.834532 0.0604508 0.5
28 2 0.142093 0.153648 0.5
67 4 0.368247 0.123545 0.5
21 2 0.554122 0.12982 0.5
1 1 0.859539 0.147189 0.5
53 3 0.0548689 0.18091 0.5
16 1 0.87548 0.170693 0.5
37 2 0.926415 0.181334 0.5
69 4 0.400979 0.246624 0.5
4 1 0.941751 0.221909 0.5
59 3 0.104343 0.30976 0.5
64 4 0.350449 0.306855 0.5
73 4 0.886553 0.290231 0.5
31 2 0.0169354 0.329822 0.5
30 2 0.0587655 0.353166 0.5
6 1 0.413251 0.340925 0.5
2 1 0.548906 0.341731 0.5
66 4 0.574118 0.326478 0.5
48 3 0.739685 0.349126 0.5
76 4 0.758005 0.324628 0.5
10 1 0.245939 0.404788 0.5
18 1 0.447703 0.403784 0.5
68 4 0.0539322 0.444131 0.5
5 1 0.201209 0.424124 0.5
56 3 0.875911 0.430771 0.5
27 2 0.0808752 0.505197 0.5
7 1 0.251239 0.485842 0.5
80 4 0.286218 0.495401 0.5
41 3 0.52017 0.498852 0.5
54 3 0.735318 0.495587 0.5
3 1 0.0711076 0.569389 0.5
8 1 0.265337 0.573327 0.5
32 2 0.312214 0.571815 0.5
9 1 0.356589 0.568149 0.5
44 3 0.448716 0.563229 0.5
38 2 0.621189 0.534107 0.5
43 3 0.850036 0.551934 0.5
47 3 0.108704 0.618573 0.5
65 4 0.126963 0.584604 0.5
57 3 0.17411 0.620253 0.5
58 3 0.226252 0.598382 0.5
51 3 0.297088 0.587524 0.5
77 4 0.662271 0.581138 0.5
36 2 0.726341 0.610724 0.5
33 2 0.0488295 0.67697 0.5
70 4 0.332579 0.649009 0.5
45 3 0.580231 0.650216 0.5
25 2 0.533927 0.726897 0.5
17 1 0.620591 0.684732 0.5
22 2 0.65108 0.720534 0.5
39 2 0.634146 0.694861 0.5
61 4 0.827556 0.730483 0.5
29 2 0.245419 0.75073 0.5
34 2 0.619138 0.785165 0.5
19 1 0.647674 0.757542 0.5
62 4 0.0307971 0.803485 0.5
78 4 0.0426537 0.833637 0.5
35 2 0.101156 0.837415 0.5
74 4 0.0686466 0.891136 0.5
15 1 0.308509 0.849407 0.5
52 3 0.265679 0.894396 0.5
26 2 0.703417 0.868676 0.5
13 1 0.852951 0.857643 0.5
46 3 0.949777 0.86206 0.5
79 4 0.999514 0.85712 0.5
63 4 0.642851 0.915102 0.5
49 3 0.725757 0.901557 0.5
40 2 0.770843 0.946888 0.5
60 3 0.766769 0.899258 0.5
71 4 0.781838 0.906342 0.5
24 2 0.825488 0.944398 0.5
75 4 0.855449 0.91172 0.5
11 1 0.294017 0.960195 0.5
23 2 0.683671 0.945312 0.5
12 1 0.688648 0.982924 0.5
42 3 0.917647 0.971622 0.5
ITEM: TIMESTEP
50
ITEM: NUMBER OF ATOMS
80
ITEM: BOX BOUNDS pp pp pp
-6.9251230812217797e+00 6.9251230812217797e+00
-6.9251230812217797e+00 6.9251230812217797e+00
-1.0000000000000001e-01 1.0000000000000001e-01
ITEM: ATOMS id type xs ys zs
55 3 0.889232 0.0464787 0.5
72 4 0.934953 0.0215583 0.5
14 1 0.982971 0.0341801 0.5
20 1 0.260552 0.0532202 0.5
50 3 0.834336 0.0604931 0.5
28 2 0.142093 0.153648 0.5
67 4 0.368247 0.123545 0.5
21 2 0.554122 0.12982 0.5
1 1 0.85715 0.144345 0.5
53 3 0.0548689 0.18091 0.5
16 1 0.875472 0.172558 0.5
37 2 0.92765 0.180156 0.5
69 4 0.400979 0.246624 0.5
4 1 0.942914 0.224073 0.5
59 3 0.104542 0.309573 0.5
64 4 0.350379 0.306817 0.5
73 4 0.886553 0.290231 0.5
31 2 0.0157224 0.32915 0.5
30 2 0.0597789 0.354025 0.5
6 1 0.412796 0.340006 0.5
2 1 0.547317 0.342692 0.5
66 4 0.575707 0.325517 0.5
48 3 0.739119 0.349882 0.5
76 4 0.75857 0.323872 0.5
10 1 0.247918 0.403259 0.5
18 1 0.448227 0.40474 0.5
68 4 0.053925 0.444115 0.5
5 1 0.198738 0.424462 0.5
56 3 0.875911 0.430771 0.5
27 2 0.0810188 0.504256 0.5
7 1 0.250238 0.486299 0.5
80 4 0.287658 0.495817 0.5
41 3 0.52017 0.498852 0.5
54 3 0.735318 0.495587 0.5
3 1 0.0700676 0.569649 0.5
8 1 0.2623 0.572372 0.5
32 2 0.313917 0.570443 0.5
9 1 0.359598 0.567704 0.5
44 3 0.448718 0.563229 0.5
38 2 0.621144 0.534055 0.5
43 3 0.850036 0.551934 0.5
47 3 0.108827 0.619637 0.5
65 4 0.127712 0.584235 0.5
57 3 0.173983 0.620322 0.5
58 3 0.225292 0.598966 0.5
51 3 0.296583 0.589963 0.5
77 4 0.662316 0.581189 0.5
36 2 0.726341 0.610725 0.5
33 2 0.0488295 0.67697 0.5
70 4 0.332579 0.649009 0.5
45 3 0.579519 0.649599 0.5
25 2 0.533901 0.72691 0.5
17 1 0.616987 0.680569 0.5
22 2 0.653817 0.721423 0.5
39 2 0.635466 0.694111 0.5
61 4 0.827556 0.730483 0.5
29 2 0.245419 0.75073 0.5
34 2 0.617597 0.787023 0.5
19 1 0.649499 0.760311 0.5
62 4 0.0306408 0.803088 0.5
78 4 0.0426724 0.834023 0.5
35 2 0.101328 0.837371 0.5
74 4 0.0686139 0.89119 0.5
15 1 0.308988 0.8489 0.5
52 3 0.265083 0.894625 0.5
26 2 0.702597 0.867426 0.5
13 1 0.852954 0.856913 0.5
46 3 0.949661 0.862072 0.5
79 4 0.999628 0.857109 0.5
63 4 0.642586 0.9149 0.5
49 3 0.725776 0.90226 0.5
40 2 0.769997 0.948925 0.5
60 3 0.766004 0.897566 0.5
71 4 0.783398 0.906059 0.5
24 2 0.826215 0.945077 0.5
75 4 0.85592 0.911879 0.5
11 1 0.294177 0.960353 0.5
23 2 0.68338 0.943574 0.5
12 1 0.688851 0.98524 0.5
42 3 0.917626 0.97157 0.5
ITEM: TIMESTEP
60
ITEM: NUMBER OF ATOMS
80
ITEM: BOX BOUNDS pp pp pp
-6.7264407158240491e+00 6.7264407158240491e+00
-6.7264407158240491e+00 6.7264407158240491e+00
-1.0000000000000001e-01 1.0000000000000001e-01
ITEM: ATOMS id type xs ys zs
55 3 0.889434 0.0464587 0.5
72 4 0.93387 0.0212824 0.5
14 1 0.984224 0.0345235 0.5
20 1 0.260466 0.0534595 0.5
50 3 0.834008 0.0605185 0.5
28 2 0.142093 0.153648 0.5
67 4 0.368247 0.123545 0.5
21 2 0.554122 0.12982 0.5
1 1 0.854117 0.140766 0.5
53 3 0.0548689 0.18091 0.5
16 1 0.875243 0.174867 0.5
37 2 0.929369 0.178634 0.5
69 4 0.400979 0.246624 0.5
4 1 0.944472 0.22692 0.5
59 3 0.104857 0.309273 0.5
64 4 0.350228 0.306736 0.5
73 4 0.886553 0.290231 0.5
31 2 0.0141515 0.328276 0.5
30 2 0.0610353 0.355199 0.5
6 1 0.412243 0.338801 0.5
2 1 0.54531 0.343906 0.5
66 4 0.577717 0.324301 0.5
48 3 0.738389 0.350859 0.5
76 4 0.759301 0.322895 0.5
10 1 0.250442 0.401212 0.5
18 1 0.44893 0.406029 0.5
68 4 0.0538992 0.444057 0.5
5 1 0.19552 0.424809 0.5
56 3 0.875911 0.430771 0.5
27 2 0.0812361 0.503015 0.5
7 1 0.248993 0.486931 0.5
80 4 0.289518 0.496327 0.5
41 3 0.52017 0.498852 0.5
54 3 0.735318 0.495587 0.5
3 1 0.0686105 0.569985 0.5
8 1 0.258484 0.571202 0.5
32 2 0.315975 0.568678 0.5
9 1 0.363523 0.567132 0.5
44 3 0.448753 0.563227 0.5
38 2 0.621051 0.533949 0.5
43 3 0.850036 0.551934 0.5
47 3 0.108975 0.621081 0.5
65 4 0.128734 0.583736 0.5
57 3 0.173801 0.620453 0.5
58 3 0.224087 0.59975 0.5
51 3 0.295944 0.593129 0.5
77 4 0.662397 0.58129 0.5
36 2 0.726353 0.61073 0.5
33 2 0.0488264 0.676973 0.5
70 4 0.332579 0.649009 0.5
45 3 0.578444 0.648682 0.5
25 2 0.533815 0.726957 0.5
17 1 0.612636 0.675468 0.5
22 2 0.657352 0.722421 0.5
39 2 0.637121 0.693083 0.5
61 4 0.827556 0.730483 0.5
29 2 0.245419 0.75073 0.5
34 2 0.615533 0.789424 0.5
19 1 0.651885 0.763912 0.5
62 4 0.0304282 0.802548 0.5
78 4 0.0426528 0.834542 0.5
35 2 0.10164 0.837273 0.5
74 4 0.0685452 0.891304 0.5
15 1 0.309655 0.848179 0.5
52 3 0.264231 0.894885 0.5
26 2 0.701499 0.865696 0.5
13 1 0.852972 0.855845 0.5
46 3 0.949458 0.862092 0.5
79 4 0.99982 0.857095 0.5
63 4 0.642173 0.914593 0.5
49 3 0.725749 0.903051 0.5
40 2 0.769025 0.951594 0.5
60 3 0.765166 0.895379 0.5
71 4 0.785351 0.905635 0.5
24 2 0.827215 0.946115 0.5
75 4 0.856569 0.912102 0.5
11 1 0.29445 0.960574 0.5
23 2 0.682942 0.941574 0.5
12 1 0.689018 0.988236 0.5
42 3 0.917568 0.971443 0.5
ITEM: TIMESTEP
70
ITEM: NUMBER OF ATOMS
80
ITEM: BOX BOUNDS pp pp pp
-6.6170490502844821e+00 6.6170490502844821e+00
-6.6170490502844821e+00 6.6170490502844821e+00
-1.0000000000000001e-01 1.0000000000000001e-01
ITEM: ATOMS id type xs ys zs
55 3 0.88968 0.0464509 0.5
72 4 0.932608 0.0209637 0.5
14 1 0.985793 0.0349643 0.5
20 1 0.260327 0.0538409 0.5
50 3 0.833524 0.0604804 0.5
28 2 0.142093 0.153648 0.5
67 4 0.368247 0.123545 0.5
21 2 0.554122 0.12982 0.5
1 1 0.850529 0.136571 0.5
53 3 0.0548689 0.18091 0.5
16 1 0.874742 0.17759 0.5
37 2 0.931567 0.17676 0.5
69 4 0.400979 0.246624 0.5
4 1 0.946404 0.230416 0.5
59 3 0.105292 0.308848 0.5
64 4 0.349972 0.3066 0.5
73 4 0.886551 0.290233 0.5
31 2 0.0122492 0.327213 0.5
30 2 0.0625026 0.356687 0.5
6 1 0.411618 0.337329 0.5
2 1 0.542948 0.345334 0.5
66 4 0.580106 0.322856 0.5
48 3 0.737506 0.352039 0.5
76 4 0.760184 0.321715 0.5
10 1 0.253467 0.398675 0.5
18 1 0.449783 0.407654 0.5
68 4 0.0538449 0.443938 0.5
5 1 0.191603 0.42514 0.5
56 3 0.875911 0.430771 0.5
27 2 0.0815424 0.501503 0.5
7 1 0.247519 0.487702 0.5
80 4 0.291775 0.496902 0.5
41 3 0.52017 0.498852 0.5
54 3 0.735318 0.495587 0.5
3 1 0.0667359 0.570399 0.5
8 1 0.254018 0.569841 0.5
32 2 0.318307 0.566549 0.5
9 1 0.368226 0.566459 0.5
44 3 0.448869 0.563222 0.5
38 2 0.620902 0.533778 0.5
43 3 0.850036 0.551934 0.5
47 3 0.109149 0.622879 0.5
65 4 0.130008 0.583099 0.5
57 3 0.173574 0.620666 0.5
58 3 0.222662 0.600751 0.5
51 3 0.295215 0.59698 0.5
77 4 0.66251 0.581444 0.5
36 2 0.726389 0.610747 0.5
33 2 0.0488061 0.676993 0.5
70 4 0.332579 0.649009 0.5
45 3 0.576959 0.647443 0.5
25 2 0.533647 0.727058 0.5
17 1 0.607744 0.669631 0.5
22 2 0.661626 0.723473 0.5
39 2 0.639067 0.691781 0.5
61 4 0.827556 0.730483 0.5
29 2 0.245419 0.75073 0.5
34 2 0.612946 0.792295 0.5
19 1 0.654797 0.768266 0.5
62 4 0.0301614 0.801867 0.5
78 4 0.0425924 0.835185 0.5
35 2 0.102113 0.83711 0.5
74 4 0.0684335 0.891487 0.5
15 1 0.310511 0.84723 0.5
52 3 0.263114 0.895161 0.5
26 2 0.700129 0.863476 0.5
13 1 0.853014 0.854425 0.5
46 3 0.949161 0.862122 0.5
79 4 1.00008 0.857083 0.5
63 4 0.641592 0.914173 0.5
49 3 0.725679 0.903903 0.5
40 2 0.767984 0.954841 0.5
60 3 0.764321 0.892736 0.5
71 4 0.787642 0.905081 0.5
24 2 0.828475 0.947525 0.5
75 4 0.857395 0.912382 0.5
11 1 0.294849 0.960866 0.5
23 2 0.682334 0.939405 0.5
12 1 0.689111 0.991873 0.5
42 3 0.917459 0.971215 0.5
ITEM: TIMESTEP
80
ITEM: NUMBER OF ATOMS
80
ITEM: BOX BOUNDS pp pp pp
-6.5852475012366618e+00 6.5852475012366618e+00
-6.5852475012366618e+00 6.5852475012366618e+00
-1.0000000000000001e-01 1.0000000000000001e-01
ITEM: ATOMS id type xs ys zs
55 3 0.889958 0.0464617 0.5
72 4 0.931216 0.0206122 0.5
14 1 0.987641 0.0354915 0.5
20 1 0.260134 0.0543705 0.5
50 3 0.832882 0.0603346 0.5
28 2 0.142093 0.153648 0.5
67 4 0.368247 0.123545 0.5
21 2 0.554122 0.12982 0.5
1 1 0.846518 0.131932 0.5
53 3 0.0548689 0.18091 0.5
16 1 0.873947 0.180683 0.5
37 2 0.934194 0.174539 0.5
69 4 0.400979 0.246624 0.5
4 1 0.948664 0.234464 0.5
59 3 0.10584 0.308297 0.5
64 4 0.349599 0.306407 0.5
73 4 0.886539 0.290245 0.5
31 2 0.0100682 0.325987 0.5
30 2 0.0641351 0.358463 0.5
6 1 0.410957 0.335633 0.5
2 1 0.540329 0.346914 0.5
66 4 0.582803 0.321225 0.5
48 3 0.736496 0.35339 0.5
76 4 0.761194 0.320363 0.5
10 1 0.256912 0.39572 0.5
18 1 0.450739 0.409595 0.5
68 4 0.0537545 0.443745 0.5
5 1 0.187092 0.425434 0.5
56 3 0.875911 0.430771 0.5
27 2 0.0819468 0.499768 0.5
7 1 0.245851 0.488556 0.5
80 4 0.294373 0.497512 0.5
41 3 0.52017 0.498852 0.5
54 3 0.735318 0.495587 0.5
3 1 0.0644817 0.57088 0.5
8 1 0.249107 0.568301 0.5
32 2 0.320812 0.564117 0.5
9 1 0.373488 0.565724 0.5
44 3 0.449108 0.563211 0.5
38 2 0.620694 0.53354 0.5
43 3 0.850036 0.551934 0.5
47 3 0.109352 0.624975 0.5
65 4 0.131486 0.582331 0.5
57 3 0.173291 0.620981 0.5
58 3 0.221064 0.601979 0.5
51 3 0.294445 0.601413 0.5
77 4 0.662649 0.58165 0.5
36 2 0.726459 0.610779 0.5
33 2 0.048754 0.677049 0.5
70 4 0.332581 0.649013 0.5
45 3 0.575045 0.645893 0.5
25 2 0.533389 0.727227 0.5
17 1 0.602574 0.663326 0.5
22 2 0.666513 0.724527 0.5
39 2 0.641234 0.690231 0.5
61 4 0.827556 0.730483 0.5
29 2 0.245419 0.75073 0.5
34 2 0.609882 0.795517 0.5
19 1 0.658135 0.773197 0.5
62 4 0.0298471 0.801058 0.5
78 4 0.0424934 0.835934 0.5
35 2 0.102748 0.836879 0.5
74 4 0.0682774 0.891742 0.5
15 1 0.311541 0.846068 0.5
52 3 0.261748 0.895437 0.5
26 2 0.698528 0.860825 0.5
13 1 0.853085 0.852666 0.5
46 3 0.94878 0.862162 0.5
79 4 0.0004143 0.857079 0.5
63 4 0.640837 0.913644 0.5
49 3 0.725584 0.904807 0.5
40 2 0.766925 0.958556 0.5
60 3 0.763531 0.889716 0.5
71 4 0.790183 0.904431 0.5
24 2 0.829955 0.949276 0.5
75 4 0.858385 0.912706 0.5
11 1 0.295378 0.961223 0.5
23 2 0.681552 0.937158 0.5
12 1 0.68911 0.996061 0.5
42 3 0.9173 0.97088 0.5
ITEM: TIMESTEP
90
ITEM: NUMBER OF ATOMS
80
ITEM: BOX BOUNDS pp pp pp
-6.6150906629305517e+00 6.6150906629305517e+00
-6.6150906629305517e+00 6.6150906629305517e+00
-1.0000000000000001e-01 1.0000000000000001e-01
ITEM: ATOMS id type xs ys zs
55 3 0.890263 0.0464862 0.5
72 4 0.929747 0.0202375 0.5
14 1 0.989699 0.0360831 0.5
20 1 0.259888 0.0550398 0.5
50 3 0.832093 0.0600431 0.5
28 2 0.142093 0.153648 0.5
67 4 0.368247 0.123545 0.5
21 2 0.554122 0.12982 0.5
1 1 0.842234 0.127056 0.5
53 3 0.0548689 0.18091 0.5
16 1 0.872872 0.184083 0.5
37 2 0.937156 0.172001 0.5
69 4 0.400979 0.246624 0.5
4 1 0.95118 0.238928 0.5
59 3 0.106485 0.307631 0.5
64 4 0.349108 0.306156 0.5
73 4 0.886507 0.290275 0.5
31 2 0.00768302 0.324643 0.5
30 2 0.0658797 0.36048 0.5
6 1 0.410295 0.333769 0.5
2 1 0.537557 0.348579 0.5
66 4 0.58572 0.31946 0.5
48 3 0.73539 0.354869 0.5
76 4 0.7623 0.318885 0.5
10 1 0.260666 0.392455 0.5
18 1 0.451748 0.411809 0.5
68 4 0.0536235 0.44347 0.5
5 1 0.182131 0.425673 0.5
56 3 0.875911 0.430771 0.5
27 2 0.0824517 0.497868 0.5
7 1 0.244041 0.489426 0.5
80 4 0.297228 0.498123 0.5
41 3 0.52017 0.498852 0.5
54 3 0.735318 0.495587 0.5
3 1 0.0619167 0.571416 0.5
8 1 0.243971 0.566596 0.5
32 2 0.323377 0.56147 0.5
9 1 0.379062 0.564973 0.5
44 3 0.449504 0.563196 0.5
38 2 0.620431 0.533239 0.5
43 3 0.850036 0.551934 0.5
47 3 0.109585 0.627292 0.5
65 4 0.133108 0.581451 0.5
57 3 0.172936 0.621412 0.5
58 3 0.219366 0.603433 0.5
51 3 0.293673 0.606263 0.5
77 4 0.662805 0.581902 0.5
36 2 0.726564 0.610827 0.5
33 2 0.0486611 0.677156 0.5
70 4 0.332599 0.649035 0.5
45 3 0.572706 0.644074 0.5
25 2 0.533052 0.72747 0.5
17 1 0.597401 0.656831 0.5
22 2 0.671837 0.725541 0.5
39 2 0.643535 0.688477 0.5
61 4 0.827556 0.730483 0.5
29 2 0.245419 0.75073 0.5
34 2 0.606434 0.798944 0.5
19 1 0.661756 0.778469 0.5
62 4 0.0294955 0.800147 0.5
78 4 0.0423618 0.836766 0.5
35 2 0.10353 0.836587 0.5
74 4 0.0680809 0.892062 0.5
15 1 0.312714 0.844733 0.5
52 3 0.260167 0.8957 0.5
26 2 0.696767 0.857871 0.5
13 1 0.853182 0.850621 0.5
46 3 0.94833 0.862212 0.5
79 4 0.000792635 0.857084 0.5
63 4 0.63991 0.913016 0.5
49 3 0.725492 0.905765 0.5
40 2 0.765888 0.96259 0.5
60 3 0.762842 0.886419 0.5
71 4 0.792873 0.903731 0.5
24 2 0.831604 0.951305 0.5
75 4 0.859516 0.913054 0.5
11 1 0.296033 0.961625 0.5
23 2 0.680617 0.934917 0.5
12 1 0.689005 1.00067 0.5
42 3 0.917101 0.970446 0.5
ITEM: TIMESTEP
100
ITEM: NUMBER OF ATOMS
80
ITEM: BOX BOUNDS pp pp pp
-6.6821544360536382e+00 6.6821544360536382e+00
-6.6821544360536382e+00 6.6821544360536382e+00
-1.0000000000000001e-01 1.0000000000000001e-01
ITEM: ATOMS id type xs ys zs
55 3 0.890589 0.0465237 0.5
72 4 0.928255 0.0198467 0.5
14 1 0.991892 0.0367121 0.5
20 1 0.259595 0.0558302 0.5
50 3 0.831181 0.0595757 0.5
28 2 0.142093 0.153648 0.5
67 4 0.368247 0.123545 0.5
21 2 0.554122 0.12982 0.5
1 1 0.837822 0.122134 0.5
53 3 0.0548689 0.18091 0.5
16 1 0.87156 0.187722 0.5
37 2 0.940339 0.169188 0.5
69 4 0.400979 0.246623 0.5
4 1 0.953852 0.243638 0.5
59 3 0.107204 0.306865 0.5
64 4 0.348501 0.305855 0.5
73 4 0.886453 0.290322 0.5
31 2 0.00518747 0.323253 0.5
30 2 0.0676866 0.362682 0.5
6 1 0.409661 0.331793 0.5
2 1 0.534729 0.350269 0.5
66 4 0.58877 0.317615 0.5
48 3 0.734223 0.35643 0.5
76 4 0.763467 0.317324 0.5
10 1 0.26461 0.388994 0.5
18 1 0.452767 0.414241 0.5
68 4 0.05345 0.443116 0.5
5 1 0.176872 0.425846 0.5
56 3 0.875911 0.430771 0.5
27 2 0.0830541 0.495865 0.5
7 1 0.242152 0.490246 0.5
80 4 0.300244 0.498714 0.5
41 3 0.52017 0.498852 0.5
54 3 0.735318 0.495587 0.5
3 1 0.059123 0.571998 0.5
8 1 0.238773 0.564745 0.5
32 2 0.325897 0.558696 0.5
9 1 0.38475 0.56425 0.5
44 3 0.450083 0.563176 0.5
38 2 0.620124 0.532887 0.5
43 3 0.850036 0.551934 0.5
47 3 0.109845 0.62975 0.5
65 4 0.134808 0.580484 0.5
57 3 0.172495 0.621965 0.5
58 3 0.217646 0.605106 0.5
51 3 0.292928 0.611351 0.5
77 4 0.662975 0.582192 0.5
36 2 0.726703 0.61089 0.5
33 2 0.0485241 0.677316 0.5
70 4 0.332646 0.649089 0.5
45 3 0.569958 0.642052 0.5
25 2 0.532657 0.727778 0.5
17 1 0.592456 0.650339 0.5
22 2 0.677409 0.726479 0.5
39 2 0.645884 0.686572 0.5
61 4 0.827556 0.730483 0.5
29 2 0.245419 0.75073 0.5
34 2 0.60271 0.802446 0.5
19 1 0.665534 0.783886 0.5
62 4 0.0291176 0.79916 0.5
78 4 0.0422066 0.837655 0.5
35 2 0.104434 0.836242 0.5
74 4 0.067852 0.892432 0.5
15 1 0.313993 0.843283 0.5
52 3 0.258412 0.895938 0.5
26 2 0.694922 0.854753 0.5
13 1 0.853294 0.848366 0.5
46 3 0.947824 0.862272 0.5
79 4 0.00120252 0.857101 0.5
63 4 0.638822 0.912304 0.5
49 3 0.725431 0.906775 0.5
40 2 0.764896 0.966779 0.5
60 3 0.762275 0.882939 0.5
71 4 0.795632 0.90303 0.5
24 2 0.833377 0.95354 0.5
75 4 0.860759 0.913405 0.5
11 1 0.296801 0.962047 0.5
23 2 0.679562 0.93275 0.5
12 1 0.688794 0.00556619 0.5
42 3 0.916881 0.969931 0.5
ITEM: TIMESTEP
110
ITEM: NUMBER OF ATOMS
80
ITEM: BOX BOUNDS pp pp pp
-6.7550663157513435e+00 6.7550663157513435e+00
-6.7550663157513435e+00 6.7550663157513435e+00
-1.0000000000000001e-01 1.0000000000000001e-01
ITEM: ATOMS id type xs ys zs
55 3 0.890923 0.0465806 0.5
72 4 0.926778 0.0194428 0.5
14 1 0.99417 0.0373625 0.5
20 1 0.259261 0.0567221 0.5
50 3 0.830172 0.0589069 0.5
28 2 0.142093 0.153648 0.5
67 4 0.368247 0.123545 0.5
21 2 0.554122 0.12982 0.5
1 1 0.833367 0.117303 0.5
53 3 0.0548689 0.18091 0.5
16 1 0.870062 0.191547 0.5
37 2 0.943656 0.166152 0.5
69 4 0.400978 0.24662 0.5
4 1 0.956591 0.248447 0.5
59 3 0.107976 0.306019 0.5
64 4 0.347785 0.305507 0.5
73 4 0.886378 0.290383 0.5
31 2 0.00266287 0.321887 0.5
30 2 0.069519 0.365017 0.5
6 1 0.40908 0.329755 0.5
2 1 0.531913 0.351937 0.5
66 4 0.591886 0.31573 0.5
48 3 0.733021 0.358037 0.5
76 4 0.764669 0.315717 0.5
10 1 0.268644 0.385439 0.5
18 1 0.453764 0.416847 0.5
68 4 0.0532325 0.442685 0.5
5 1 0.171439 0.425947 0.5
56 3 0.875911 0.430771 0.5
27 2 0.0837492 0.493804 0.5
7 1 0.240244 0.490951 0.5
80 4 0.303352 0.499259 0.5
41 3 0.52017 0.498852 0.5
54 3 0.735318 0.495587 0.5
3 1 0.0561761 0.572624 0.5
8 1 0.23361 0.562783 0.5
32 2 0.328286 0.555866 0.5
9 1 0.39043 0.563578 0.5
44 3 0.450866 0.563153 0.5
38 2 0.619781 0.532493 0.5
43 3 0.850036 0.551934 0.5
47 3 0.110133 0.632284 0.5
65 4 0.136529 0.579457 0.5
57 3 0.171958 0.622641 0.5
58 3 0.21597 0.606989 0.5
51 3 0.292202 0.616539 0.5
77 4 0.663152 0.582509 0.5
36 2 0.726868 0.610966 0.5
33 2 0.048343 0.677526 0.5
70 4 0.332736 0.649182 0.5
45 3 0.566801 0.639904 0.5
25 2 0.532226 0.728136 0.5
17 1 0.58788 0.643932 0.5
22 2 0.683126 0.727313 0.5
39 2 0.648222 0.684569 0.5
61 4 0.827556 0.730483 0.5
29 2 0.245419 0.75073 0.5
34 2 0.598789 0.805954 0.5
19 1 0.66937 0.789295 0.5
62 4 0.0287222 0.798119 0.5
78 4 0.0420382 0.838582 0.5
35 2 0.105432 0.835859 0.5
74 4 0.0675993 0.892838 0.5
15 1 0.315348 0.841764 0.5
52 3 0.256523 0.896146 0.5
26 2 0.693053 0.8516 0.5
13 1 0.853412 0.845978 0.5
46 3 0.947274 0.862338 0.5
79 4 0.00162787 0.857132 0.5
63 4 0.637581 0.911517 0.5
49 3 0.725427 0.907834 0.5
40 2 0.763957 0.970977 0.5
60 3 0.761833 0.87935 0.5
71 4 0.798406 0.902372 0.5
24 2 0.835233 0.955912 0.5
75 4 0.862091 0.91374 0.5
11 1 0.297669 0.962466 0.5
23 2 0.678424 0.930699 0.5
12 1 0.688478 0.0106656 0.5
42 3 0.916654 0.969346 0.5
ITEM: TIMESTEP
120
ITEM: NUMBER OF ATOMS
80
ITEM: BOX BOUNDS pp pp pp
-6.8047574974981453e+00 6.8047574974981453e+00
-6.8047574974981453e+00 6.8047574974981453e+00
-1.0000000000000001e-01 1.0000000000000001e-01
ITEM: ATOMS id type xs ys zs
55 3 0.891255 0.0466675 0.5
72 4 0.925341 0.0190248 0.5
14 1 0.996506 0.0380273 0.5
20 1 0.25889 0.0577021 0.5
50 3 0.829088 0.0580105 0.5
28 2 0.142093 0.153648 0.5
67 4 0.368247 0.123545 0.5
21 2 0.554122 0.12982 0.5
1 1 0.828881 0.11263 0.5
53 3 0.0548689 0.18091 0.5
16 1 0.868426 0.195526 0.5
37 2 0.947075 0.162948 0.5
69 4 0.400977 0.246606 0.5
4 1 0.959332 0.25325 0.5
59 3 0.108789 0.305105 0.5
64 4 0.346961 0.305119 0.5
73 4 0.886285 0.290455 0.5
31 2 0.000166045 0.320606 0.5
30 2 0.0713568 0.367453 0.5
6 1 0.408569 0.327691 0.5
2 1 0.529152 0.353552 0.5
66 4 0.595031 0.313828 0.5
48 3 0.731801 0.359668 0.5
76 4 0.765889 0.314086 0.5
10 1 0.272699 0.381857 0.5
18 1 0.454717 0.419601 0.5
68 4 0.0529686 0.442177 0.5
5 1 0.16591 0.425968 0.5
56 3 0.875911 0.430771 0.5
27 2 0.0845349 0.491715 0.5
7 1 0.238359 0.491481 0.5
80 4 0.306512 0.499737 0.5
41 3 0.52017 0.498852 0.5
54 3 0.735318 0.495587 0.5
3 1 0.0531309 0.573294 0.5
8 1 0.228522 0.560747 0.5
32 2 0.330495 0.553038 0.5
9 1 0.39606 0.562957 0.5
44 3 0.451878 0.563129 0.5
38 2 0.619409 0.532067 0.5
43 3 0.850036 0.551934 0.5