LAMMPS data file via write_data, version 23 Jun 2022, timestep = 10000

80 atoms
4 atom types

-4.806326899706999 4.806326899706999 xlo xhi
-4.806326899706999 4.806326899706999 ylo yhi
-0.1 0.1 zlo zhi

Atoms # sphere

48 3 1 1 4.802085130769019 -4.4393594394978955 0 0 0 0
36 2 1.3 0.4551661356395083 -3.651313484178268 -4.107837122951136 0 0 0 0
22 2 1.3 0.4551661356395083 -1.9788958208313976 -4.205426965909706 0 0 0 0
44 3 1 1 -0.8467094421387311 -3.9750478549938926 0 0 1 0
50 3 1 1 0.4139853786509491 -4.796195820446167 0 0 1 0
3 1 1.6 0.2441406249999999 1.3357556704885116 -3.925470374928333 0 0 0 0
58 3 1 1 2.113789213669844 -4.667050600321694 0 0 1 0
34 2 1.3 0.4551661356395083 3.194451552465079 -4.1562152147682125 0 -1 1 0
65 4 0.7 2.915451895043732 3.9669822930455965 -4.5904116652958535 0 -1 1 0
8 1 1.6 0.2441406249999999 -4.119316208484725 -3.0416528866286647 0 1 0 0
23 2 1.3 0.4551661356395083 -2.784527273799426 -3.3685211573935048 0 1 1 0
76 4 0.7 2.915451895043732 -1.4575160345794775 -3.5330599511987733 0 0 0 0
35 2 1.3 0.4551661356395083 -0.8019522745012138 -2.9453795175190507 0 0 0 0
47 3 1 1 -0.018386278538857326 -3.7636643230797033 0 0 0 0
68 4 0.7 2.915451895043732 1.8812653255425404 -2.9343311710979294 0 0 0 0
70 4 0.7 2.915451895043732 2.2798409436831335 -3.88709450092247 0 0 1 0
1 1 1.6 0.2441406249999999 2.997321693632286 -2.933350652338097 0 0 0 0
27 2 1.3 0.4551661356395083 4.294891854536553 -3.5552660745161426 0 -1 0 0
63 4 0.7 2.915451895043732 -4.31298000441837 -1.9304248695253396 0 0 -1 0
72 4 0.7 2.915451895043732 -3.0925654230849524 -2.1347795678558796 0 1 0 0
32 2 1.3 0.4551661356395083 -3.822396658467549 -1.2250868905049184 0 1 0 0
19 1 1.6 0.2441406249999999 -1.9802185810023052 -2.3796221672925655 0 0 0 0
39 2 1.3 0.4551661356395083 0.37476588472531613 -2.850565704471652 0 0 0 0
43 3 1 1 1.3864515647530729 -2.41825177392649 0 0 1 0
67 4 0.7 2.915451895043732 0.6067175816571515 -1.9834847779678682 0 0 0 0
61 4 0.7 2.915451895043732 2.0486267656130552 -2.2793081877826697 0 0 1 0
26 2 1.3 0.4551661356395083 4.358099593317192 -2.3066228069375057 0 -1 1 0
60 3 1 1 -4.8027348641033 -1.3854548790620949 0 0 0 0
17 1 1.6 0.2441406249999999 -2.486139632524878 -1.0751459921064872 0 0 0 0
78 4 0.7 2.915451895043732 -1.5159575197270034 -1.309543120917073 0 0 0 0
9 1 1.6 0.2441406249999999 -0.47354723889801775 -1.591709145557922 0 0 0 0
33 2 1.3 0.4551661356395083 0.7275236395639642 -1.1305581125015651 0 0 0 0
31 2 1.3 0.4551661356395083 1.794399011256723 -1.3679792639669603 0 0 0 0
20 1 1.6 0.2441406249999999 3.0991874777255193 -1.397470083953832 0 0 0 0
73 4 0.7 2.915451895043732 4.137105593283803 -1.2343600052789063 0 0 0 0
56 3 1 1 3.9498820570014015 -0.4831421921004333 0 0 0 0
15 1 1.6 0.2441406249999999 -4.548211650721715 -0.14364801852461007 0 0 0 0
25 2 1.3 0.4551661356395083 -3.2954794787632853 -0.14030827113573352 0 0 1 0
30 2 1.3 0.4551661356395083 -2.2600941249439477 0.27021740554922147 0 1 0 0
13 1 1.6 0.2441406249999999 -0.9900282428894558 -0.22905578975983865 0 0 0 0
52 3 1 1 0.15034077601248086 -0.30431741368964094 0 0 0 0
4 1 1.6 0.2441406249999999 1.4318935602630845 -0.07241556812950378 0 0 0 0
64 4 0.7 2.915451895043732 2.347571021261796 -0.6133327760997132 0 0 0 0
6 1 1.6 0.2441406249999999 2.8279975757394054 0.3307813681506149 0 0 0 0
75 4 0.7 2.915451895043732 3.981351915544588 0.2034823777174033 0 0 0 0
7 1 1.6 0.2441406249999999 -3.5429890700501243 1.0463768569152458 0 0 0 0
24 2 1.3 0.4551661356395083 -2.0169980041619184 1.4726067434515775 0 1 0 0
77 4 0.7 2.915451895043732 -1.5906670974239434 0.6416410247660469 0 0 0 0
54 3 1 1 -0.5831027530952735 0.8950440944292044 0 0 0 0
80 4 0.7 2.915451895043732 -1.1293518760482 1.328180619633427 0 0 0 0
42 3 1 1 0.39489461470892095 0.6509181528633734 0 -1 0 0
59 3 1 1 1.0822628725402321 1.1905165366595334 0 0 0 0
45 3 1 1 1.9603335674016495 1.1040631699999457 0 0 0 0
10 1 1.6 0.2441406249999999 4.561558688407786 1.210099085152775 0 0 0 0
5 1 1.6 0.2441406249999999 -4.398321316419582 2.445590616890234 0 1 0 0
38 2 1.3 0.4551661356395083 -3.000336458660055 2.293237548350744 0 0 0 0
74 4 0.7 2.915451895043732 -1.2204051849223978 1.9158712345552393 0 0 0 0
53 3 1 1 -0.1538186859370212 1.658018733085247 0 1 0 0
57 3 1 1 0.57488298964003 2.2085950682896547 0 0 -1 0
28 2 1.3 0.4551661356395083 1.675704491515229 2.0113885011722736 0 0 0 0
2 1 1.6 0.2441406249999999 2.9483341782119084 1.7368527659598811 0 0 0 0
55 3 1 1 4.012380207971082 2.2819632326269828 0 0 0 0
79 4 0.7 2.915451895043732 4.373980101431169 3.112134984758872 0 -1 0 0
40 2 1.3 0.4551661356395083 -3.4882674844646324 3.3417080868432354 0 0 -1 0
29 2 1.3 0.4551661356395083 -1.7813626439835684 2.6433394177337544 0 0 0 0
14 1 1.6 0.2441406249999999 -0.46732866555071073 2.9378387599613376 0 1 0 0
16 1 1.6 0.2441406249999999 1.2419861439991582 3.2625858902709446 0 0 0 0
49 3 1 1 2.2112960215165307 2.6284020028905486 0 -1 0 0
69 4 0.7 2.915451895043732 2.290546372920047 3.5248104443601385 0 0 0 0
11 1 1.6 0.2441406249999999 3.3128492366530313 3.2964623670239863 0 -1 -1 0
37 2 1.3 0.4551661356395083 -3.892114639604044 4.377973474574292 0 0 -1 0
71 4 0.7 2.915451895043732 -2.9852055946253735 -4.607582643081398 0 0 0 0
12 1 1.6 0.2441406249999999 -2.3140247964541993 3.9960995065452813 0 0 -1 0
18 1 1.6 0.2441406249999999 -0.7813743845244439 4.353361257905291 0 0 0 0
41 3 1 1 0.38689664347797503 3.8924108790591028 0 0 0 0
46 3 1 1 1.30464525683126 4.417836405898676 0 0 0 0
51 3 1 1 2.15577044744004 4.116957182656966 0 0 0 0
66 4 0.7 2.915451895043732 2.854582893885972 4.592625973750561 0 -1 -1 0
62 4 0.7 2.915451895043732 3.526942793036431 4.430210362020578 0 0 0 0
21 2 1.3 0.4551661356395083 4.463379348889591 4.161515464718779 0 -1 -1 0

Velocities

48 0.019523230019175494 0.051111371533314374 0 0 0 0
36 -0.05474148623723621 -0.06637541032487276 0 0 0 0
22 -0.05883085368178694 0.09653076600106575 0 0 0 0
44 -0.049287174459082185 -0.04409418868877703 0 0 0 0
50 0.0899998489704389 -0.014639949069059827 0 0 0 0
3 -0.12281290339780493 0.003201304190491431 0 0 0 0
58 -0.1466452966057459 0.22721810621846103 0 0 0 0
34 0.30423894585440686 -0.19457641446002627 0 0 0 0
65 0.10755430411052153 0.10535279280843472 0 0 0 0
8 0.11521214064473645 0.0420124176406129 0 0 0 0
23 -0.07218082354088745 -0.05422840401093957 0 0 0 0
76 0.08361942161512011 -0.06455487195072986 0 0 0 0
35 0.018206796879668283 -0.06705440088165734 0 0 0 0
47 -0.026361069351402016 -0.15721380769276838 0 0 0 0
68 0.1361004140619045 0.009112927607317993 0 0 0 0
70 -0.08936637295361853 0.025771830913673764 0 0 0 0
1 -0.11639350604700661 -0.04520169180914188 0 0 0 0
27 0.165724540569966 0.003024246422275822 0 0 0 0
63 0.20141782357262872 0.08411034322544632 0 0 0 0
72 -0.05555533379402632 0.16748112252790529 0 0 0 0
32 -0.04053521369104154 0.13205949187380678 0 0 0 0
19 0.07610851016002625 0.08300199418570735 0 0 0 0
39 -0.0713824945582101 0.09181008897035485 0 0 0 0
43 0.10868770742558354 -0.0891948107772017 0 0 0 0
67 0.057708540904661765 -0.12166787704619751 0 0 0 0
61 0.02238109316940027 -0.09852088490016854 0 0 0 0
26 -0.04743632986315597 -0.019844570443595826 0 0 0 0
60 0.17040780458371593 0.09946068126393894 0 0 0 0
17 -0.15786816014781271 -0.013812539452596334 0 0 0 0
78 0.14159446671205836 -0.011078125005102548 0 0 0 0
9 -0.19238526932394542 0.28626604720673754 0 0 0 0
33 -0.016459338714704334 -0.0011514590726275614 0 0 0 0
31 0.04452926603665842 -0.06913981093502236 0 0 0 0
20 0.01077187698744782 0.0970117954268118 0 0 0 0
73 0.1628571342005497 -0.18742771162739982 0 0 0 0
56 0.04194311537181299 0.08073119513981795 0 0 0 0
15 0.03093596993109626 0.03360558811419583 0 0 0 0
25 0.09855620067108349 -0.023205978101665397 0 0 0 0
30 -0.04965402455270953 0.054028721575493974 0 0 0 0
13 -0.07389094895410596 -0.08731185414979349 0 0 0 0
52 -0.030226552632451154 0.17647970677178532 0 0 0 0
4 -0.1548083243472392 -0.17663822160264192 0 0 0 0
64 -0.07591038100170355 0.17726904804750587 0 0 0 0
6 0.05595795128284698 -0.015828701826307582 0 0 0 0
75 0.0049847225521226805 0.1513488185225247 0 0 0 0
7 0.016307227555326105 0.06899402094954563 0 0 0 0
24 0.09228927041968119 -0.22589105164209006 0 0 0 0
77 -0.04784751817703675 0.006307635634182261 0 0 0 0
54 -0.10959328637418697 -0.07015061630388439 0 0 0 0
80 -0.015047281963441461 -0.016637059900178754 0 0 0 0
42 0.05230573556866287 -0.024564976801276707 0 0 0 0
59 -0.14855101103448082 0.07347397352145942 0 0 0 0
45 -0.19429801814358294 -0.024481382119415588 0 0 0 0
10 -0.08494969428904092 0.03241118348183937 0 0 0 0
5 -0.04514777578025955 0.122173700022306 0 0 0 0
38 -0.2250184303867506 0.20514645618988775 0 0 0 0
74 -0.127652585276468 -0.15175254062261823 0 0 0 0
53 0.12745933449027813 0.033244710147538215 0 0 0 0
57 -0.035229304904185965 0.00041936468637730523 0 0 0 0
28 0.07362248694201551 -0.09794791169867255 0 0 0 0
2 0.03246878904427254 0.10973264086144612 0 0 0 0
55 -0.06265535700902142 -0.23961824126855324 0 0 0 0
79 -0.060349435967807556 -0.0059172993053614314 0 0 0 0
40 0.11364162112379961 0.059183449720459344 0 0 0 0
29 -0.10049186899459649 -0.08454759475082158 0 0 0 0
14 -0.1315799642144275 -0.09090714725469322 0 0 0 0
16 -0.041594690636699454 -0.2004160913487078 0 0 0 0
49 -0.10183793127808573 0.0997909286780887 0 0 0 0
69 0.06235967102822525 0.016206557318939604 0 0 0 0
11 0.2194612580549421 -0.0797305931973935 0 0 0 0
37 -0.04746971019996772 -0.05030008233197401 0 0 0 0
71 -0.01831293060141709 0.037164454918705174 0 0 0 0
12 -0.051150286584615026 -0.07852272994185436 0 0 0 0
18 -0.1124573139774617 0.04277596012373094 0 0 0 0
41 0.06096715489289134 0.0698744408096106 0 0 0 0
46 -0.005689700410766261 0.08459675234217669 0 0 0 0
51 0.155134607919011 -0.2323557399950511 0 0 0 0
66 0.03569115061272079 0.09149790324752866 0 0 0 0
62 0.13402357290443118 -0.12014243719673783 0 0 0 0
21 0.024902247216081592 -0.014349359333910964 0 0 0 0
