ITEM: TIMESTEP
0
ITEM: NUMBER OF ATOMS
80
ITEM: BOX BOUNDS pp pp pp
-1.0000000000000000e+01 1.0000000000000000e+01
-1.0000000000000000e+01 1.0000000000000000e+01
-1.0000000000000001e-01 1.0000000000000001e-01
ITEM: ATOMS id type xs ys zs
27 2 0.000714896 0.0152612 0.5
11 1 0.174037 0.0385405 0.5
63 4 0.182603 0.013165 0.5
37 2 0.433928 0.027951 0.5
48 3 0.551975 0.0413906 0.5
57 3 0.714586 0.0457095 0.5
35 2 0.158928 0.102982 0.5
60 3 0.376992 0.0995113 0.5
66 4 0.477722 0.0656334 0.5
47 3 0.554059 0.0734325 0.5
1 1 0.802647 0.0834738 0.5
8 1 0.843702 0.0965874 0.5
64 4 0.989652 0.0771865 0.5
21 2 0.252642 0.148932 0.5
78 4 0.213608 0.114157 0.5
40 2 0.343319 0.156781 0.5
22 2 0.386871 0.143863 0.5
12 1 0.455652 0.13721 0.5
3 1 0.59708 0.12619 0.5
67 4 0.820203 0.156856 0.5
68 4 0.890353 0.162874 0.5
42 3 0.0808719 0.214244 0.5
29 2 0.273708 0.212062 0.5
31 2 0.558057 0.266381 0.5
72 4 0.752143 0.273469 0.5
71 4 0.377482 0.33498 0.5
73 4 0.673074 0.348009 0.5
10 1 0.731084 0.335968 0.5
6 1 0.541881 0.392557 0.5
59 3 0.649455 0.388354 0.5
39 2 0.374513 0.443301 0.5
33 2 0.471021 0.442677 0.5
4 1 0.507434 0.447668 0.5
2 1 0.698902 0.451386 0.5
28 2 0.447583 0.524733 0.5
76 4 0.438241 0.509201 0.5
74 4 0.513744 0.500223 0.5
15 1 0.414502 0.53903 0.5
18 1 0.526122 0.530636 0.5
32 2 0.799046 0.568414 0.5
20 1 0.977068 0.574637 0.5
17 1 0.223037 0.581918 0.5
16 1 0.62668 0.614463 0.5
19 1 0.159438 0.677497 0.5
77 4 0.214651 0.647564 0.5
9 1 0.33829 0.633738 0.5
79 4 0.3659 0.682259 0.5
80 4 0.319728 0.675599 0.5
45 3 0.499951 0.681851 0.5
56 3 0.820175 0.678398 0.5
36 2 0.0753079 0.700652 0.5
7 1 0.107677 0.728633 0.5
34 2 0.157595 0.697652 0.5
51 3 0.750859 0.686409 0.5
30 2 0.86254 0.705249 0.5
14 1 0.942089 0.690774 0.5
44 3 0.153255 0.764538 0.5
13 1 0.256366 0.749383 0.5
23 2 0.767106 0.743189 0.5
5 1 0.866828 0.780828 0.5
26 2 0.19128 0.841614 0.5
62 4 0.468663 0.820243 0.5
55 3 0.788233 0.836183 0.5
24 2 0.995764 0.804802 0.5
53 3 0.994932 0.828683 0.5
75 4 0.993742 0.822629 0.5
38 2 0.184557 0.85045 0.5
46 3 0.408631 0.861834 0.5
65 4 0.0302214 0.931459 0.5
41 3 0.315698 0.934021 0.5
54 3 0.720232 0.946479 0.5
69 4 0.780207 0.934277 0.5
70 4 0.755929 0.903854 0.5
58 3 0.92931 0.908709 0.5
49 3 0.0110049 0.960131 0.5
25 2 0.303265 0.968514 0.5
52 3 0.559945 0.997582 0.5
43 3 0.783124 0.971442 0.5
50 3 0.754327 0.966039 0.5
61 4 0.915033 0.958856 0.5
ITEM: TIMESTEP
10
ITEM: NUMBER OF ATOMS
80
ITEM: BOX BOUNDS pp pp pp
-9.2506182462201174e+00 9.2506182462201174e+00
-9.2506182462201174e+00 9.2506182462201174e+00
-1.0000000000000001e-01 1.0000000000000001e-01
ITEM: ATOMS id type xs ys zs
27 2 0.000713408 0.0152692 0.5
11 1 0.174006 0.0386229 0.5
63 4 0.18264 0.0130567 0.5
37 2 0.433928 0.027951 0.5
48 3 0.551966 0.0413453 0.5
57 3 0.714586 0.0457095 0.5
35 2 0.158922 0.103008 0.5
60 3 0.376982 0.0994657 0.5
66 4 0.477722 0.0656334 0.5
47 3 0.554064 0.0734997 0.5
1 1 0.802515 0.0834318 0.5
8 1 0.843833 0.0966294 0.5
64 4 0.989652 0.0771865 0.5
21 2 0.252642 0.148931 0.5
78 4 0.213608 0.114157 0.5
40 2 0.343247 0.156802 0.5
22 2 0.386937 0.143889 0.5
12 1 0.455668 0.137209 0.5
3 1 0.59708 0.12619 0.5
67 4 0.820203 0.156856 0.5
68 4 0.890353 0.162874 0.5
42 3 0.0808719 0.214244 0.5
29 2 0.273708 0.212063 0.5
31 2 0.558057 0.266381 0.5
72 4 0.752143 0.273469 0.5
71 4 0.377482 0.33498 0.5
73 4 0.673073 0.348009 0.5
10 1 0.731085 0.335968 0.5
6 1 0.541912 0.392508 0.5
59 3 0.649455 0.388354 0.5
39 2 0.374513 0.443301 0.5
33 2 0.470888 0.442659 0.5
4 1 0.507533 0.447717 0.5
2 1 0.698902 0.451386 0.5
28 2 0.447769 0.52478 0.5
76 4 0.438225 0.509043 0.5
74 4 0.513712 0.500157 0.5
15 1 0.414332 0.539141 0.5
18 1 0.526157 0.530721 0.5
32 2 0.799046 0.568414 0.5
20 1 0.977068 0.574637 0.5
17 1 0.223037 0.581918 0.5
16 1 0.62668 0.614463 0.5
19 1 0.159477 0.677283 0.5
77 4 0.214651 0.647564 0.5
9 1 0.338304 0.633689 0.5
79 4 0.365905 0.682267 0.5
80 4 0.31971 0.67564 0.5
45 3 0.499951 0.681851 0.5
56 3 0.82015 0.678382 0.5
36 2 0.0752236 0.700579 0.5
7 1 0.107672 0.728738 0.5
34 2 0.157623 0.697816 0.5
51 3 0.750859 0.686409 0.5
30 2 0.862565 0.705265 0.5
14 1 0.942089 0.690774 0.5
44 3 0.153278 0.764556 0.5
13 1 0.256366 0.749383 0.5
23 2 0.767106 0.74319 0.5
5 1 0.866828 0.780828 0.5
26 2 0.1914 0.841456 0.5
62 4 0.468663 0.820243 0.5
55 3 0.788233 0.836183 0.5
24 2 0.995782 0.80456 0.5
53 3 0.994954 0.82894 0.5
75 4 0.993703 0.822615 0.5
38 2 0.184437 0.850609 0.5
46 3 0.408631 0.861834 0.5
65 4 0.0302388 0.931433 0.5
41 3 0.315724 0.933947 0.5
54 3 0.720197 0.946458 0.5
69 4 0.78021 0.93425 0.5
70 4 0.755929 0.903854 0.5
58 3 0.92931 0.908709 0.5
49 3 0.0109891 0.960149 0.5
25 2 0.303238 0.968588 0.5
52 3 0.559949 0.99756 0.5
43 3 0.783202 0.971477 0.5
50 3 0.754281 0.966051 0.5
61 4 0.915033 0.958856 0.5
ITEM: TIMESTEP
20
ITEM: NUMBER OF ATOMS
80
ITEM: BOX BOUNDS pp pp pp
-8.3262722650870717e+00 8.3262722650870717e+00
-8.3262722650870717e+00 8.3262722650870717e+00
-1.0000000000000001e-01 1.0000000000000001e-01
ITEM: ATOMS id type xs ys zs
27 2 0.000702987 0.0153251 0.5
11 1 0.173903 0.0388902 0.5
63 4 0.182772 0.0126652 0.5
37 2 0.433928 0.0279507 0.5
48 3 0.551932 0.0411936 0.5
57 3 0.714586 0.0457095 0.5
35 2 0.15889 0.103131 0.5
60 3 0.376941 0.0992838 0.5
66 4 0.477722 0.0656337 0.5
47 3 0.554067 0.073735 0.5
1 1 0.802036 0.0832786 0.5
8 1 0.844314 0.0967804 0.5
64 4 0.989652 0.0771865 0.5
21 2 0.252644 0.148913 0.5
78 4 0.213599 0.114147 0.5
40 2 0.342976 0.156882 0.5
22 2 0.387157 0.144 0.5
12 1 0.455759 0.1372 0.5
3 1 0.597093 0.126206 0.5
67 4 0.820202 0.156858 0.5
68 4 0.890353 0.162874 0.5
42 3 0.0808719 0.214244 0.5
29 2 0.273718 0.212091 0.5
31 2 0.558057 0.266381 0.5
72 4 0.752144 0.273468 0.5
71 4 0.377482 0.33498 0.5
73 4 0.673052 0.348011 0.5
10 1 0.731108 0.335964 0.5
6 1 0.542038 0.392306 0.5
59 3 0.649453 0.388357 0.5
39 2 0.374513 0.443301 0.5
33 2 0.470408 0.442593 0.5
4 1 0.507872 0.447871 0.5
2 1 0.698902 0.451386 0.5
28 2 0.448428 0.524945 0.5
76 4 0.438177 0.508468 0.5
74 4 0.513595 0.499939 0.5
15 1 0.41371 0.53955 0.5
18 1 0.5263 0.531054 0.5
32 2 0.799046 0.568414 0.5
20 1 0.977068 0.574637 0.5
17 1 0.223037 0.581918 0.5
16 1 0.62668 0.614463 0.5
19 1 0.159632 0.676505 0.5
77 4 0.214658 0.647562 0.5
9 1 0.338348 0.633471 0.5
79 4 0.365934 0.682319 0.5
80 4 0.319636 0.675806 0.5
45 3 0.499951 0.681851 0.5
56 3 0.820041 0.678314 0.5
36 2 0.0749128 0.70031 0.5
7 1 0.107595 0.729141 0.5
34 2 0.157746 0.698383 0.5
51 3 0.750852 0.686384 0.5
30 2 0.862668 0.705311 0.5
14 1 0.942093 0.690773 0.5
44 3 0.15338 0.764637 0.5
13 1 0.256366 0.749383 0.5
23 2 0.767113 0.743214 0.5
5 1 0.86683 0.780852 0.5
26 2 0.191824 0.840899 0.5
62 4 0.468663 0.820243 0.5
55 3 0.788233 0.836183 0.5
24 2 0.995845 0.803693 0.5
53 3 0.99503 0.829847 0.5
75 4 0.993563 0.822575 0.5
38 2 0.184013 0.851166 0.5
46 3 0.408631 0.861834 0.5
65 4 0.0303091 0.931328 0.5
41 3 0.315824 0.933672 0.5
54 3 0.720053 0.946376 0.5
69 4 0.780234 0.934123 0.5
70 4 0.755928 0.903852 0.5
58 3 0.92931 0.908709 0.5
49 3 0.0109292 0.960198 0.5
25 2 0.303139 0.968863 0.5
52 3 0.559967 0.99746 0.5
43 3 0.783491 0.971622 0.5
50 3 0.754113 0.966118 0.5
61 4 0.915033 0.958856 0.5
ITEM: TIMESTEP
30
ITEM: NUMBER OF ATOMS
80
ITEM: BOX BOUNDS pp pp pp
-7.6387990297821204e+00 7.6387990297821204e+00
-7.6387990297821204e+00 7.6387990297821204e+00
-1.0000000000000001e-01 1.0000000000000001e-01
ITEM: ATOMS id type xs ys zs
27 2 0.000672932 0.0154869 0.5
11 1 0.173715 0.0393528 0.5
63 4 0.183031 0.0118994 0.5
37 2 0.433914 0.0279387 0.5
48 3 0.551856 0.0409201 0.5
57 3 0.714586 0.0457095 0.5
35 2 0.158785 0.103428 0.5
60 3 0.376862 0.0988803 0.5
66 4 0.477736 0.0656458 0.5
47 3 0.554036 0.0741654 0.5
1 1 0.801088 0.0829761 0.5
8 1 0.845274 0.0970507 0.5
64 4 0.989652 0.0771873 0.5
21 2 0.252663 0.148849 0.5
78 4 0.213575 0.114102 0.5
40 2 0.34241 0.157061 0.5
22 2 0.387557 0.144248 0.5
12 1 0.456004 0.137176 0.5
3 1 0.597157 0.126284 0.5
67 4 0.820189 0.15689 0.5
68 4 0.890353 0.162874 0.5
42 3 0.0808719 0.214244 0.5
29 2 0.273757 0.212207 0.5
31 2 0.558057 0.266381 0.5
72 4 0.752152 0.273444 0.5
71 4 0.377482 0.33498 0.5
73 4 0.672971 0.348 0.5
10 1 0.7312 0.335967 0.5
6 1 0.542316 0.391862 0.5
59 3 0.649433 0.388387 0.5
39 2 0.374513 0.443301 0.5
33 2 0.469459 0.442465 0.5
4 1 0.508495 0.448103 0.5
2 1 0.698904 0.451388 0.5
28 2 0.44966 0.525254 0.5
76 4 0.438094 0.507343 0.5
74 4 0.513367 0.499553 0.5
15 1 0.412482 0.540359 0.5
18 1 0.526656 0.531786 0.5
32 2 0.799046 0.568414 0.5
20 1 0.977068 0.574637 0.5
17 1 0.22304 0.581895 0.5
16 1 0.62668 0.614463 0.5
19 1 0.159936 0.674986 0.5
77 4 0.214709 0.647557 0.5
9 1 0.338423 0.632969 0.5
79 4 0.366017 0.682465 0.5
80 4 0.319479 0.676162 0.5
45 3 0.499951 0.681851 0.5
56 3 0.819793 0.678156 0.5
36 2 0.0742887 0.69977 0.5
7 1 0.107332 0.729978 0.5
34 2 0.158035 0.699422 0.5
51 3 0.750823 0.686284 0.5
30 2 0.862859 0.705364 0.5
14 1 0.942145 0.690764 0.5
44 3 0.153621 0.764848 0.5
13 1 0.256366 0.749383 0.5
23 2 0.767142 0.743315 0.5
5 1 0.866836 0.780965 0.5
26 2 0.192631 0.839838 0.5
62 4 0.468663 0.820243 0.5
55 3 0.788233 0.836183 0.5
24 2 0.995969 0.802022 0.5
53 3 0.995177 0.831582 0.5
75 4 0.993293 0.822511 0.5
38 2 0.183206 0.852226 0.5
46 3 0.408631 0.861834 0.5
65 4 0.0304617 0.931101 0.5
41 3 0.316024 0.933117 0.5
54 3 0.719747 0.946199 0.5
69 4 0.780315 0.933833 0.5
70 4 0.755911 0.903832 0.5
58 3 0.92931 0.908707 0.5
49 3 0.0108068 0.960263 0.5
25 2 0.302939 0.969418 0.5
52 3 0.56001 0.997225 0.5
43 3 0.78407 0.971938 0.5
50 3 0.753776 0.966289 0.5
61 4 0.915032 0.958859 0.5
ITEM: TIMESTEP
40
ITEM: NUMBER OF ATOMS
80
ITEM: BOX BOUNDS pp pp pp
-7.1519346300438116e+00 7.1519346300438116e+00
-7.1519346300438116e+00 7.1519346300438116e+00
-1.0000000000000001e-01 1.0000000000000001e-01
ITEM: ATOMS id type xs ys zs
27 2 0.00061622 0.0157933 0.5
11 1 0.173435 0.0400071 0.5
63 4 0.183442 0.0106837 0.5
37 2 0.433856 0.0278886 0.5
48 3 0.551723 0.0405167 0.5
57 3 0.714586 0.0457095 0.5
35 2 0.158546 0.103968 0.5
60 3 0.37675 0.0981576 0.5
66 4 0.477797 0.0656875 0.5
47 3 0.553934 0.074805 0.5
1 1 0.799574 0.0824907 0.5
8 1 0.846832 0.0974266 0.5
64 4 0.989648 0.0772082 0.5
21 2 0.252715 0.148711 0.5
78 4 0.213545 0.114 0.5
40 2 0.341453 0.157393 0.5
22 2 0.388152 0.144686 0.5
12 1 0.456477 0.137136 0.5
3 1 0.597313 0.126473 0.5
67 4 0.820146 0.156999 0.5
68 4 0.890353 0.162875 0.5
42 3 0.0808719 0.214244 0.5
29 2 0.273843 0.212469 0.5
31 2 0.558057 0.266381 0.5
72 4 0.752182 0.273353 0.5
71 4 0.377482 0.33498 0.5
73 4 0.672796 0.347954 0.5
10 1 0.731398 0.336011 0.5
6 1 0.542824 0.391073 0.5
59 3 0.649354 0.388449 0.5
39 2 0.374513 0.443301 0.5
33 2 0.467912 0.442276 0.5
4 1 0.509433 0.448367 0.5
2 1 0.698928 0.451419 0.5
28 2 0.451513 0.525735 0.5
76 4 0.437972 0.505564 0.5
74 4 0.513005 0.499001 0.5
15 1 0.410526 0.541649 0.5
18 1 0.527342 0.53306 0.5
32 2 0.799046 0.568414 0.5
20 1 0.977068 0.574637 0.5
17 1 0.223052 0.581803 0.5
16 1 0.62668 0.614463 0.5
19 1 0.160422 0.67258 0.5
77 4 0.214851 0.64757 0.5
9 1 0.338526 0.632075 0.5
79 4 0.36618 0.682755 0.5
80 4 0.319212 0.676766 0.5
45 3 0.499951 0.681851 0.5
56 3 0.819352 0.677877 0.5
36 2 0.0732384 0.698903 0.5
7 1 0.106769 0.731371 0.5
34 2 0.158573 0.700945 0.5
51 3 0.750757 0.686054 0.5
30 2 0.863123 0.7054 0.5
14 1 0.942306 0.690734 0.5
44 3 0.154057 0.765284 0.5
13 1 0.256366 0.749383 0.5
23 2 0.767207 0.743544 0.5
5 1 0.86685 0.781238 0.5
26 2 0.193882 0.838194 0.5
62 4 0.468663 0.820243 0.5
55 3 0.788233 0.836183 0.5
24 2 0.996165 0.79941 0.5
53 3 0.995408 0.834277 0.5
75 4 0.992866 0.822428 0.5
38 2 0.181955 0.853871 0.5
46 3 0.408631 0.861834 0.5
65 4 0.0307236 0.930711 0.5
41 3 0.316349 0.932216 0.5
54 3 0.719223 0.945899 0.5
69 4 0.780493 0.933331 0.5
70 4 0.755862 0.903764 0.5
58 3 0.929318 0.90868 0.5
49 3 0.0106053 0.960325 0.5
25 2 0.302614 0.970319 0.5
52 3 0.560089 0.9968 0.5
43 3 0.785008 0.972479 0.5
50 3 0.753234 0.966618 0.5
61 4 0.915025 0.958885 0.5
ITEM: TIMESTEP
50
ITEM: NUMBER OF ATOMS
80
ITEM: BOX BOUNDS pp pp pp
-6.8203682162428043e+00 6.8203682162428043e+00
-6.8203682162428043e+00 6.8203682162428043e+00
-1.0000000000000001e-01 1.0000000000000001e-01
ITEM: ATOMS id type xs ys zs
27 2 0.000531575 0.0162535 0.5
11 1 0.173065 0.0408263 0.5
63 4 0.184017 0.00898589 0.5
37 2 0.433726 0.0277768 0.5
48 3 0.551524 0.0399891 0.5
57 3 0.714583 0.0457082 0.5
35 2 0.15812 0.104805 0.5
60 3 0.376597 0.097045 0.5
66 4 0.477941 0.0657505 0.5
47 3 0.553729 0.0756478 0.5
1 1 0.797449 0.0817931 0.5
8 1 0.84904 0.0978716 0.5
64 4 0.989634 0.0772843 0.5
21 2 0.252799 0.148477 0.5
78 4 0.213515 0.11382 0.5
40 2 0.34008 0.1579 0.5
22 2 0.388935 0.145348 0.5
12 1 0.457242 0.137113 0.5
3 1 0.597596 0.126814 0.5
67 4 0.820058 0.157241 0.5
68 4 0.890361 0.162887 0.5
42 3 0.0808719 0.214244 0.5
29 2 0.273972 0.212942 0.5
31 2 0.558057 0.266381 0.5
72 4 0.752249 0.273153 0.5
71 4 0.377482 0.33498 0.5
73 4 0.6725 0.347855 0.5
10 1 0.731733 0.336129 0.5
6 1 0.543619 0.389864 0.5
59 3 0.649174 0.388536 0.5
39 2 0.374511 0.443301 0.5
33 2 0.465709 0.441998 0.5
4 1 0.51071 0.448592 0.5
2 1 0.699003 0.451513 0.5
28 2 0.45393 0.526454 0.5
76 4 0.437802 0.503106 0.5
74 4 0.512512 0.498299 0.5
15 1 0.4078 0.54344 0.5
18 1 0.528449 0.534969 0.5
32 2 0.799046 0.568414 0.5
20 1 0.977068 0.574637 0.5
17 1 0.223087 0.581586 0.5
16 1 0.62668 0.614463 0.5
19 1 0.161082 0.669244 0.5
77 4 0.215132 0.647625 0.5
9 1 0.338654 0.630725 0.5
79 4 0.366452 0.683223 0.5
80 4 0.318811 0.67765 0.5
45 3 0.499951 0.681851 0.5
56 3 0.818693 0.677454 0.5
36 2 0.0716719 0.697679 0.5
7 1 0.105819 0.733388 0.5
34 2 0.159443 0.702912 0.5
51 3 0.750635 0.685657 0.5
30 2 0.863438 0.705395 0.5
14 1 0.942634 0.690673 0.5
44 3 0.154727 0.766021 0.5
13 1 0.256366 0.749383 0.5
23 2 0.767321 0.743943 0.5
5 1 0.866876 0.781725 0.5
26 2 0.195594 0.835945 0.5
62 4 0.468663 0.820243 0.5
55 3 0.788233 0.836183 0.5
24 2 0.996439 0.795826 0.5
53 3 0.995731 0.837953 0.5
75 4 0.992268 0.822335 0.5
38 2 0.180244 0.85612 0.5
46 3 0.408631 0.861834 0.5
65 4 0.0311124 0.930134 0.5
41 3 0.316809 0.930937 0.5
54 3 0.718435 0.94547 0.5
69 4 0.780798 0.932593 0.5
70 4 0.755775 0.903612 0.5
58 3 0.929341 0.908601 0.5
49 3 0.0103147 0.960366 0.5
25 2 0.302153 0.971598 0.5
52 3 0.560211 0.996144 0.5
43 3 0.786341 0.973277 0.5
50 3 0.752471 0.96714 0.5
61 4 0.915002 0.958965 0.5
ITEM: TIMESTEP
60
ITEM: NUMBER OF ATOMS
80
ITEM: BOX BOUNDS pp pp pp
-6.5917338040133240e+00 6.5917338040133240e+00
-6.5917338040133240e+00 6.5917338040133240e+00
-1.0000000000000001e-01 1.0000000000000001e-01
ITEM: ATOMS id type xs ys zs
27 2 0.000420053 0.016867 0.5
11 1 0.172608 0.0417679 0.5
63 4 0.184759 0.00680255 0.5
37 2 0.433504 0.0275862 0.5
48 3 0.551251 0.0393491 0.5
57 3 0.714548 0.0456929 0.5
35 2 0.157473 0.105974 0.5
60 3 0.376385 0.0955035 0.5
66 4 0.478198 0.0658203 0.5
47 3 0.553393 0.0766791 0.5
1 1 0.794733 0.0808792 0.5
8 1 0.851895 0.0983291 0.5
64 4 0.989605 0.0774458 0.5
21 2 0.252888 0.148131 0.5
78 4 0.213495 0.113552 0.5
40 2 0.338335 0.158573 0.5
22 2 0.389891 0.146257 0.5
12 1 0.45835 0.137139 0.5
3 1 0.598032 0.127333 0.5
67 4 0.819917 0.157655 0.5
68 4 0.890398 0.162944 0.5
42 3 0.0808719 0.214244 0.5
29 2 0.274123 0.213681 0.5
31 2 0.558057 0.266381 0.5
72 4 0.752361 0.272814 0.5
71 4 0.377482 0.33498 0.5
73 4 0.672068 0.347685 0.5
10 1 0.732223 0.336345 0.5
6 1 0.54473 0.388193 0.5
59 3 0.648858 0.388643 0.5
39 2 0.374478 0.443295 0.5
33 2 0.46287 0.441572 0.5
4 1 0.512341 0.448705 0.5
2 1 0.699149 0.451699 0.5
28 2 0.456791 0.527483 0.5
76 4 0.437562 0.500021 0.5
74 4 0.511914 0.49747 0.5
15 1 0.404345 0.545692 0.5
18 1 0.530039 0.537558 0.5
32 2 0.799046 0.568414 0.5
20 1 0.977068 0.574637 0.5
17 1 0.22318 0.581168 0.5
16 1 0.62668 0.614463 0.5
19 1 0.161846 0.665032 0.5
77 4 0.215594 0.647741 0.5
9 1 0.338775 0.628919 0.5
79 4 0.366852 0.68389 0.5
80 4 0.318261 0.678825 0.5
45 3 0.499951 0.681851 0.5
56 3 0.817822 0.676869 0.5
36 2 0.0695575 0.696081 0.5
7 1 0.104425 0.736058 0.5
34 2 0.160697 0.705258 0.5
51 3 0.750423 0.685068 0.5
30 2 0.86378 0.70533 0.5
14 1 0.94317 0.690573 0.5
44 3 0.155646 0.767093 0.5
13 1 0.256376 0.749376 0.5
23 2 0.767485 0.744539 0.5
5 1 0.866919 0.782467 0.5
26 2 0.197759 0.833138 0.5
62 4 0.468663 0.820243 0.5
55 3 0.78823 0.836185 0.5
24 2 0.996793 0.791311 0.5
53 3 0.996148 0.842565 0.5
75 4 0.991497 0.822239 0.5
38 2 0.178085 0.858957 0.5
46 3 0.408631 0.861834 0.5
65 4 0.0316377 0.929358 0.5
41 3 0.317409 0.929275 0.5
54 3 0.717353 0.94491 0.5
69 4 0.781249 0.931615 0.5
70 4 0.755649 0.903344 0.5
58 3 0.929384 0.908447 0.5
49 3 0.00992987 0.960367 0.5
25 2 0.301554 0.97326 0.5
52 3 0.560383 0.995233 0.5
43 3 0.78808 0.974342 0.5
50 3 0.751488 0.96788 0.5
61 4 0.914958 0.959119 0.5
ITEM: TIMESTEP
70
ITEM: NUMBER OF ATOMS
80
ITEM: BOX BOUNDS pp pp pp
-6.4489755321113886e+00 6.4489755321113886e+00
-6.4489755321113886e+00 6.4489755321113886e+00
-1.0000000000000001e-01 1.0000000000000001e-01
ITEM: ATOMS id type xs ys zs
27 2 0.000284834 0.0176247 0.5
11 1 0.172063 0.042769 0.5
63 4 0.18566 0.00415907 0.5
37 2 0.433179 0.0273064 0.5
48 3 0.550904 0.0386139 0.5
57 3 0.71444 0.0456457 0.5
35 2 0.156583 0.107495 0.5
60 3 0.376107 0.0935357 0.5
66 4 0.478586 0.0658828 0.5
47 3 0.552909 0.0778764 0.5
1 1 0.791502 0.0797747 0.5
8 1 0.855354 0.0987451 0.5
64 4 0.989557 0.0777154 0.5
21 2 0.252956 0.147664 0.5
78 4 0.213501 0.113206 0.5
40 2 0.336289 0.159388 0.5
22 2 0.390991 0.147417 0.5
12 1 0.459823 0.137239 0.5
3 1 0.598637 0.128047 0.5
67 4 0.819716 0.158259 0.5
68 4 0.890479 0.163076 0.5
42 3 0.0808719 0.214244 0.5
29 2 0.274273 0.214725 0.5
31 2 0.558057 0.266381 0.5
72 4 0.752523 0.272317 0.5
71 4 0.377482 0.33498 0.5
73 4 0.671491 0.347432 0.5
10 1 0.732882 0.336667 0.5
6 1 0.546151 0.386051 0.5
59 3 0.648383 0.388766 0.5
39 2 0.374366 0.443269 0.5
33 2 0.459483 0.440934 0.5
4 1 0.514324 0.448652 0.5
2 1 0.69938 0.452003 0.5
28 2 0.45996 0.528864 0.5
76 4 0.437231 0.496416 0.5
74 4 0.511241 0.49655 0.5
15 1 0.400274 0.548312 0.5
18 1 0.532137 0.540818 0.5
32 2 0.799046 0.568414 0.5
20 1 0.977069 0.574631 0.5
17 1 0.223367 0.580487 0.5
16 1 0.626682 0.614464 0.5
19 1 0.162605 0.660059 0.5
77 4 0.216272 0.647939 0.5
9 1 0.338844 0.626717 0.5
79 4 0.367387 0.684758 0.5
80 4 0.317561 0.680281 0.5
45 3 0.499951 0.681851 0.5
56 3 0.81677 0.676105 0.5
36 2 0.0669264 0.694112 0.5
7 1 0.102566 0.739361 0.5
34 2 0.162326 0.707891 0.5
51 3 0.750094 0.68428 0.5
30 2 0.86413 0.705191 0.5
14 1 0.943946 0.690426 0.5
44 3 0.156804 0.768492 0.5
13 1 0.256445 0.749338 0.5
23 2 0.767672 0.745348 0.5
5 1 0.867007 0.783486 0.5
26 2 0.200335 0.829895 0.5
62 4 0.468663 0.820243 0.5
55 3 0.788209 0.836199 0.5
24 2 0.997224 0.785973 0.5
53 3 0.996655 0.847995 0.5
75 4 0.99056 0.822147 0.5
38 2 0.175519 0.862329 0.5
46 3 0.408631 0.861834 0.5
65 4 0.0323006 0.928383 0.5
41 3 0.318139 0.927249 0.5
54 3 0.715968 0.944223 0.5
69 4 0.78185 0.930417 0.5
70 4 0.755483 0.902942 0.5
58 3 0.929453 0.908205 0.5
49 3 0.00945027 0.960314 0.5
25 2 0.300823 0.975286 0.5
52 3 0.560609 0.994057 0.5
43 3 0.790212 0.975663 0.5
50 3 0.750306 0.968847 0.5
61 4 0.914889 0.959361 0.5
ITEM: TIMESTEP
80
ITEM: NUMBER OF ATOMS
80
ITEM: BOX BOUNDS pp pp pp
-6.3814099723965620e+00 6.3814099723965620e+00
-6.3814099723965620e+00 6.3814099723965620e+00
-1.0000000000000001e-01 1.0000000000000001e-01
ITEM: ATOMS id type xs ys zs
27 2 0.000131121 0.0185084 0.5
11 1 0.171437 0.0437656 0.5
63 4 0.186702 0.00111172 0.5
37 2 0.432756 0.0269279 0.5
48 3 0.550484 0.0378056 0.5
57 3 0.714224 0.0455506 0.5
35 2 0.155449 0.109362 0.5
60 3 0.375755 0.0911969 0.5
66 4 0.479108 0.0659249 0.5
47 3 0.552269 0.0792101 0.5
1 1 0.787874 0.0785294 0.5
8 1 0.859327 0.0990746 0.5
64 4 0.989487 0.0781065 0.5
21 2 0.252979 0.147079 0.5
78 4 0.213541 0.112792 0.5
40 2 0.334033 0.160303 0.5
22 2 0.392199 0.148816 0.5
12 1 0.461651 0.137421 0.5
3 1 0.599416 0.128953 0.5
67 4 0.819451 0.159036 0.5
68 4 0.890615 0.16331 0.5
42 3 0.0808719 0.214244 0.5
29 2 0.274401 0.216087 0.5
31 2 0.558057 0.266381 0.5
72 4 0.752735 0.27166 0.5
71 4 0.377482 0.33498 0.5
73 4 0.670774 0.347091 0.5
10 1 0.733718 0.337082 0.5
6 1 0.547845 0.383469 0.5
59 3 0.647737 0.388905 0.5
39 2 0.374134 0.443217 0.5
33 2 0.455681 0.440042 0.5
4 1 0.516635 0.448407 0.5
2 1 0.699695 0.452449 0.5
28 2 0.463285 0.530593 0.5
76 4 0.436795 0.492447 0.5
74 4 0.510512 0.495576 0.5
15 1 0.395748 0.551163 0.5
18 1 0.534709 0.544671 0.5
32 2 0.799046 0.568414 0.5
20 1 0.977078 0.574601 0.5
17 1 0.223675 0.579505 0.5
16 1 0.626707 0.614483 0.5
19 1 0.163233 0.654494 0.5
77 4 0.217188 0.648239 0.5
9 1 0.338818 0.624221 0.5
79 4 0.368043 0.685809 0.5
80 4 0.316728 0.681986 0.5
45 3 0.499951 0.681851 0.5
56 3 0.815572 0.67516 0.5
36 2 0.0638726 0.6918 0.5
7 1 0.100265 0.743223 0.5
34 2 0.164268 0.710698 0.5
51 3 0.749635 0.683304 0.5
30 2 0.864468 0.704973 0.5
14 1 0.944956 0.690221 0.5
44 3 0.158165 0.770184 0.5
13 1 0.256635 0.749243 0.5
23 2 0.76786 0.746363 0.5
5 1 0.867165 0.784785 0.5
26 2 0.203249 0.826373 0.5
62 4 0.468663 0.820243 0.5
55 3 0.788152 0.836238 0.5
24 2 0.997731 0.780012 0.5
53 3 0.997239 0.85406 0.5
75 4 0.989478 0.822064 0.5
38 2 0.172615 0.866143 0.5
46 3 0.408631 0.861834 0.5
65 4 0.0330933 0.927226 0.5
41 3 0.318983 0.924906 0.5
54 3 0.714296 0.943413 0.5
69 4 0.782596 0.929038 0.5
70 4 0.755276 0.902402 0.5
58 3 0.929549 0.90787 0.5
49 3 0.00888117 0.960197 0.5
25 2 0.299979 0.977629 0.5
52 3 0.56089 0.992626 0.5
43 3 0.792693 0.977206 0.5
50 3 0.748958 0.970032 0.5
61 4 0.914794 0.959695 0.5
ITEM: TIMESTEP
90
ITEM: NUMBER OF ATOMS
80
ITEM: BOX BOUNDS pp pp pp
-6.3762947951850482e+00 6.3762947951850482e+00
-6.3762947951850482e+00 6.3762947951850482e+00
-1.0000000000000001e-01 1.0000000000000001e-01
ITEM: ATOMS id type xs ys zs
27 2 -3.45746e-05 0.0194933 0.5
11 1 0.170742 0.0447019 0.5
63 4 0.187859 -0.0022602 0.5
37 2 0.432254 0.0264453 0.5
48 3 0.549999 0.036949 0.5
57 3 0.713873 0.045395 0.5
35 2 0.154089 0.11155 0.5
60 3 0.375331 0.0885853 0.5
66 4 0.479756 0.065936 0.5
47 3 0.551475 0.0806464 0.5
1 1 0.783991 0.0772146 0.5
8 1 0.863694 0.0992865 0.5
64 4 0.989395 0.0786224 0.5
21 2 0.252944 0.14639 0.5
78 4 0.213617 0.112318 0.5
40 2 0.331666 0.161268 0.5
22 2 0.393471 0.150421 0.5
12 1 0.463791 0.137681 0.5
3 1 0.600362 0.130035 0.5
67 4 0.819124 0.159949 0.5
68 4 0.890808 0.163661 0.5
42 3 0.0808719 0.214244 0.5
29 2 0.274489 0.217753 0.5
31 2 0.558057 0.266381 0.5
72 4 0.752991 0.27085 0.5
71 4 0.377482 0.33498 0.5
73 4 0.669933 0.346661 0.5
10 1 0.734718 0.33758 0.5
6 1 0.549736 0.380508 0.5
59 3 0.64694 0.389059 0.5
39 2 0.373756 0.443146 0.5
33 2 0.451632 0.438883 0.5
4 1 0.519229 0.447974 0.5
2 1 0.700091 0.453037 0.5
28 2 0.466621 0.532626 0.5
76 4 0.43625 0.488296 0.5
74 4 0.50974 0.494586 0.5
15 1 0.390959 0.554082 0.5
18 1 0.537673 0.548984 0.5
32 2 0.799046 0.568414 0.5
20 1 0.977096 0.574536 0.5
17 1 0.224114 0.578208 0.5
16 1 0.626786 0.614543 0.5
19 1 0.163607 0.648544 0.5
77 4 0.218345 0.648659 0.5
9 1 0.33867 0.621562 0.5
79 4 0.368794 0.68701 0.5
80 4 0.315795 0.683888 0.5
45 3 0.499951 0.681851 0.5
56 3 0.814265 0.674053 0.5
36 2 0.0605305 0.689195 0.5
7 1 0.0976109 0.747515 0.5
34 2 0.166435 0.713559 0.5
51 3 0.749042 0.682166 0.5
30 2 0.86478 0.704678 0.5
14 1 0.946162 0.689939 0.5
44 3 0.159671 0.772117 0.5
13 1 0.256995 0.749072 0.5
23 2 0.768035 0.747558 0.5
5 1 0.867409 0.786334 0.5
26 2 0.206413 0.822737 0.5
62 4 0.468663 0.820243 0.5
55 3 0.788051 0.836304 0.5
24 2 0.998293 0.773701 0.5
53 3 0.997884 0.860528 0.5
75 4 0.988283 0.821994 0.5
38 2 0.169462 0.870282 0.5
46 3 0.408631 0.861834 0.5
65 4 0.0339994 0.925913 0.5
41 3 0.319917 0.922317 0.5
54 3 0.712375 0.942491 0.5
69 4 0.783467 0.927534 0.5
70 4 0.755026 0.901734 0.5
58 3 0.929669 0.907448 0.5
49 3 0.00823286 0.960008 0.5
25 2 0.299046 0.980218 0.5
52 3 0.561223 0.990964 0.5
43 3 0.795457 0.978917 0.5
50 3 0.747494 0.97141 0.5
61 4 0.914674 0.960117 0.5
ITEM: TIMESTEP
100
ITEM: NUMBER OF ATOMS
80
ITEM: BOX BOUNDS pp pp pp
-6.4138189636817726e+00 6.4138189636817726e+00
-6.4138189636817726e+00 6.4138189636817726e+00
-1.0000000000000001e-01 1.0000000000000001e-01
ITEM: ATOMS id type xs ys zs
27 2 -0.000205624 0.0205532 0.5
11 1 0.169994 0.045536 0.5
63 4 0.189104 -0.00587128 0.5
37 2 0.431695 0.0258632 0.5
48 3 0.549459 0.0360664 0.5
57 3 0.71337 0.0451699 0.5
35 2 0.152534 0.11402 0.5
60 3 0.374846 0.0858144 0.5
66 4 0.480513 0.0659086 0.5
47 3 0.550537 0.0821541 0.5
1 1 0.779998 0.0759144 0.5
8 1 0.868325 0.0993658 0.5
64 4 0.989282 0.0792587 0.5
21 2 0.252845 0.145616 0.5
78 4 0.213722 0.111788 0.5
40 2 0.32928 0.162229 0.5
22 2 0.394765 0.152191 0.5
12 1 0.466185 0.138003 0.5
3 1 0.601458 0.131269 0.5
67 4 0.81874 0.160942 0.5
68 4 0.891055 0.164137 0.5
42 3 0.0808719 0.214244 0.5
29 2 0.274526 0.219692 0.5
31 2 0.558057 0.26638 0.5
72 4 0.753284 0.269906 0.5
71 4 0.377482 0.33498 0.5
73 4 0.668989 0.346146 0.5
10 1 0.735854 0.338157 0.5
6 1 0.551737 0.377238 0.5
59 3 0.646032 0.389229 0.5
39 2 0.373209 0.443071 0.5
33 2 0.447504 0.437462 0.5
4 1 0.522052 0.447387 0.5
2 1 0.700556 0.453752 0.5
28 2 0.469843 0.53488 0.5
76 4 0.435605 0.48415 0.5
74 4 0.508931 0.493615 0.5
15 1 0.386096 0.556901 0.5
18 1 0.540928 0.553604 0.5
32 2 0.799046 0.568414 0.5
20 1 0.977125 0.574432 0.5
17 1 0.224689 0.576609 0.5
16 1 0.626946 0.614663 0.5
19 1 0.163621 0.642421 0.5
77 4 0.219726 0.649209 0.5
9 1 0.338378 0.618876 0.5
79 4 0.369604 0.688317 0.5
80 4 0.314811 0.685919 0.5
45 3 0.499951 0.681851 0.5
56 3 0.812882 0.672813 0.5
36 2 0.0570278 0.686355 0.5
7 1 0.0947336 0.752081 0.5
34 2 0.168751 0.716371 0.5
51 3 0.748325 0.680901 0.5
30 2 0.865057 0.704314 0.5
14 1 0.947507 0.689568 0.5
44 3 0.161256 0.774237 0.5
13 1 0.257553 0.748815 0.5
23 2 0.768195 0.748893 0.5
5 1 0.867745 0.788086 0.5
26 2 0.209738 0.81914 0.5
62 4 0.468663 0.820243 0.5
55 3 0.787905 0.8364 0.5
24 2 0.998875 0.767306 0.5
53 3 0.998569 0.867167 0.5
75 4 0.987009 0.821941 0.5
38 2 0.166151 0.874622 0.5
46 3 0.408631 0.861834 0.5
65 4 0.0349989 0.924478 0.5
41 3 0.320911 0.919559 0.5
54 3 0.710253 0.941468 0.5
69 4 0.784438 0.925971 0.5
70 4 0.754732 0.900958 0.5
58 3 0.92981 0.90695 0.5
49 3 0.00751803 0.959748 0.5
25 2 0.298052 0.982976 0.5
52 3 0.561605 0.989105 0.5
43 3 0.798431 0.980722 0.5
50 3 0.745968 0.972943 0.5
61 4 0.914532 0.960615 0.5
ITEM: TIMESTEP
110
ITEM: NUMBER OF ATOMS
80
ITEM: BOX BOUNDS pp pp pp
-6.4716065222280816e+00 6.4716065222280816e+00
-6.4716065222280816e+00 6.4716065222280816e+00
-1.0000000000000001e-01 1.0000000000000001e-01
ITEM: ATOMS id type xs ys zs
27 2 0.999624 0.0216655 0.5
11 1 0.169208 0.0462418 0.5
63 4 0.190412 0.990351 0.5
37 2 0.4311 0.0251916 0.5
48 3 0.548871 0.0351745 0.5
57 3 0.712701 0.0448685 0.5
35 2 0.150818 0.116736 0.5
60 3 0.374299 0.0829813 0.5
66 4 0.481357 0.0658379 0.5
47 3 0.549473 0.0837089 0.5
1 1 0.776015 0.0746844 0.5
8 1 0.873101 0.0993115 0.5
64 4 0.989148 0.0800079 0.5
21 2 0.252683 0.144779 0.5
78 4 0.213843 0.111203 0.5
40 2 0.326948 0.163144 0.5
22 2 0.396047 0.154083 0.5
12 1 0.468786 0.138376 0.5
3 1 0.602687 0.132628 0.5
67 4 0.818318 0.161977 0.5
68 4 0.891344 0.164741 0.5
42 3 0.0808719 0.214244 0.5
29 2 0.274506 0.221866 0.5
31 2 0.558058 0.266365 0.5
72 4 0.753604 0.26885 0.5
71 4 0.377482 0.33498 0.5
73 4 0.667965 0.345553 0.5
10 1 0.737098 0.338808 0.5
6 1 0.553793 0.373723 0.5
59 3 0.645052 0.389419 0.5
39 2 0.372469 0.442998 0.5
33 2 0.443413 0.435807 0.5
4 1 0.525055 0.446697 0.5
2 1 0.701081 0.454569 0.5
28 2 0.472858 0.53726 0.5
76 4 0.434885 0.480168 0.5
74 4 0.508086 0.492698 0.5
15 1 0.381318 0.559486 0.5
18 1 0.544376 0.558388 0.5
32 2 0.799046 0.568414 0.5
20 1 0.977163 0.574292 0.5
17 1 0.225402 0.574739 0.5
16 1 0.62721 0.614857 0.5
19 1 0.163234 0.636272 0.5
77 4 0.2213 0.649891 0.5
9 1 0.337923 0.616288 0.5
79 4 0.370441 0.689689 0.5
80 4 0.313819 0.688015 0.5
45 3 0.499951 0.681851 0.5
56 3 0.811444 0.671471 0.5
36 2 0.0534822 0.683328 0.5
7 1 0.0917421 0.756806 0.5
34 2 0.171148 0.719059 0.5
51 3 0.747496 0.679543 0.5
30 2 0.865294 0.703893 0.5
14 1 0.948918 0.689094 0.5
44 3 0.162863 0.776497 0.5
13 1 0.258317 0.748467 0.5
23 2 0.768345 0.750323 0.5
5 1 0.868168 0.789997 0.5
26 2 0.213153 0.8157 0.5
62 4 0.468663 0.820243 0.5
55 3 0.787713 0.836523 0.5
24 2 0.999441 0.761002 0.5
53 3 0.999275 0.873832 0.5
75 4 0.98569 0.821906 0.5
38 2 0.162762 0.879061 0.5
46 3 0.408631 0.861834 0.5
65 4 0.0360747 0.92295 0.5
41 3 0.321941 0.916701 0.5
54 3 0.707979 0.940351 0.5
69 4 0.785483 0.924407 0.5
70 4 0.754391 0.900098 0.5
58 3 0.929969 0.906392 0.5
49 3 0.00674842 0.959416 0.5
25 2 0.297021 0.985834 0.5
52 3 0.562031 0.987081 0.5
43 3 0.801549 0.98256 0.5
50 3 0.744429 0.974593 0.5
61 4 0.914373 0.961174 0.5
ITEM: TIMESTEP
120
ITEM: NUMBER OF ATOMS
80
ITEM: BOX BOUNDS pp pp pp
-6.5273669759398922e+00 6.5273669759398922e+00
-6.5273669759398922e+00 6.5273669759398922e+00
-1.0000000000000001e-01 1.0000000000000001e-01
ITEM: ATOMS id type xs ys zs
27 2 0.999457 0.0228142 0.5
11 1 0.168395 0.0468055 0.5
63 4 0.191767 0.986457 0.5
37 2 0.430485 0.0244403 0.5
48 3 0.548243 0.0342833 0.5
57 3 0.711855 0.0444863 0.5
35 2 0.148972 0.119669 0.5
60 3 0.373696 0.0801435 0.5
66 4 0.48227 0.0657203 0.5
47 3 0.548306 0.0852897 0.5
1 1 0.772129 0.0735572 0.5
8 1 0.877932 0.0991317 0.5
64 4 0.988995 0.080864 0.5
21 2 0.252461 0.143901 0.5
78 4 0.213961 0.110561 0.5
40 2 0.324707 0.163998 0.5
22 2 0.397292 0.156061 0.5
12 1 0.471555 0.138802 0.5
3 1 0.604035 0.134092 0.5
67 4 0.817878 0.163021 0.5
68 4 0.891666 0.165471 0.5
42 3 0.0808719 0.214244 0.5
29 2 0.274425 0.224245 0.5
31 2 0.55806 0.266319 0.5
72 4 0.753945 0.267701 0.5
71 4 0.377482 0.33498 0.5
73 4 0.666879 0.344885 0.5
10 1 0.738428 0.339532 0.5
6 1 0.55587 0.370007 0.5
59 3 0.644026 0.389637 0.5
39 2 0.371518 0.442931 0.5
33 2 0.439435 0.43392 0.5
4 1 0.528197 0.445967 0.5
2 1 0.701656 0.455461 0.5
28 2 0.475613 0.539699 0.5
76 4 0.434131 0.47644 0.5
74 4 0.507204 0.49186 0.5
15 1 0.376723 0.56177 0.5