LAMMPS data file via write_data, version 23 Jun 2022, timestep = 10000

80 atoms
4 atom types

-4.808752937152527 4.808752937152527 xlo xhi
-4.808752937152527 4.808752937152527 ylo yhi
-0.1 0.1 zlo zhi

Atoms # sphere

70 4 0.7 2.915451895043732 4.645003666322144 4.630482893497002 0 -1 -1 0
60 3 1 1 -4.29837736686903 -3.5443771927770693 0 1 1 0
25 2 1.3 0.4551661356395083 -3.0159034360021235 4.79992852077375 0 1 0 0
3 1 1.6 0.2441406249999999 -1.6547311771521622 -4.5122254514247535 0 0 0 0
67 4 0.7 2.915451895043732 -0.6307477122411411 -4.529505085877178 0 0 1 0
58 3 1 1 -0.3382299569398688 -3.8257723626311373 0 0 0 0
32 2 1.3 0.4551661356395083 0.6750003434514742 -3.967924347723789 0 0 1 0
80 4 0.7 2.915451895043732 -0.012805334136740676 -4.543142344552135 0 0 1 0
66 4 0.7 2.915451895043732 1.1665354187197954 -4.767746390444697 0 0 1 0
18 1 1.6 0.2441406249999999 2.077465386014186 -3.995433217639456 0 0 0 0
19 1 1.6 0.2441406249999999 4.219863992193063 -3.9499521084564235 0 0 0 0
47 3 1 1 -4.22052472120251 -2.544395323065118 0 0 0 0
31 2 1.3 0.4551661356395083 -3.1594639241618507 -3.6109580773515546 0 1 0 0
71 4 0.7 2.915451895043732 -2.315032648472214 -3.5903691251178227 0 0 0 0
34 2 1.3 0.4551661356395083 -1.2765742652709107 -3.308251603585526 0 0 0 0
55 3 1 1 -0.1917303710318583 -2.997723847321402 0 0 0 0
30 2 1.3 0.4551661356395083 1.1933981788390717 -3.0524249070859986 0 0 1 0
75 4 0.7 2.915451895043732 2.0992321492393247 -2.6854517844058017 0 0 0 0
33 2 1.3 0.4551661356395083 3.017058656594781 -3.1936098930759638 0 0 0 0
11 1 1.6 0.2441406249999999 -4.15640182712143 -1.2603586069994357 0 0 0 0
37 2 1.3 0.4551661356395083 -3.1418810879249985 -2.2567313657114827 0 0 0 0
29 2 1.3 0.4551661356395083 -1.987758224182322 -2.4445458806629863 0 0 0 0
39 2 1.3 0.4551661356395083 -0.8744388492646658 -2.1827246204648247 0 0 0 0
8 1 1.6 0.2441406249999999 0.4083009335612191 -2.000611140995204 0 0 0 0
44 3 1 1 2.5085755899808007 -2.18436121052124 0 0 1 0
69 4 0.7 2.915451895043732 3.279190464143105 -2.398653510090327 0 0 0 0
38 2 1.3 0.4551661356395083 4.213823828847045 -2.576549002078499 0 0 0 0
64 4 0.7 2.915451895043732 4.42742841786239 -1.290006466873019 0 0 0 0
35 2 1.3 0.4551661356395083 -3.0679701000943593 -0.36264205172839326 0 0 0 0
54 3 1 1 -2.476245674748327 -1.4224621817983039 0 0 0 0
78 4 0.7 2.915451895043732 -1.69492436091075 -1.414632577352628 0 0 0 0
65 4 0.7 2.915451895043732 -1.4871030467049562 -0.7749031375182218 0 1 0 0
42 3 1 1 -0.8414427303434313 -1.208132552076607 0 0 0 0
12 1 1.6 0.2441406249999999 1.923859988088494 -1.2129512606722064 0 0 0 0
16 1 1.6 0.2441406249999999 3.4959056705962253 -1.2740357483349154 0 0 0 0
6 1 1.6 0.2441406249999999 4.568277969745872 -0.009127109764945018 0 0 0 0
40 2 1.3 0.4551661356395083 -3.887633298968877 0.570464799611389 0 0 0 0
49 3 1 1 -2.2137039760306467 -0.6517728978196367 0 0 0 0
77 4 0.7 2.915451895043732 -1.6602116427173828 -0.046380641873428274 0 1 -1 0
27 2 1.3 0.4551661356395083 -0.7125162095581619 -0.20311919034398596 0 0 0 0
17 1 1.6 0.2441406249999999 0.5979467905047704 -0.5516315162793024 0 0 0 0
53 3 1 1 1.1733851051997108 0.5993806079087065 0 0 0 0
74 4 0.7 2.915451895043732 1.471881421872408 -0.13585503646611663 0 0 0 0
73 4 0.7 2.915451895043732 2.029158490352345 0.06649884918892646 0 0 0 0
15 1 1.6 0.2441406249999999 2.985967653097898 0.037395385222978916 0 0 0 0
2 1 1.6 0.2441406249999999 -2.6435124026628913 1.0281304372629911 0 1 0 0
21 2 1.3 0.4551661356395083 -1.3064020555125357 0.8337146337211161 0 0 0 0
14 1 1.6 0.2441406249999999 0.021493803654770716 0.8453797392902977 0 0 0 0
79 4 0.7 2.915451895043732 1.9101854573150456 0.777686457165859 0 0 0 0
26 2 1.3 0.4551661356395083 2.6522486679768322 1.326115296146999 0 0 0 0
23 2 1.3 0.4551661356395083 3.8069007654397025 1.0785405153372114 0 0 0 0
51 3 1 1 4.704899111969996 1.4696446781365617 0 0 0 0
28 2 1.3 0.4551661356395083 -3.9128528851833737 1.68878597755549 0 0 0 0
76 4 0.7 2.915451895043732 -4.134546506324259 2.77463241894624 0 0 0 0
10 1 1.6 0.2441406249999999 -3.0396202802670595 2.6561463380846435 0 0 0 0
24 2 1.3 0.4551661356395083 -1.903729786948662 1.9780590925569284 0 0 0 0
59 3 1 1 -0.9092135000158641 1.7920814656828261 0 0 0 0
13 1 1.6 0.2441406249999999 0.10697928351396513 2.3912545479154046 0 0 0 0
7 1 1.6 0.2441406249999999 1.4836738737633697 1.6784093864402667 0 0 0 0
68 4 0.7 2.915451895043732 2.5229797576333084 2.077422341003982 0 0 0 0
36 2 1.3 0.4551661356395083 3.7120768074521697 2.3005155193161437 0 -1 -1 0
50 3 1 1 -4.710774464377789 2.298490098345783 0 0 0 0
46 3 1 1 4.795429229289252 3.3348055030467476 0 -1 0 0
5 1 1.6 0.2441406249999999 -3.8395347925846486 3.9017069054824 0 0 -1 0
72 4 0.7 2.915451895043732 -2.8360944222162026 3.6228163253227423 0 0 0 0
57 3 1 1 -1.7648849301295497 2.9346265137853154 0 0 -1 0
43 3 1 1 -0.9214078657155045 2.7637787277597523 0 0 -1 0
41 3 1 1 1.378193492383713 2.970266389906148 0 0 0 0
1 1 1.6 0.2441406249999999 2.5758272272881584 3.0612078313489315 0 0 0 0
45 3 1 1 3.8075130166370625 3.407600775273475 0 -1 0 0
56 3 1 1 -4.249991697184309 -4.53657485641053 0 1 0 0
63 4 0.7 2.915451895043732 -4.6939655225976145 4.181629586591593 0 1 -1 0
22 2 1.3 0.4551661356395083 -2.160070879021424 3.852998229023169 0 1 0 0
9 1 1.6 0.2441406249999999 -0.7462801888743984 3.936499345383308 0 0 -1 0
48 3 1 1 0.2774006485407643 4.423462529783557 0 0 0 0
52 3 1 1 0.41681740392668143 3.448556903059049 0 -1 0 0
4 1 1.6 0.2441406249999999 1.5508622746034133 4.142864813978407 0 0 0 0
20 1 1.6 0.2441406249999999 3.1057551856628676 4.604997428443347 0 0 0 0
62 4 0.7 2.915451895043732 4.209449327690149 3.987458778028988 0 -1 -1 0
61 4 0.7 2.915451895043732 4.069314483917746 4.613313830925644 0 -1 0 0

Velocities

70 0.02813576358394472 0.10141711209872903 0 0 0 0
60 -0.05932560499411299 0.15131995310404836 0 0 0 0
25 0.09833184850116349 0.0339846447817946 0 0 0 0
3 0.06816842204150839 0.053113585470093 0 0 0 0
67 -0.023096898652330066 0.0005929306306885929 0 0 0 0
58 -0.1235120967555386 -0.02590834291987576 0 0 0 0
32 -0.02957199867482002 -0.017173117791453592 0 0 0 0
80 0.13730775734068382 0.0005341516362491998 0 0 0 0
66 0.1022944871051259 0.1459556155840915 0 0 0 0
18 -0.12981215307302857 -0.0333240016416282 0 0 0 0
19 0.17252988745070313 0.03792471495656018 0 0 0 0
47 -0.07961662598000782 -0.01719411699629771 0 0 0 0
31 0.09518070864383796 -0.14914074991007165 0 0 0 0
71 -0.011835612118929355 -0.15154843408078097 0 0 0 0
34 -0.04207003760345476 0.07321001184755349 0 0 0 0
55 0.004135949949517807 -0.1289086746949503 0 0 0 0
30 -0.054675896005007635 0.10781513417466838 0 0 0 0
75 -0.02211492068414907 -0.0026411768319489735 0 0 0 0
33 0.006856450551577853 -0.026870080417742435 0 0 0 0
11 -0.025365034958143386 -0.15467976333959146 0 0 0 0
37 -0.13795148751763775 -0.04092656880211494 0 0 0 0
29 0.19644810311437108 -0.02995280412930772 0 0 0 0
39 -0.10757136995212131 0.14067387588611044 0 0 0 0
8 -0.11130527177847667 -0.026593530743999318 0 0 0 0
44 0.02655990610301633 0.039370442737593124 0 0 0 0
69 0.06507843228744399 0.03849842968376558 0 0 0 0
38 0.027015623891475438 0.0545431636442639 0 0 0 0
64 0.07271872136027041 0.15381941028824228 0 0 0 0
35 0.19727249926099022 -0.11463083911002911 0 0 0 0
54 0.16768728699215374 -0.00613859839047654 0 0 0 0
78 0.12376576195987293 -0.020767708707154473 0 0 0 0
65 0.16393499995878374 0.17123698404035506 0 0 0 0
42 -0.033860887451252056 0.11084685188524712 0 0 0 0
12 0.0693531818944867 -0.021510387602128544 0 0 0 0
16 0.12604332290376888 0.026704245046381924 0 0 0 0
6 -0.013745244406116394 -0.03882748722339465 0 0 0 0
40 0.04818541339004873 -0.005081504857331033 0 0 0 0
49 0.12447095888335534 -0.11390933462041869 0 0 0 0
77 -0.11363297828573492 0.024535370780341074 0 0 0 0
27 -0.08541151925776551 -0.03362001215041761 0 0 0 0
17 0.025750381606169947 0.0551759603216822 0 0 0 0
53 -0.053593582529273036 0.02233366968715814 0 0 0 0
74 -0.0321347256377696 0.04344712687569863 0 0 0 0
73 0.1893967575792898 -0.0646331633116467 0 0 0 0
15 -0.11002409724719195 0.08316210785555042 0 0 0 0
2 0.11370688072742675 0.07732826013123231 0 0 0 0
21 -0.15036421056654561 0.06260220393430582 0 0 0 0
14 -0.025218312280535973 -0.22359822570389648 0 0 0 0
79 -0.02302864816790615 0.09329756691887595 0 0 0 0
26 0.13343633857658324 0.09288614915502573 0 0 0 0
23 -0.025084978845295466 -0.12062500130411978 0 0 0 0
51 0.06490729216598168 -0.005311675644860028 0 0 0 0
28 -0.020729851488952927 -0.030657584285648323 0 0 0 0
76 0.01682798198749075 0.004809495186694557 0 0 0 0
10 -0.15937105931859083 0.051388875687562466 0 0 0 0
24 0.19866081273640807 0.08658286619887877 0 0 0 0
59 -0.06332093913552364 0.02787782690062025 0 0 0 0
13 0.07418708990427199 -0.00551936798561016 0 0 0 0
7 -0.06307505251267234 -0.07592850219971042 0 0 0 0
68 -0.07687112249765762 -0.06689431371968152 0 0 0 0
36 -0.06307711765108263 -0.0229949911574792 0 0 0 0
50 -0.019034380170246404 -0.010397542419214286 0 0 0 0
46 0.04929799721840124 0.21398020094104808 0 0 0 0
5 -0.20800192058758862 0.08697254848933975 0 0 0 0
72 -0.11670629662444858 0.1499700675776681 0 0 0 0
57 0.06305899225845255 -0.007094714348828737 0 0 0 0
43 -0.12000208435878522 -0.10284203676789272 0 0 0 0
41 -0.12490110561865282 -0.0971042487972395 0 0 0 0
1 -0.20831259092314047 -0.1791100091899685 0 0 0 0
45 0.0014050136897054177 -0.12192436592446873 0 0 0 0
56 -0.03855497625379446 -0.02458417155347591 0 0 0 0
63 -0.0857891742259668 -0.03385969433428514 0 0 0 0
22 -0.03562793752377431 -0.09528934948152348 0 0 0 0
9 -0.13933909114120407 -0.0028294627058263783 0 0 0 0
48 0.3099170827557893 -0.06772421509720326 0 0 0 0
52 -0.11842929592731402 -0.04350968021481428 0 0 0 0
4 -0.059853112747519525 -0.15509245237725955 0 0 0 0
20 -0.009819338500822766 0.18049280679025903 0 0 0 0
62 0.04269387964553612 0.010584803895275899 0 0 0 0
61 -0.04998134738871537 -0.09211716133789934 0 0 0 0
