ITEM: TIMESTEP
0
ITEM: NUMBER OF ATOMS
80
ITEM: BOX BOUNDS pp pp pp
-1.0000000000000000e+01 1.0000000000000000e+01
-1.0000000000000000e+01 1.0000000000000000e+01
-1.0000000000000001e-01 1.0000000000000001e-01
ITEM: ATOMS id type xs ys zs
40 2 0.0221956 0.0409324 0.5
36 2 0.538645 0.00415896 0.5
57 3 0.591599 0.00267056 0.5
31 2 0.63426 0.00748389 0.5
77 4 0.750284 0.0241381 0.5
33 2 0.975251 0.0370516 0.5
3 1 0.402038 0.0598939 0.5
18 1 0.433695 0.103716 0.5
70 4 0.495216 0.0929349 0.5
62 4 0.298872 0.145582 0.5
69 4 0.771235 0.149529 0.5
23 2 0.829958 0.10882 0.5
78 4 0.0968749 0.176362 0.5
35 2 0.22593 0.209099 0.5
58 3 0.241934 0.188709 0.5
34 2 0.268767 0.168813 0.5
9 1 0.373188 0.170784 0.5
76 4 0.370273 0.173549 0.5
55 3 0.455773 0.181834 0.5
5 1 0.587147 0.181665 0.5
19 1 0.608745 0.170502 0.5
56 3 0.635579 0.179048 0.5
63 4 0.985196 0.193734 0.5
71 4 0.0486841 0.233061 0.5
29 2 0.374024 0.221183 0.5
43 3 0.573644 0.241946 0.5
8 1 0.850792 0.253764 0.5
38 2 0.691335 0.275648 0.5
6 1 0.955927 0.265455 0.5
54 3 0.194344 0.334146 0.5
12 1 0.46786 0.318652 0.5
47 3 0.0796933 0.405876 0.5
73 4 0.591801 0.403298 0.5
39 2 0.84009 0.385931 0.5
26 2 0.559615 0.45472 0.5
53 3 0.612035 0.464474 0.5
64 4 0.769348 0.438803 0.5
11 1 0.0895759 0.5016 0.5
50 3 0.2413 0.525468 0.5
27 2 0.3932 0.504401 0.5
14 1 0.519991 0.480926 0.5
2 1 0.927085 0.51848 0.5
48 3 0.335966 0.577847 0.5
52 3 0.331918 0.537505 0.5
79 4 0.581635 0.533442 0.5
41 3 0.79143 0.557704 0.5
37 2 0.104932 0.592147 0.5
21 2 0.482811 0.60324 0.5
28 2 0.474658 0.584982 0.5
7 1 0.675529 0.613973 0.5
61 4 0.0935129 0.671572 0.5
59 3 0.11505 0.649204 0.5
68 4 0.723784 0.633227 0.5
16 1 0.998196 0.677476 0.5
17 1 0.961661 0.635625 0.5
65 4 0.962852 0.66141 0.5
42 3 0.449021 0.695793 0.5
20 1 0.610978 0.708196 0.5
80 4 0.642811 0.725701 0.5
25 2 0.766389 0.698274 0.5
60 3 0.968269 0.698027 0.5
46 3 0.0749536 0.745896 0.5
24 2 0.390418 0.752794 0.5
74 4 0.554876 0.798881 0.5
66 4 0.596704 0.797976 0.5
32 2 0.850588 0.825791 0.5
10 1 0.0492564 0.851849 0.5
49 3 0.269761 0.875881 0.5
13 1 0.461466 0.865928 0.5
15 1 0.94936 0.894263 0.5
51 3 0.998087 0.852061 0.5
30 2 0.0824015 0.922286 0.5
44 3 0.260065 0.909546 0.5
72 4 0.769676 0.940513 0.5
67 4 0.178435 0.958598 0.5
45 3 0.408696 0.957213 0.5
1 1 0.641694 0.951431 0.5
4 1 0.871003 0.950974 0.5
75 4 0.852142 0.958351 0.5
22 2 0.94026 0.953851 0.5
ITEM: TIMESTEP
10
ITEM: NUMBER OF ATOMS
80
ITEM: BOX BOUNDS pp pp pp
-9.2565164289746296e+00 9.2565164289746296e+00
-9.2565164289746296e+00 9.2565164289746296e+00
-1.0000000000000001e-01 1.0000000000000001e-01
ITEM: ATOMS id type xs ys zs
40 2 0.0222635 0.040938 0.5
36 2 0.538626 0.00415951 0.5
57 3 0.591563 0.00266375 0.5
31 2 0.634307 0.00755116 0.5
77 4 0.750284 0.0241381 0.5
33 2 0.975183 0.0370459 0.5
3 1 0.401981 0.0598143 0.5
18 1 0.433752 0.103795 0.5
70 4 0.495216 0.0929349 0.5
62 4 0.298909 0.145553 0.5
69 4 0.771235 0.149529 0.5
23 2 0.829958 0.10882 0.5
78 4 0.0968749 0.176362 0.5
35 2 0.225839 0.209209 0.5
58 3 0.241934 0.18867 0.5
34 2 0.268822 0.16877 0.5
9 1 0.373329 0.170565 0.5
76 4 0.370129 0.173674 0.5
55 3 0.455773 0.181834 0.5
5 1 0.586905 0.181748 0.5
19 1 0.608797 0.170366 0.5
56 3 0.635772 0.179086 0.5
63 4 0.985196 0.193734 0.5
71 4 0.0486841 0.233061 0.5
29 2 0.374026 0.221278 0.5
43 3 0.573641 0.241961 0.5
8 1 0.850792 0.253764 0.5
38 2 0.691335 0.275648 0.5
6 1 0.955927 0.265455 0.5
54 3 0.194344 0.334146 0.5
12 1 0.46786 0.318652 0.5
47 3 0.0796933 0.405876 0.5
73 4 0.591801 0.403298 0.5
39 2 0.84009 0.385931 0.5
26 2 0.559676 0.454665 0.5
53 3 0.612052 0.464478 0.5
64 4 0.769348 0.438803 0.5
11 1 0.0895759 0.5016 0.5
50 3 0.2413 0.525468 0.5
27 2 0.3932 0.504401 0.5
14 1 0.519912 0.480978 0.5
2 1 0.927085 0.51848 0.5
48 3 0.33597 0.577883 0.5
52 3 0.331914 0.537469 0.5
79 4 0.581635 0.533442 0.5
41 3 0.79143 0.557704 0.5
37 2 0.104932 0.592145 0.5
21 2 0.482879 0.603392 0.5
28 2 0.474591 0.58483 0.5
7 1 0.675507 0.613965 0.5
61 4 0.0934826 0.671604 0.5
59 3 0.115081 0.649174 0.5
68 4 0.723805 0.633236 0.5
16 1 0.99841 0.677514 0.5
17 1 0.961593 0.635426 0.5
65 4 0.96279 0.661477 0.5
42 3 0.449021 0.695793 0.5
20 1 0.610908 0.708157 0.5
80 4 0.642881 0.725739 0.5
25 2 0.766389 0.698274 0.5
60 3 0.968185 0.698121 0.5
46 3 0.0749536 0.745896 0.5
24 2 0.390418 0.752794 0.5
74 4 0.554876 0.798881 0.5
66 4 0.596704 0.797976 0.5
32 2 0.850588 0.825791 0.5
10 1 0.0493098 0.851849 0.5
49 3 0.269777 0.875827 0.5
13 1 0.461466 0.865928 0.5
15 1 0.949363 0.894219 0.5
51 3 0.998038 0.852058 0.5
30 2 0.0824015 0.922286 0.5
44 3 0.260049 0.909601 0.5
72 4 0.769676 0.940513 0.5
67 4 0.178435 0.958598 0.5
45 3 0.408696 0.957213 0.5
1 1 0.641702 0.95137 0.5
4 1 0.871116 0.950923 0.5
75 4 0.852014 0.958401 0.5
22 2 0.940268 0.953899 0.5
ITEM: TIMESTEP
20
ITEM: NUMBER OF ATOMS
80
ITEM: BOX BOUNDS pp pp pp
-8.3319502621346810e+00 8.3319502621346810e+00
-8.3319502621346810e+00 8.3319502621346810e+00
-1.0000000000000001e-01 1.0000000000000001e-01
ITEM: ATOMS id type xs ys zs
40 2 0.0225242 0.0409596 0.5
36 2 0.538531 0.00416218 0.5
57 3 0.591439 0.00264023 0.5
31 2 0.63449 0.00781678 0.5
77 4 0.750284 0.0241381 0.5
33 2 0.974922 0.0370244 0.5
3 1 0.401765 0.0595148 0.5
18 1 0.433963 0.104093 0.5
70 4 0.495224 0.0929335 0.5
62 4 0.299052 0.145443 0.5
69 4 0.771235 0.149529 0.5
23 2 0.829958 0.10882 0.5
78 4 0.0968749 0.176362 0.5
35 2 0.225492 0.209623 0.5
58 3 0.241928 0.188535 0.5
34 2 0.269033 0.168601 0.5
9 1 0.373817 0.169773 0.5
76 4 0.369629 0.174092 0.5
55 3 0.455773 0.181834 0.5
5 1 0.586032 0.182016 0.5
19 1 0.608977 0.169878 0.5
56 3 0.636483 0.179224 0.5
63 4 0.985196 0.193734 0.5
71 4 0.0486841 0.233061 0.5
29 2 0.374036 0.221655 0.5
43 3 0.573623 0.242043 0.5
8 1 0.850792 0.253764 0.5
38 2 0.691335 0.275648 0.5
6 1 0.955927 0.265455 0.5
54 3 0.194344 0.334146 0.5
12 1 0.46786 0.318652 0.5
47 3 0.0796933 0.405876 0.5
73 4 0.591801 0.403298 0.5
39 2 0.84009 0.385931 0.5
26 2 0.559882 0.454453 0.5
53 3 0.612141 0.464494 0.5
64 4 0.769348 0.438803 0.5
11 1 0.0895759 0.5016 0.5
50 3 0.2413 0.525468 0.5
27 2 0.3932 0.504401 0.5
14 1 0.519617 0.481172 0.5
2 1 0.927085 0.51848 0.5
48 3 0.335984 0.578031 0.5
52 3 0.331899 0.537321 0.5
79 4 0.581635 0.533442 0.5
41 3 0.79143 0.557704 0.5
37 2 0.104926 0.592111 0.5
21 2 0.48312 0.603931 0.5
28 2 0.47435 0.58429 0.5
7 1 0.675409 0.613925 0.5
61 4 0.0933661 0.671725 0.5
59 3 0.115203 0.649087 0.5
68 4 0.723904 0.633275 0.5
16 1 0.999205 0.677665 0.5
17 1 0.961337 0.634671 0.5
65 4 0.962554 0.661697 0.5
42 3 0.449021 0.695793 0.5
20 1 0.610649 0.708014 0.5
80 4 0.643141 0.725882 0.5
25 2 0.766389 0.698274 0.5
60 3 0.967882 0.698505 0.5
46 3 0.0749536 0.745896 0.5
24 2 0.390418 0.752794 0.5
74 4 0.554876 0.798881 0.5
66 4 0.596704 0.797976 0.5
32 2 0.850588 0.825791 0.5
10 1 0.0495165 0.851836 0.5
49 3 0.269837 0.875619 0.5
13 1 0.461466 0.865928 0.5
15 1 0.949354 0.894057 0.5
51 3 0.997864 0.852025 0.5
30 2 0.0824071 0.922298 0.5
44 3 0.259989 0.909808 0.5
72 4 0.769676 0.940513 0.5
67 4 0.178435 0.958598 0.5
45 3 0.408696 0.957213 0.5
1 1 0.641737 0.951125 0.5
4 1 0.871485 0.95074 0.5
75 4 0.851556 0.95858 0.5
22 2 0.940328 0.954099 0.5
ITEM: TIMESTEP
30
ITEM: NUMBER OF ATOMS
80
ITEM: BOX BOUNDS pp pp pp
-7.6378176877109913e+00 7.6378176877109913e+00
-7.6378176877109913e+00 7.6378176877109913e+00
-1.0000000000000001e-01 1.0000000000000001e-01
ITEM: ATOMS id type xs ys zs
40 2 0.0230646 0.0410042 0.5
36 2 0.538297 0.00416887 0.5
57 3 0.591188 0.00261693 0.5
31 2 0.634874 0.00838202 0.5
77 4 0.750284 0.0241381 0.5
33 2 0.974382 0.0369797 0.5
3 1 0.401323 0.0589041 0.5
18 1 0.434383 0.10467 0.5
70 4 0.495282 0.0929228 0.5
62 4 0.299355 0.145209 0.5
69 4 0.771235 0.149529 0.5
23 2 0.829958 0.10882 0.5
78 4 0.0968749 0.176362 0.5
35 2 0.22478 0.210466 0.5
58 3 0.241901 0.188279 0.5
34 2 0.269468 0.168249 0.5
9 1 0.374699 0.168253 0.5
76 4 0.368688 0.174844 0.5
55 3 0.455774 0.181836 0.5
5 1 0.584335 0.182473 0.5
19 1 0.609313 0.168922 0.5
56 3 0.637892 0.179498 0.5
63 4 0.985196 0.193734 0.5
71 4 0.0486841 0.233061 0.5
29 2 0.374057 0.222464 0.5
43 3 0.573575 0.242267 0.5
8 1 0.850792 0.253764 0.5
38 2 0.691335 0.275648 0.5
6 1 0.955927 0.265455 0.5
54 3 0.194344 0.334146 0.5
12 1 0.46786 0.318652 0.5
47 3 0.0796933 0.405876 0.5
73 4 0.591804 0.403293 0.5
39 2 0.84009 0.385931 0.5
26 2 0.560252 0.45402 0.5
53 3 0.612365 0.464537 0.5
64 4 0.769348 0.438803 0.5
11 1 0.0895758 0.5016 0.5
50 3 0.2413 0.525468 0.5
27 2 0.393205 0.504399 0.5
14 1 0.519021 0.481568 0.5
2 1 0.927085 0.51848 0.5
48 3 0.336017 0.578352 0.5
52 3 0.331862 0.537003 0.5
79 4 0.581635 0.533442 0.5
41 3 0.79143 0.557704 0.5
37 2 0.104904 0.591989 0.5
21 2 0.483583 0.60497 0.5
28 2 0.473886 0.583252 0.5
7 1 0.675173 0.613831 0.5
61 4 0.0931238 0.671976 0.5
59 3 0.115468 0.648958 0.5
68 4 0.72414 0.633369 0.5
16 1 0.000808457 0.677984 0.5
17 1 0.960811 0.633127 0.5
65 4 0.96207 0.662087 0.5
42 3 0.449021 0.695793 0.5
20 1 0.610126 0.707727 0.5
80 4 0.643664 0.72617 0.5
25 2 0.766389 0.698274 0.5
60 3 0.96729 0.69934 0.5
46 3 0.0749536 0.745896 0.5
24 2 0.390418 0.752794 0.5
74 4 0.554871 0.798881 0.5
66 4 0.596709 0.797976 0.5
32 2 0.850588 0.825791 0.5
10 1 0.0499342 0.851758 0.5
49 3 0.269959 0.875193 0.5
13 1 0.461466 0.865928 0.5
15 1 0.949303 0.893729 0.5
51 3 0.997536 0.851919 0.5
30 2 0.0824428 0.922375 0.5
44 3 0.259867 0.910234 0.5
72 4 0.769676 0.940513 0.5
67 4 0.178435 0.958598 0.5
45 3 0.408696 0.957213 0.5
1 1 0.641839 0.950576 0.5
4 1 0.87212 0.950388 0.5
75 4 0.850671 0.958927 0.5
22 2 0.940505 0.954541 0.5
ITEM: TIMESTEP
40
ITEM: NUMBER OF ATOMS
80
ITEM: BOX BOUNDS pp pp pp
-7.1399101012283115e+00 7.1399101012283115e+00
-7.1399101012283115e+00 7.1399101012283115e+00
-1.0000000000000001e-01 1.0000000000000001e-01
ITEM: ATOMS id type xs ys zs
40 2 0.0239621 0.0410784 0.5
36 2 0.537859 0.0041815 0.5
57 3 0.590768 0.00261964 0.5
31 2 0.635518 0.00934086 0.5
77 4 0.750284 0.0241381 0.5
33 2 0.973484 0.0369062 0.5
3 1 0.4006 0.0579021 0.5
18 1 0.435066 0.105524 0.5
70 4 0.495446 0.0928918 0.5
62 4 0.299872 0.14481 0.5
69 4 0.771235 0.149529 0.5
23 2 0.829958 0.10882 0.5
78 4 0.0968749 0.176362 0.5
35 2 0.223608 0.211846 0.5
58 3 0.241836 0.187882 0.5
34 2 0.270187 0.167664 0.5
9 1 0.375953 0.165905 0.5
76 4 0.367243 0.175957 0.5
55 3 0.455807 0.181878 0.5
5 1 0.581657 0.183114 0.5
19 1 0.609833 0.167375 0.5
56 3 0.640148 0.179946 0.5
63 4 0.985197 0.193733 0.5
71 4 0.0486841 0.233061 0.5
29 2 0.374092 0.223837 0.5
43 3 0.573478 0.242727 0.5
8 1 0.850786 0.253763 0.5
38 2 0.691335 0.275648 0.5
6 1 0.955932 0.265457 0.5
54 3 0.194344 0.334146 0.5
12 1 0.46786 0.318652 0.5
47 3 0.0796933 0.405876 0.5
73 4 0.59183 0.403252 0.5
39 2 0.84009 0.385931 0.5
26 2 0.560782 0.453332 0.5
53 3 0.612785 0.464619 0.5
64 4 0.769348 0.438803 0.5
11 1 0.0895715 0.501575 0.5
50 3 0.2413 0.525468 0.5
27 2 0.393247 0.504376 0.5
14 1 0.518045 0.482216 0.5
2 1 0.927085 0.51848 0.5
48 3 0.336072 0.578902 0.5
52 3 0.331764 0.536475 0.5
79 4 0.581635 0.533442 0.5
41 3 0.79143 0.557704 0.5
37 2 0.104859 0.591746 0.5
21 2 0.48431 0.606597 0.5
28 2 0.47316 0.581625 0.5
7 1 0.674743 0.61366 0.5
61 4 0.0927197 0.672394 0.5
59 3 0.115921 0.648808 0.5
68 4 0.724569 0.633541 0.5
16 1 0.00341008 0.678515 0.5
17 1 0.959949 0.6306 0.5
65 4 0.961272 0.662661 0.5
42 3 0.449021 0.695793 0.5
20 1 0.609275 0.707259 0.5
80 4 0.644514 0.726637 0.5
25 2 0.766389 0.698274 0.5
60 3 0.966347 0.700762 0.5
46 3 0.0749536 0.745896 0.5
24 2 0.390418 0.752794 0.5
74 4 0.554836 0.798881 0.5
66 4 0.596744 0.797975 0.5
32 2 0.850588 0.825791 0.5
10 1 0.0506112 0.851551 0.5
49 3 0.270162 0.87449 0.5
13 1 0.461466 0.865928 0.5
15 1 0.949211 0.893165 0.5
51 3 0.997029 0.851693 0.5
30 2 0.0825369 0.922578 0.5
44 3 0.259664 0.910938 0.5
72 4 0.769676 0.940513 0.5
67 4 0.178435 0.958598 0.5
45 3 0.408696 0.957213 0.5
1 1 0.642054 0.949602 0.5
4 1 0.872973 0.949859 0.5
75 4 0.849279 0.959476 0.5
22 2 0.94087 0.955312 0.5
ITEM: TIMESTEP
50
ITEM: NUMBER OF ATOMS
80
ITEM: BOX BOUNDS pp pp pp
-6.7940452847759971e+00 6.7940452847759971e+00
-6.7940452847759971e+00 6.7940452847759971e+00
-1.0000000000000001e-01 1.0000000000000001e-01
ITEM: ATOMS id type xs ys zs
40 2 0.0252607 0.0411858 0.5
36 2 0.537168 0.00420155 0.5
57 3 0.590157 0.00266788 0.5
31 2 0.63646 0.0107531 0.5
77 4 0.750284 0.0241381 0.5
33 2 0.972195 0.0368216 0.5
3 1 0.399564 0.0564506 0.5
18 1 0.436042 0.106598 0.5
70 4 0.495762 0.092829 0.5
62 4 0.300627 0.144216 0.5
69 4 0.771234 0.14953 0.5
23 2 0.829959 0.108819 0.5
78 4 0.0968749 0.176362 0.5
35 2 0.221932 0.213819 0.5
58 3 0.241716 0.187339 0.5
34 2 0.271217 0.166826 0.5
9 1 0.377494 0.162732 0.5
76 4 0.365279 0.17742 0.5
55 3 0.455934 0.182021 0.5
5 1 0.577941 0.183906 0.5
19 1 0.610555 0.165147 0.5
56 3 0.643304 0.180597 0.5
63 4 0.985206 0.193711 0.5
71 4 0.0486841 0.233061 0.5
29 2 0.374144 0.225848 0.5
43 3 0.573316 0.24351 0.5
8 1 0.850735 0.253758 0.5
38 2 0.691335 0.275648 0.5
6 1 0.955974 0.265484 0.5
54 3 0.194344 0.334146 0.5
12 1 0.46786 0.318652 0.5
47 3 0.0796933 0.405876 0.5
73 4 0.591901 0.403138 0.5
39 2 0.84009 0.385931 0.5
26 2 0.561441 0.452382 0.5
53 3 0.613449 0.464753 0.5
64 4 0.769348 0.438803 0.5
11 1 0.0895548 0.501476 0.5
50 3 0.2413 0.525468 0.5
27 2 0.393366 0.504314 0.5
14 1 0.51665 0.483145 0.5
2 1 0.927085 0.518479 0.5
48 3 0.336154 0.579716 0.5
52 3 0.331563 0.535723 0.5
79 4 0.581636 0.533443 0.5
41 3 0.79143 0.557704 0.5
37 2 0.10479 0.591385 0.5
21 2 0.485314 0.608844 0.5
28 2 0.472156 0.579377 0.5
7 1 0.674082 0.613394 0.5
61 4 0.0921318 0.673 0.5
59 3 0.116595 0.648662 0.5
68 4 0.725232 0.633805 0.5
16 1 0.00709723 0.679277 0.5
17 1 0.958725 0.627014 0.5
65 4 0.960131 0.663414 0.5
42 3 0.449022 0.695792 0.5
20 1 0.608064 0.706595 0.5
80 4 0.645724 0.727303 0.5
25 2 0.766389 0.698274 0.5
60 3 0.965026 0.702834 0.5
46 3 0.0749536 0.745896 0.5
24 2 0.390417 0.752795 0.5
74 4 0.554746 0.798883 0.5
66 4 0.596833 0.797973 0.5
32 2 0.850588 0.825791 0.5
10 1 0.0515889 0.851157 0.5
49 3 0.270454 0.873477 0.5
13 1 0.461466 0.865928 0.5
15 1 0.949076 0.89232 0.5
51 3 0.996341 0.851309 0.5
30 2 0.0827123 0.922962 0.5
44 3 0.259372 0.91195 0.5
72 4 0.769676 0.940513 0.5
67 4 0.178435 0.958598 0.5
45 3 0.408696 0.957213 0.5
1 1 0.642413 0.948122 0.5
4 1 0.873963 0.94917 0.5
75 4 0.847346 0.960241 0.5
22 2 0.941475 0.956454 0.5
ITEM: TIMESTEP
60
ITEM: NUMBER OF ATOMS
80
ITEM: BOX BOUNDS pp pp pp
-6.5469046672553652e+00 6.5469046672553652e+00
-6.5469046672553652e+00 6.5469046672553652e+00
-1.0000000000000001e-01 1.0000000000000001e-01
ITEM: ATOMS id type xs ys zs
40 2 0.0269788 0.0413276 0.5
36 2 0.536188 0.00422993 0.5
57 3 0.589353 0.002771 0.5
31 2 0.637723 0.0126505 0.5
77 4 0.750284 0.0241381 0.5
33 2 0.970511 0.0367683 0.5
3 1 0.398214 0.0544824 0.5
18 1 0.437336 0.107826 0.5
70 4 0.49627 0.0927231 0.5
62 4 0.301619 0.143399 0.5
69 4 0.771221 0.149539 0.5
23 2 0.829972 0.10881 0.5
78 4 0.0968749 0.176362 0.5
35 2 0.219741 0.216401 0.5
58 3 0.241519 0.186649 0.5
34 2 0.272556 0.165738 0.5
9 1 0.37923 0.158828 0.5
76 4 0.362805 0.179206 0.5
55 3 0.456206 0.182324 0.5
5 1 0.573197 0.184812 0.5
19 1 0.611481 0.162194 0.5
56 3 0.647344 0.181478 0.5
63 4 0.985234 0.193641 0.5
71 4 0.0486841 0.233061 0.5
29 2 0.374216 0.228521 0.5
43 3 0.573093 0.244677 0.5
8 1 0.850597 0.253742 0.5
38 2 0.691335 0.275648 0.5
6 1 0.956083 0.265569 0.5
54 3 0.194344 0.334146 0.5
12 1 0.46786 0.318652 0.5
47 3 0.079693 0.405873 0.5
73 4 0.592037 0.402919 0.5
39 2 0.84009 0.385931 0.5
26 2 0.562193 0.451178 0.5
53 3 0.61439 0.46495 0.5
64 4 0.769348 0.438803 0.5
11 1 0.0895185 0.501263 0.5
50 3 0.2413 0.525468 0.5
27 2 0.393593 0.504196 0.5
14 1 0.514811 0.484348 0.5
2 1 0.927075 0.518445 0.5
48 3 0.336265 0.580813 0.5
52 3 0.331225 0.534744 0.5
79 4 0.581651 0.533454 0.5
41 3 0.79143 0.557704 0.5
37 2 0.104695 0.590918 0.5
21 2 0.486593 0.61171 0.5
28 2 0.470871 0.576523 0.5
7 1 0.673179 0.613006 0.5
61 4 0.0913567 0.673802 0.5
59 3 0.117509 0.648544 0.5
68 4 0.72615 0.634171 0.5
16 1 0.0118601 0.680259 0.5
17 1 0.957149 0.62241 0.5
65 4 0.958643 0.664338 0.5
42 3 0.449038 0.695777 0.5
20 1 0.606469 0.705748 0.5
80 4 0.647304 0.728172 0.5
25 2 0.766389 0.698274 0.5
60 3 0.963321 0.70556 0.5
46 3 0.0749615 0.745904 0.5
24 2 0.390401 0.752811 0.5
74 4 0.554581 0.798887 0.5
66 4 0.596998 0.797969 0.5
32 2 0.850588 0.825791 0.5
10 1 0.0529106 0.85052 0.5
49 3 0.270838 0.872143 0.5
13 1 0.461466 0.865928 0.5
15 1 0.948871 0.891172 0.5
51 3 0.99548 0.850736 0.5
30 2 0.082984 0.923567 0.5
44 3 0.258988 0.913284 0.5
72 4 0.769676 0.940513 0.5
67 4 0.178435 0.958598 0.5
45 3 0.408696 0.957213 0.5
1 1 0.642933 0.946093 0.5
4 1 0.875001 0.948336 0.5
75 4 0.844871 0.961229 0.5
22 2 0.942351 0.957964 0.5
ITEM: TIMESTEP
70
ITEM: NUMBER OF ATOMS
80
ITEM: BOX BOUNDS pp pp pp
-6.3814945436389516e+00 6.3814945436389516e+00
-6.3814945436389516e+00 6.3814945436389516e+00
-1.0000000000000001e-01 1.0000000000000001e-01
ITEM: ATOMS id type xs ys zs
40 2 0.0291083 0.0415029 0.5
36 2 0.534901 0.00426683 0.5
57 3 0.588373 0.00292855 0.5
31 2 0.63931 0.0150347 0.5
77 4 0.750284 0.0241381 0.5
33 2 0.968454 0.0367908 0.5
3 1 0.39656 0.0519681 0.5
18 1 0.438964 0.10914 0.5
70 4 0.496994 0.0925629 0.5
62 4 0.302838 0.142347 0.5
69 4 0.771179 0.149568 0.5
23 2 0.830014 0.108781 0.5
78 4 0.0968749 0.176362 0.5
35 2 0.217063 0.219569 0.5
58 3 0.241226 0.185823 0.5
34 2 0.274161 0.164426 0.5
9 1 0.381075 0.154335 0.5
76 4 0.359856 0.181269 0.5
55 3 0.456661 0.182838 0.5
5 1 0.567496 0.185786 0.5
19 1 0.6126 0.158523 0.5
56 3 0.652188 0.182604 0.5
63 4 0.985291 0.1935 0.5
71 4 0.0486841 0.233061 0.5
29 2 0.374313 0.231832 0.5
43 3 0.572831 0.246248 0.5
8 1 0.850339 0.253713 0.5
38 2 0.691335 0.275648 0.5
6 1 0.956285 0.265739 0.5
54 3 0.194344 0.334146 0.5
12 1 0.46786 0.318652 0.5
47 3 0.0796902 0.405846 0.5
73 4 0.592254 0.402567 0.5
39 2 0.84009 0.385931 0.5
26 2 0.562997 0.449738 0.5
53 3 0.615623 0.465222 0.5
64 4 0.769348 0.438803 0.5
11 1 0.0894589 0.500922 0.5
50 3 0.2413 0.525468 0.5
27 2 0.393951 0.504015 0.5
14 1 0.512545 0.48577 0.5
2 1 0.927037 0.518314 0.5
48 3 0.336407 0.582191 0.5
52 3 0.330726 0.533548 0.5
79 4 0.581693 0.533486 0.5
41 3 0.79143 0.557704 0.5
37 2 0.104573 0.590359 0.5
21 2 0.48813 0.615153 0.5
28 2 0.469302 0.573146 0.5
7 1 0.672049 0.612467 0.5
61 4 0.0904428 0.67479 0.5
59 3 0.118672 0.648476 0.5
68 4 0.727326 0.634636 0.5
16 1 0.0175384 0.681405 0.5
17 1 0.955272 0.616949 0.5
65 4 0.956833 0.665416 0.5
42 3 0.449085 0.695731 0.5
20 1 0.604482 0.70475 0.5
80 4 0.649242 0.729237 0.5
25 2 0.766392 0.698279 0.5
60 3 0.961253 0.708883 0.5
46 3 0.0750096 0.745955 0.5
24 2 0.390354 0.752856 0.5
74 4 0.554328 0.798892 0.5
66 4 0.597251 0.797964 0.5
32 2 0.850588 0.825791 0.5
10 1 0.0545966 0.849609 0.5
49 3 0.271313 0.870494 0.5
13 1 0.461466 0.865928 0.5
15 1 0.948575 0.889719 0.5
51 3 0.994468 0.849953 0.5
30 2 0.0833584 0.924417 0.5
44 3 0.258513 0.914933 0.5
72 4 0.769676 0.940513 0.5
67 4 0.178435 0.958598 0.5
45 3 0.408698 0.9572 0.5
1 1 0.643614 0.943514 0.5
4 1 0.876007 0.947376 0.5
75 4 0.841876 0.962434 0.5
22 2 0.943514 0.959817 0.5
ITEM: TIMESTEP
80
ITEM: NUMBER OF ATOMS
80
ITEM: BOX BOUNDS pp pp pp
-6.2863631511272660e+00 6.2863631511272660e+00
-6.2863631511272660e+00 6.2863631511272660e+00
-1.0000000000000001e-01 1.0000000000000001e-01
ITEM: ATOMS id type xs ys zs
40 2 0.0316118 0.0417076 0.5
36 2 0.533305 0.00431165 0.5
57 3 0.587253 0.00313101 0.5
31 2 0.641201 0.0178709 0.5
77 4 0.750284 0.0241381 0.5
33 2 0.966071 0.036931 0.5
3 1 0.39463 0.0489387 0.5
18 1 0.440928 0.11047 0.5
70 4 0.497948 0.092339 0.5
62 4 0.304266 0.14106 0.5
69 4 0.771097 0.149625 0.5
23 2 0.830096 0.108724 0.5
78 4 0.0968749 0.176362 0.5
35 2 0.213963 0.223253 0.5
58 3 0.240822 0.18488 0.5
34 2 0.275967 0.16294 0.5
9 1 0.382932 0.149428 0.5
76 4 0.356493 0.183552 0.5
55 3 0.457313 0.183602 0.5
5 1 0.560979 0.186782 0.5
19 1 0.613885 0.154201 0.5
56 3 0.657682 0.183973 0.5
63 4 0.985383 0.193275 0.5
71 4 0.0486841 0.233061 0.5
29 2 0.374442 0.235703 0.5
43 3 0.572569 0.248205 0.5
8 1 0.84994 0.253668 0.5
38 2 0.691335 0.275648 0.5
6 1 0.956593 0.26601 0.5
54 3 0.194344 0.334146 0.5
12 1 0.46786 0.318652 0.5
47 3 0.079683 0.405775 0.5
73 4 0.592565 0.402066 0.5
39 2 0.84009 0.385931 0.5
26 2 0.563807 0.448094 0.5
53 3 0.617143 0.465574 0.5
64 4 0.769348 0.438803 0.5
11 1 0.0893747 0.500452 0.5
50 3 0.2413 0.525468 0.5
27 2 0.394447 0.503762 0.5
14 1 0.509908 0.487336 0.5
2 1 0.926954 0.518025 0.5
48 3 0.336578 0.58383 0.5
52 3 0.330054 0.532158 0.5
79 4 0.581773 0.533543 0.5
41 3 0.79143 0.557704 0.5
37 2 0.104423 0.589729 0.5
21 2 0.489895 0.619088 0.5
28 2 0.467463 0.569376 0.5
7 1 0.670718 0.611766 0.5
61 4 0.0894653 0.675943 0.5
59 3 0.120076 0.648478 0.5
68 4 0.728735 0.635179 0.5
16 1 0.0238672 0.682638 0.5
17 1 0.953174 0.610876 0.5
65 4 0.954758 0.666621 0.5
42 3 0.449171 0.695651 0.5
20 1 0.602128 0.703641 0.5
80 4 0.6515 0.730478 0.5
25 2 0.766409 0.698307 0.5
60 3 0.958875 0.71269 0.5
46 3 0.0751307 0.746087 0.5
24 2 0.390265 0.752943 0.5
74 4 0.553982 0.7989 0.5
66 4 0.597598 0.797956 0.5
32 2 0.850588 0.825791 0.5
10 1 0.056638 0.84841 0.5
49 3 0.271869 0.868562 0.5
13 1 0.461466 0.865928 0.5
15 1 0.948171 0.88798 0.5
51 3 0.99334 0.848951 0.5
30 2 0.0838319 0.925521 0.5
44 3 0.257957 0.916866 0.5
72 4 0.769676 0.940513 0.5
67 4 0.178435 0.958598 0.5
45 3 0.408705 0.957144 0.5
1 1 0.644439 0.940431 0.5
4 1 0.876905 0.946311 0.5
75 4 0.83842 0.963839 0.5
22 2 0.944968 0.961968 0.5
ITEM: TIMESTEP
90
ITEM: NUMBER OF ATOMS
80
ITEM: BOX BOUNDS pp pp pp
-6.2499073845021735e+00 6.2499073845021735e+00
-6.2499073845021735e+00 6.2499073845021735e+00
-1.0000000000000001e-01 1.0000000000000001e-01
ITEM: ATOMS id type xs ys zs
40 2 0.0344276 0.0419355 0.5
36 2 0.531416 0.00436307 0.5
57 3 0.586045 0.00336178 0.5
31 2 0.643358 0.0210922 0.5
77 4 0.750284 0.0241381 0.5
33 2 0.963426 0.037225 0.5
3 1 0.392459 0.045461 0.5
18 1 0.44322 0.111761 0.5
70 4 0.499131 0.0920441 0.5
62 4 0.305878 0.139552 0.5
69 4 0.77097 0.149713 0.5
23 2 0.830224 0.108636 0.5
78 4 0.0968749 0.176362 0.5
35 2 0.210537 0.227348 0.5
58 3 0.240292 0.183848 0.5
34 2 0.277897 0.161351 0.5
9 1 0.384703 0.144297 0.5
76 4 0.352801 0.185988 0.5
55 3 0.458148 0.184635 0.5
5 1 0.553852 0.187759 0.5
19 1 0.615295 0.149349 0.5
56 3 0.663628 0.185565 0.5
63 4 0.985509 0.19296 0.5
71 4 0.0486841 0.233061 0.5
29 2 0.374608 0.24001 0.5
43 3 0.572349 0.250488 0.5
8 1 0.849396 0.253607 0.5
38 2 0.691335 0.275648 0.5
6 1 0.957009 0.266386 0.5
54 3 0.194344 0.334146 0.5
12 1 0.46786 0.318652 0.5
47 3 0.0796698 0.405647 0.5
73 4 0.592975 0.401407 0.5
39 2 0.84009 0.385931 0.5
26 2 0.564582 0.44629 0.5
53 3 0.618927 0.46601 0.5
64 4 0.769348 0.438803 0.5
11 1 0.0892661 0.499861 0.5
50 3 0.2413 0.525468 0.5
27 2 0.395059 0.503422 0.5
14 1 0.506983 0.48897 0.5
2 1 0.926811 0.517525 0.5
48 3 0.336776 0.585692 0.5
52 3 0.329211 0.530609 0.5
79 4 0.581888 0.533624 0.5
41 3 0.79143 0.557704 0.5
37 2 0.104244 0.58905 0.5
21 2 0.49185 0.623386 0.5
28 2 0.465399 0.565385 0.5
7 1 0.669226 0.610905 0.5
61 4 0.0885065 0.677224 0.5
59 3 0.121712 0.648558 0.5
68 4 0.730338 0.635772 0.5
16 1 0.0305143 0.683871 0.5
17 1 0.950954 0.604487 0.5
65 4 0.952494 0.667919 0.5
42 3 0.449289 0.695553 0.5
20 1 0.599459 0.702462 0.5
80 4 0.65402 0.731861 0.5
25 2 0.766447 0.69837 0.5
60 3 0.956262 0.716833 0.5
46 3 0.0753488 0.746339 0.5
24 2 0.390128 0.753076 0.5
74 4 0.553545 0.798909 0.5
66 4 0.598035 0.797947 0.5
32 2 0.850586 0.82579 0.5
10 1 0.0589981 0.846939 0.5
49 3 0.272494 0.866394 0.5
13 1 0.461466 0.865928 0.5
15 1 0.947657 0.885993 0.5
51 3 0.99214 0.847733 0.5
30 2 0.0843924 0.926866 0.5
44 3 0.257332 0.919033 0.5
72 4 0.769676 0.940513 0.5
67 4 0.178435 0.958598 0.5
45 3 0.408723 0.957015 0.5
1 1 0.645379 0.936927 0.5
4 1 0.877638 0.945167 0.5
75 4 0.834581 0.965413 0.5
22 2 0.946699 0.964349 0.5
ITEM: TIMESTEP
100
ITEM: NUMBER OF ATOMS
80
ITEM: BOX BOUNDS pp pp pp
-6.2599722311976329e+00 6.2599722311976329e+00
-6.2599722311976329e+00 6.2599722311976329e+00
-1.0000000000000001e-01 1.0000000000000001e-01
ITEM: ATOMS id type xs ys zs
40 2 0.0374791 0.0421792 0.5
36 2 0.529263 0.0044194 0.5
57 3 0.584812 0.00360014 0.5
31 2 0.645728 0.0246086 0.5
77 4 0.750284 0.0241381 0.5
33 2 0.96059 0.0377005 0.5
3 1 0.390092 0.0416253 0.5
18 1 0.445821 0.112971 0.5
70 4 0.50053 0.0916732 0.5
62 4 0.307649 0.137844 0.5
69 4 0.770798 0.149832 0.5
23 2 0.830396 0.108516 0.5
78 4 0.0968749 0.176362 0.5
35 2 0.206899 0.231728 0.5
58 3 0.239629 0.182759 0.5
34 2 0.279863 0.159733 0.5
9 1 0.3863 0.139125 0.5
76 4 0.348882 0.188515 0.5
55 3 0.459092 0.185936 0.5
5 1 0.546354 0.188691 0.5
19 1 0.616794 0.144096 0.5
56 3 0.669838 0.187342 0.5
63 4 0.985669 0.192559 0.5
71 4 0.0486841 0.233061 0.5
29 2 0.374817 0.244607 0.5
43 3 0.572203 0.253034 0.5
8 1 0.848718 0.253529 0.5
38 2 0.691336 0.275648 0.5
6 1 0.957528 0.266865 0.5
54 3 0.194344 0.334146 0.5
12 1 0.46786 0.318652 0.5
47 3 0.0796501 0.405454 0.5
73 4 0.593484 0.400588 0.5
39 2 0.84009 0.385931 0.5
26 2 0.565286 0.444374 0.5
53 3 0.620938 0.466527 0.5
64 4 0.769348 0.438803 0.5
11 1 0.0891345 0.499157 0.5
50 3 0.2413 0.525468 0.5
27 2 0.395731 0.502982 0.5
14 1 0.503891 0.490597 0.5
2 1 0.926599 0.516775 0.5
48 3 0.336998 0.587726 0.5
52 3 0.328211 0.528943 0.5
79 4 0.582032 0.533721 0.5
41 3 0.79143 0.557704 0.5
37 2 0.104035 0.588343 0.5
21 2 0.493957 0.627904 0.5
28 2 0.46317 0.561347 0.5
7 1 0.667617 0.609905 0.5
61 4 0.0876478 0.678591 0.5
59 3 0.123576 0.648712 0.5
68 4 0.732086 0.636388 0.5
16 1 0.0371121 0.685029 0.5
17 1 0.948713 0.598051 0.5
65 4 0.950134 0.669272 0.5
42 3 0.449426 0.695457 0.5
20 1 0.596545 0.701251 0.5
80 4 0.656731 0.733348 0.5
25 2 0.766512 0.698479 0.5
60 3 0.953505 0.721185 0.5
46 3 0.0756778 0.746728 0.5
24 2 0.389944 0.753255 0.5
74 4 0.553028 0.798921 0.5
66 4 0.598552 0.797936 0.5
32 2 0.850575 0.825783 0.5
10 1 0.0616175 0.845241 0.5
49 3 0.273168 0.864052 0.5
13 1 0.461466 0.865928 0.5
15 1 0.947043 0.88381 0.5
51 3 0.990916 0.846311 0.5
30 2 0.0850218 0.928427 0.5
44 3 0.256658 0.921375 0.5
72 4 0.769676 0.940513 0.5
67 4 0.178435 0.958598 0.5
45 3 0.408759 0.956791 0.5
1 1 0.646395 0.933116 0.5
4 1 0.878166 0.943969 0.5
75 4 0.830451 0.967124 0.5
22 2 0.948682 0.966883 0.5
ITEM: TIMESTEP
110
ITEM: NUMBER OF ATOMS
80
ITEM: BOX BOUNDS pp pp pp
-6.2976113400480545e+00 6.2976113400480545e+00
-6.2976113400480545e+00 6.2976113400480545e+00
-1.0000000000000001e-01 1.0000000000000001e-01
ITEM: ATOMS id type xs ys zs
40 2 0.0406879 0.0424316 0.5
36 2 0.52688 0.00447892 0.5
57 3 0.583613 0.00382445 0.5
31 2 0.648254 0.0283224 0.5
77 4 0.750284 0.0241381 0.5
33 2 0.957631 0.0383768 0.5
3 1 0.387571 0.0375281 0.5
18 1 0.448687 0.114073 0.5
70 4 0.502128 0.0912234 0.5
62 4 0.309554 0.135961 0.5
69 4 0.770586 0.149979 0.5
23 2 0.830608 0.10837 0.5
78 4 0.0968749 0.176362 0.5
35 2 0.203155 0.236269 0.5
58 3 0.238826 0.181647 0.5
34 2 0.281773 0.158147 0.5
9 1 0.387655 0.134075 0.5
76 4 0.344853 0.191084 0.5
55 3 0.46005 0.187484 0.5
5 1 0.538701 0.189573 0.5
19 1 0.61835 0.138574 0.5
56 3 0.676184 0.189249 0.5
63 4 0.985858 0.192082 0.5
71 4 0.0486841 0.233061 0.5
29 2 0.375069 0.249344 0.5
43 3 0.572145 0.255777 0.5
8 1 0.847922 0.253437 0.5
38 2 0.691337 0.275655 0.5
6 1 0.958135 0.267433 0.5
54 3 0.194344 0.334146 0.5
12 1 0.46786 0.318652 0.5
47 3 0.079624 0.405198 0.5
73 4 0.594093 0.399618 0.5
39 2 0.84009 0.385931 0.5
26 2 0.565891 0.442393 0.5
53 3 0.623135 0.46712 0.5
64 4 0.769348 0.438803 0.5
11 1 0.088982 0.498353 0.5
50 3 0.2413 0.525468 0.5
27 2 0.396398 0.502438 0.5
14 1 0.500761 0.492155 0.5
2 1 0.92631 0.515743 0.5
48 3 0.337239 0.589882 0.5
52 3 0.327074 0.527201 0.5
79 4 0.582189 0.533826 0.5
41 3 0.79143 0.557704 0.5
37 2 0.103796 0.587629 0.5
21 2 0.496174 0.632511 0.5
28 2 0.460831 0.557421 0.5
7 1 0.665931 0.60879 0.5
61 4 0.0869621 0.680005 0.5
59 3 0.125658 0.648931 0.5
68 4 0.73393 0.637004 0.5
16 1 0.0433303 0.686051 0.5
17 1 0.946544 0.591793 0.5
65 4 0.947763 0.670641 0.5
42 3 0.449563 0.695382 0.5
20 1 0.593463 0.700038 0.5
80 4 0.659561 0.734897 0.5
25 2 0.766606 0.698641 0.5
60 3 0.950699 0.725644 0.5
46 3 0.0761201 0.747264 0.5
24 2 0.389718 0.753475 0.5
74 4 0.552444 0.798933 0.5
66 4 0.599136 0.797923 0.5
32 2 0.850545 0.825764 0.5
10 1 0.064427 0.843375 0.5
49 3 0.273875 0.861597 0.5
13 1 0.461466 0.865928 0.5
15 1 0.946353 0.881489 0.5
51 3 0.989716 0.844699 0.5
30 2 0.0857004 0.930167 0.5
44 3 0.255951 0.92383 0.5
72 4 0.769676 0.940513 0.5
67 4 0.178435 0.958598 0.5
45 3 0.40882 0.956456 0.5
1 1 0.647451 0.929118 0.5
4 1 0.878472 0.94274 0.5
75 4 0.826117 0.968936 0.5
22 2 0.950887 0.969492 0.5
ITEM: TIMESTEP
120
ITEM: NUMBER OF ATOMS
80
ITEM: BOX BOUNDS pp pp pp
-6.3407294075983680e+00 6.3407294075983680e+00
-6.3407294075983680e+00 6.3407294075983680e+00
-1.0000000000000001e-01 1.0000000000000001e-01
ITEM: ATOMS id type xs ys zs
40 2 0.0439896 0.0426873 0.5
36 2 0.524294 0.00454038 0.5
57 3 0.582503 0.00401513 0.5
31 2 0.65089 0.0321356 0.5
77 4 0.750284 0.0241381 0.5
33 2 0.954598 0.0392678 0.5
3 1 0.384927 0.0332519 0.5
18 1 0.451757 0.115033 0.5
70 4 0.503913 0.0906906 0.5
62 4 0.311577 0.133919 0.5
69 4 0.770341 0.150149 0.5
23 2 0.830853 0.1082 0.5
78 4 0.0968749 0.176362 0.5
35 2 0.199365 0.240898 0.5
58 3 0.237878 0.180539 0.5
34 2 0.283584 0.156614 0.5
9 1 0.388729 0.129251 0.5
76 4 0.340803 0.193671 0.5
55 3 0.46093 0.189256 0.5
5 1 0.531094 0.190432 0.5
19 1 0.619932 0.1329 0.5
56 3 0.682574 0.191224 0.5
63 4 0.98607 0.191542 0.5
71 4 0.0486841 0.233061 0.5
29 2 0.375358 0.254108 0.5
43 3 0.572176 0.258659 0.5
8 1 0.847029 0.253333 0.5
38 2 0.691343 0.275687 0.5
6 1 0.958816 0.268078 0.5
54 3 0.194344 0.334146 0.5
12 1 0.46786 0.318653 0.5
47 3 0.0795916 0.404881 0.5
73 4 0.594799 0.3985 0.5
39 2 0.84009 0.385931 0.5
26 2 0.56638 0.440384 0.5
53 3 0.625484 0.467784 0.5
64 4 0.769348 0.438803 0.5
11 1 0.0888107 0.49746 0.5
50 3 0.2413 0.525468 0.5