ITEM: TIMESTEP
250
ITEM: NUMBER OF ATOMS
58
ITEM: BOX BOUNDS pp pp pp
-4.7890478435475625e+00 4.7890478435475625e+00
-4.7853919452118809e+00 4.7853919452118809e+00
-1.0000000000000001e-01 1.0000000000000001e-01
ITEM: ATOMS id type xs ys zs
49 1 0.324771 0.0922197 0.499747
61 1 0.384001 0.122849 0.500124
66 1 0.523741 0.0555142 0.498988
67 1 0.523618 0.99117 0.500486
16 1 0.869205 0.0269864 0.499987
32 1 0.989595 0.101495 0.499988
1 1 0.165436 0.231938 0.499977
51 1 0.269678 0.180981 0.499838
63 1 0.352054 0.169594 0.499899
14 1 0.477486 0.16542 0.498855
28 1 0.77843 0.177885 0.499854
58 1 0.887773 0.160088 0.499795
48 1 0.377828 0.243813 0.499312
80 1 0.396649 0.322846 0.500141
76 1 0.443827 0.281504 0.498888
13 1 0.55912 0.292852 0.500304
27 1 0.703855 0.280429 0.500261
6 1 0.846567 0.290324 0.500019
12 1 0.135997 0.384478 0.500125
3 1 0.27793 0.350355 0.500226
72 1 0.394246 0.380281 0.500363
46 1 0.471092 0.38522 0.499756
23 1 0.652779 0.391153 0.501366
15 1 0.978422 0.362514 0.499933
33 1 0.0432289 0.483547 0.501321
31 1 0.229438 0.476994 0.500516
19 1 0.377684 0.480349 0.501266
8 1 0.525573 0.488307 0.500168
2 1 0.670481 0.539623 0.500803
22 1 0.866678 0.455356 0.498327
57 1 0.803487 0.551565 0.500427
60 1 0.963959 0.546191 0.49972
52 1 0.192803 0.577026 0.500102
40 1 0.297121 0.588217 0.499478
17 1 0.437465 0.612932 0.499183
56 1 0.667172 0.660719 0.4992
68 1 0.755555 0.624988 0.500009
79 1 0.881432 0.558594 0.499927
41 1 0.940991 0.62867 0.499715
26 1 0.230576 0.682603 0.499924
35 1 0.339969 0.719028 0.499837
24 1 0.467344 0.748611 0.500318
36 1 0.557464 0.624211 0.500672
29 1 0.76983 0.722647 0.499841
59 1 0.843246 0.637493 0.499571
43 1 0.994604 0.710777 0.50095
37 1 0.996157 0.825712 0.499836
20 1 0.517086 0.888818 0.500866
10 1 0.597215 0.762881 0.49974
38 1 0.708743 0.847468 0.500003
74 1 0.796617 0.822537 0.500792
21 1 0.898176 0.741966 0.499784
45 1 0.875551 0.845467 0.500797
7 1 0.0398476 0.960616 0.50047
11 1 0.420551 0.0161549 0.500853
5 1 0.634876 0.964732 0.500427
50 1 0.764427 0.949913 0.49982
47 1 0.926532 0.92378 0.499551
ITEM: TIMESTEP
500
ITEM: NUMBER OF ATOMS
58
ITEM: BOX BOUNDS pp pp pp
-4.7878505241153428e+00 4.7878505241153428e+00
-4.7892266252410458e+00 4.7892266252410458e+00
-1.0000000000000001e-01 1.0000000000000001e-01
ITEM: ATOMS id type xs ys zs
49 1 0.32471 0.0924702 0.501438
61 1 0.38387 0.123006 0.498785
66 1 0.523669 0.0560399 0.499453
67 1 0.523855 0.991756 0.501612
16 1 0.868864 0.0265621 0.50022
32 1 0.989758 0.100436 0.49969
1 1 0.166186 0.232706 0.500529
51 1 0.270054 0.181633 0.499794
63 1 0.352412 0.169997 0.498602
14 1 0.477685 0.166012 0.499723
28 1 0.778954 0.177898 0.499394
58 1 0.888129 0.15976 0.500956
48 1 0.37759 0.244362 0.499284
80 1 0.397324 0.323581 0.500843
76 1 0.443501 0.281548 0.498425
13 1 0.55921 0.293187 0.501919
27 1 0.703995 0.280758 0.500452
6 1 0.846969 0.28973 0.500299
12 1 0.136338 0.384742 0.500858
3 1 0.27845 0.351421 0.500463
72 1 0.393867 0.380946 0.500177
46 1 0.470476 0.385491 0.500532
23 1 0.652726 0.390788 0.500411
15 1 0.978661 0.364442 0.501847
33 1 0.0441923 0.485016 0.500009
31 1 0.229658 0.476822 0.500041
19 1 0.376924 0.48102 0.502502
8 1 0.524415 0.489047 0.500195
2 1 0.669991 0.539662 0.500043
22 1 0.866303 0.455568 0.499999
57 1 0.80299 0.551919 0.499308
60 1 0.963772 0.546943 0.499229
52 1 0.192644 0.576941 0.500602
40 1 0.296879 0.587809 0.49967
17 1 0.436982 0.613486 0.499708
56 1 0.666844 0.660444 0.49833
68 1 0.755496 0.625586 0.5014
79 1 0.880971 0.558703 0.498432
41 1 0.94054 0.629557 0.496825
26 1 0.230886 0.681696 0.500974
35 1 0.3399 0.719381 0.500438
24 1 0.46749 0.74948 0.499004
36 1 0.557196 0.624435 0.500376
29 1 0.769726 0.722795 0.500612
59 1 0.842836 0.63774 0.49953
43 1 0.995024 0.711423 0.501826
37 1 0.99569 0.826334 0.503091
20 1 0.516324 0.889403 0.50111
10 1 0.597168 0.763166 0.496543
38 1 0.708857 0.846479 0.500707
74 1 0.796899 0.822943 0.502382
21 1 0.897906 0.742241 0.500078
45 1 0.875752 0.845499 0.499958
7 1 0.041017 0.960448 0.500326
11 1 0.421472 0.0169525 0.500813
5 1 0.635447 0.964696 0.499365
50 1 0.764768 0.948853 0.500975
47 1 0.927111 0.92414 0.498603
ITEM: TIMESTEP
750
ITEM: NUMBER OF ATOMS
58
ITEM: BOX BOUNDS pp pp pp
-4.7866532046831232e+00 4.7866532046831232e+00
-4.7882044753024013e+00 4.7882044753024013e+00
-1.0000000000000001e-01 1.0000000000000001e-01
ITEM: ATOMS id type xs ys zs
49 1 0.326362 0.0924741 0.502826
61 1 0.385995 0.123119 0.496428
66 1 0.523793 0.0565257 0.499654
67 1 0.525178 0.992299 0.500806
16 1 0.869122 0.0270506 0.500573
32 1 0.99034 0.100909 0.498768
1 1 0.166653 0.231285 0.501247
51 1 0.271268 0.180912 0.501943
63 1 0.353758 0.16964 0.498943
14 1 0.479112 0.166494 0.500983
28 1 0.779546 0.177786 0.498994
58 1 0.888222 0.16002 0.500844
48 1 0.378183 0.243865 0.499064
80 1 0.396867 0.322958 0.502039
76 1 0.443847 0.281767 0.498453
13 1 0.559394 0.294018 0.502424
27 1 0.704196 0.280023 0.501077
6 1 0.846339 0.291182 0.500504
12 1 0.136065 0.383888 0.500558
3 1 0.278084 0.350132 0.50233
72 1 0.393789 0.380374 0.49874
46 1 0.470356 0.386026 0.501279
23 1 0.653942 0.390778 0.500771
15 1 0.978379 0.363818 0.50281
33 1 0.043588 0.484291 0.4984
31 1 0.229923 0.477416 0.500984
19 1 0.378159 0.48143 0.50236
8 1 0.525952 0.488363 0.500898
2 1 0.670348 0.539793 0.502476
22 1 0.866603 0.455904 0.498898
57 1 0.802935 0.552427 0.499856
60 1 0.964345 0.547078 0.499539
52 1 0.193486 0.577028 0.500165
40 1 0.297822 0.589123 0.500189
17 1 0.438045 0.613968 0.501172
56 1 0.666787 0.660297 0.498488
68 1 0.755269 0.625106 0.500181
79 1 0.881275 0.55885 0.500486
41 1 0.940572 0.629313 0.496152
26 1 0.230934 0.682605 0.498217
35 1 0.340226 0.720619 0.498755
24 1 0.467706 0.750183 0.499692
36 1 0.557087 0.624813 0.499912
29 1 0.769411 0.722563 0.501243
59 1 0.842496 0.637837 0.498556
43 1 0.994363 0.711629 0.502617
37 1 0.995349 0.826147 0.502392
20 1 0.517346 0.890122 0.501801
10 1 0.597372 0.763737 0.495314
38 1 0.709222 0.846919 0.500302
74 1 0.797148 0.822221 0.500448
21 1 0.897386 0.742224 0.501723
45 1 0.875432 0.846438 0.500535
7 1 0.0406811 0.960407 0.499113
11 1 0.42186 0.0164836 0.501494
5 1 0.636154 0.965712 0.499819
50 1 0.765688 0.949204 0.501015
47 1 0.927224 0.924109 0.497954
ITEM: TIMESTEP
1000
ITEM: NUMBER OF ATOMS
58
ITEM: BOX BOUNDS pp pp pp
-4.7854558852509035e+00 4.7854558852509035e+00
-4.7893038693611860e+00 4.7893038693611860e+00
-1.0000000000000001e-01 1.0000000000000001e-01
ITEM: ATOMS id type xs ys zs
49 1 0.326592 0.091477 0.500421
61 1 0.385471 0.123121 0.494856
66 1 0.52497 0.0560988 0.499797
67 1 0.525676 0.99179 0.500506
16 1 0.869673 0.0275018 0.500254
32 1 0.991097 0.102257 0.497249
1 1 0.167526 0.231837 0.501829
51 1 0.270846 0.17935 0.503306
63 1 0.353642 0.169603 0.497594
14 1 0.478943 0.166337 0.501808
28 1 0.779658 0.177619 0.49664
58 1 0.889246 0.160468 0.505817
48 1 0.378572 0.244539 0.498551
80 1 0.397603 0.323704 0.503012
76 1 0.444476 0.282139 0.498058
13 1 0.559832 0.29403 0.502691
27 1 0.704523 0.27978 0.500818
6 1 0.84641 0.29049 0.501031
12 1 0.135968 0.383879 0.500789
3 1 0.278424 0.35074 0.500928
72 1 0.394835 0.38113 0.498987
46 1 0.471133 0.386206 0.500439
23 1 0.654265 0.390949 0.499552
15 1 0.978637 0.363472 0.503352
33 1 0.0436665 0.483675 0.498997
31 1 0.230037 0.476906 0.499784
19 1 0.377545 0.48122 0.501978
8 1 0.525097 0.489295 0.501163
2 1 0.670397 0.539912 0.502193
22 1 0.866503 0.455635 0.499152
57 1 0.80349 0.552246 0.499184
60 1 0.964282 0.546411 0.499216
52 1 0.192484 0.576324 0.499411
40 1 0.296929 0.588053 0.500567
17 1 0.437377 0.614115 0.502424
56 1 0.667224 0.660789 0.497084
68 1 0.756005 0.625429 0.50029
79 1 0.881571 0.559018 0.498097
41 1 0.942079 0.62914 0.496264
26 1 0.230918 0.681977 0.497117
35 1 0.340021 0.719571 0.499828
24 1 0.46721 0.750752 0.498161
36 1 0.55732 0.624516 0.500605
29 1 0.769511 0.72277 0.501891
59 1 0.843451 0.637841 0.500288
43 1 0.994026 0.712389 0.505307
37 1 0.994576 0.827108 0.503996
20 1 0.518469 0.889975 0.501937
10 1 0.596762 0.762664 0.496351
38 1 0.709177 0.846187 0.499529
74 1 0.797146 0.822246 0.502267
21 1 0.897388 0.74262 0.503902
45 1 0.875953 0.845426 0.498982
7 1 0.0404411 0.961551 0.498142
11 1 0.422538 0.0163168 0.500891
5 1 0.637421 0.964921 0.500628
50 1 0.76721 0.948011 0.501186
47 1 0.92644 0.924351 0.499521
ITEM: TIMESTEP
1250
ITEM: NUMBER OF ATOMS
58
ITEM: BOX BOUNDS pp pp pp
-4.7842585658186838e+00 4.7842585658186838e+00
-4.7922881361484260e+00 4.7922881361484260e+00
-1.0000000000000001e-01 1.0000000000000001e-01
ITEM: ATOMS id type xs ys zs
49 1 0.32661 0.0922998 0.501127
61 1 0.385858 0.122687 0.496506
66 1 0.525581 0.0559425 0.499818
67 1 0.52595 0.991723 0.500185
16 1 0.869552 0.0283257 0.498383
32 1 0.990427 0.102795 0.495053
1 1 0.166449 0.231321 0.500681
51 1 0.27105 0.180984 0.504238
63 1 0.353739 0.169446 0.496327
14 1 0.47947 0.165944 0.500507
28 1 0.779153 0.177828 0.49643
58 1 0.888761 0.161787 0.50569
48 1 0.379282 0.243884 0.498979
80 1 0.397112 0.323445 0.500954
76 1 0.444423 0.282418 0.497249
13 1 0.559596 0.29421 0.503143
27 1 0.704253 0.280431 0.499574
6 1 0.846634 0.289601 0.501463
12 1 0.135845 0.384039 0.499598
3 1 0.277338 0.349963 0.501293
72 1 0.393899 0.380817 0.499206
46 1 0.470657 0.385919 0.503018
23 1 0.654057 0.391286 0.499248
15 1 0.978752 0.361785 0.503541
33 1 0.0427688 0.482396 0.501852
31 1 0.229352 0.477179 0.499727
19 1 0.377254 0.480965 0.501353
8 1 0.524639 0.488841 0.500659
2 1 0.669902 0.539733 0.503326
22 1 0.867986 0.456471 0.497429
57 1 0.803837 0.552985 0.498821
60 1 0.964448 0.545889 0.498005
52 1 0.193257 0.577516 0.499629
40 1 0.297017 0.588608 0.500351
17 1 0.437224 0.613775 0.501787
56 1 0.667302 0.66018 0.498461
68 1 0.755747 0.625889 0.50128
79 1 0.881856 0.559849 0.498016
41 1 0.941534 0.628188 0.497255
26 1 0.2303 0.683506 0.496806
35 1 0.339692 0.719349 0.499611
24 1 0.467309 0.749551 0.498704
36 1 0.556968 0.623975 0.501696
29 1 0.769596 0.722902 0.501756
59 1 0.84314 0.638294 0.500783
43 1 0.993456 0.711883 0.507358
37 1 0.995122 0.827523 0.504111
20 1 0.518749 0.889151 0.503146
10 1 0.597101 0.762422 0.495909
38 1 0.708705 0.84604 0.499512
74 1 0.797097 0.822358 0.500663
21 1 0.897433 0.743096 0.50536
45 1 0.876005 0.845996 0.497196
7 1 0.0397981 0.961995 0.499506
11 1 0.423102 0.0166593 0.501043
5 1 0.637586 0.964931 0.500201
50 1 0.76745 0.947554 0.502534
47 1 0.92615 0.925067 0.497814
ITEM: TIMESTEP
1500
ITEM: NUMBER OF ATOMS
58
ITEM: BOX BOUNDS pp pp pp
-4.7830612463864641e+00 4.7830612463864641e+00
-4.7887345742272478e+00 4.7887345742272478e+00
-1.0000000000000001e-01 1.0000000000000001e-01
ITEM: ATOMS id type xs ys zs
49 1 0.326501 0.0923747 0.501294
61 1 0.38554 0.123208 0.496598
66 1 0.525636 0.0559511 0.498936
67 1 0.525488 0.99176 0.498386
16 1 0.868784 0.0279574 0.499038
32 1 0.989564 0.102696 0.494223
1 1 0.167239 0.231336 0.501511
51 1 0.271136 0.180075 0.506
63 1 0.353537 0.169671 0.498031
14 1 0.479463 0.166249 0.501288
28 1 0.778 0.176671 0.495295
58 1 0.887698 0.161197 0.506174
48 1 0.37921 0.243717 0.500438
80 1 0.396033 0.3234 0.501286
76 1 0.444016 0.282806 0.496837
13 1 0.559839 0.293899 0.504451
27 1 0.703581 0.279567 0.500319
6 1 0.84588 0.288337 0.502128
12 1 0.135736 0.384156 0.499823
3 1 0.277142 0.351184 0.50288
72 1 0.393801 0.380541 0.499086
46 1 0.470482 0.38537 0.501535
23 1 0.654415 0.391328 0.498189
15 1 0.978938 0.359612 0.502912
33 1 0.04187 0.481138 0.50277
31 1 0.229263 0.477544 0.500452
19 1 0.377091 0.481235 0.501801
8 1 0.52493 0.488802 0.498788
2 1 0.670886 0.540155 0.503942
22 1 0.869116 0.455539 0.495913
57 1 0.803962 0.55153 0.499322
60 1 0.964358 0.545987 0.499465
52 1 0.192061 0.577699 0.498619
40 1 0.296636 0.587897 0.501486
17 1 0.437099 0.613642 0.502676
56 1 0.666676 0.660208 0.498583
68 1 0.756335 0.624675 0.50079
79 1 0.881804 0.558601 0.498753
41 1 0.941649 0.628561 0.497545
26 1 0.230605 0.682633 0.496922
35 1 0.339696 0.719877 0.500295
24 1 0.46707 0.749287 0.499466
36 1 0.557108 0.623714 0.501683
29 1 0.768614 0.7217 0.500455
59 1 0.84365 0.637433 0.501552
43 1 0.993022 0.712167 0.507607
37 1 0.995451 0.827313 0.504641
20 1 0.519086 0.889072 0.503703
10 1 0.597309 0.762465 0.496941
38 1 0.709176 0.846215 0.498015
74 1 0.796855 0.821274 0.499666
21 1 0.897014 0.742939 0.505217
45 1 0.875095 0.846232 0.497261
7 1 0.0395742 0.962015 0.499167
11 1 0.423111 0.016715 0.501567
5 1 0.637048 0.966131 0.500439
50 1 0.76611 0.948447 0.504418
47 1 0.926243 0.924657 0.498026
ITEM: TIMESTEP
1750
ITEM: NUMBER OF ATOMS
58
ITEM: BOX BOUNDS pp pp pp
-4.7818639269542444e+00 4.7818639269542444e+00
-4.7920856590193148e+00 4.7920856590193148e+00
-1.0000000000000001e-01 1.0000000000000001e-01
ITEM: ATOMS id type xs ys zs
49 1 0.325817 0.0926344 0.502553
61 1 0.385134 0.123503 0.496459
66 1 0.525255 0.0562008 0.501416
67 1 0.524929 0.991941 0.49879
16 1 0.868872 0.0281158 0.498918
32 1 0.989376 0.101448 0.49465
1 1 0.166526 0.231855 0.499487
51 1 0.270744 0.181848 0.507539
63 1 0.353129 0.169884 0.496014
14 1 0.478909 0.166047 0.502745
28 1 0.778327 0.177109 0.495974
58 1 0.887787 0.161824 0.505168
48 1 0.37842 0.243972 0.501412
80 1 0.395715 0.323549 0.503434
76 1 0.443649 0.282507 0.497156
13 1 0.558666 0.294441 0.505181
27 1 0.703504 0.280949 0.501956
6 1 0.846034 0.289169 0.500802
12 1 0.136168 0.3839 0.499238
3 1 0.278652 0.350754 0.503813
72 1 0.394163 0.381148 0.499601
46 1 0.47057 0.387188 0.501171
23 1 0.653366 0.391884 0.499003
15 1 0.978769 0.359467 0.504198
33 1 0.0417006 0.480955 0.503495
31 1 0.229652 0.477504 0.500434
19 1 0.377317 0.481609 0.503731
8 1 0.525399 0.489682 0.499179
2 1 0.670024 0.54038 0.503633
22 1 0.8683 0.454915 0.497503
57 1 0.803795 0.550752 0.500609
60 1 0.964862 0.546429 0.497335
52 1 0.192558 0.577767 0.498529
40 1 0.296825 0.588584 0.501112
17 1 0.436951 0.614001 0.500239
56 1 0.666312 0.660836 0.498772
68 1 0.755857 0.62416 0.499445
79 1 0.881901 0.558376 0.499746
41 1 0.941941 0.628897 0.495759
26 1 0.229451 0.683317 0.497719
35 1 0.339309 0.719188 0.500153
24 1 0.467413 0.749451 0.498861
36 1 0.55686 0.62498 0.500032
29 1 0.770196 0.721575 0.500735
59 1 0.843941 0.636884 0.501031
43 1 0.993799 0.712291 0.508731
37 1 0.995447 0.827073 0.504951
20 1 0.517662 0.889507 0.503599
10 1 0.597183 0.763421 0.497106
38 1 0.709354 0.846363 0.49848
74 1 0.797834 0.820829 0.500404
21 1 0.897424 0.742342 0.505774
45 1 0.87643 0.846005 0.496199
7 1 0.040234 0.961654 0.499051
11 1 0.421974 0.0172149 0.502192
5 1 0.636382 0.964928 0.502527
50 1 0.76543 0.948941 0.504373
47 1 0.926561 0.925115 0.496941
ITEM: TIMESTEP
2000
ITEM: NUMBER OF ATOMS
58
ITEM: BOX BOUNDS pp pp pp
-4.7806666075220257e+00 4.7806666075220257e+00
-4.7901052571830887e+00 4.7901052571830887e+00
-1.0000000000000001e-01 1.0000000000000001e-01
ITEM: ATOMS id type xs ys zs
49 1 0.325395 0.0930024 0.502309
61 1 0.384482 0.122857 0.497157
66 1 0.524587 0.0558593 0.50112
67 1 0.52455 0.991708 0.499078
16 1 0.868799 0.0287159 0.499487
32 1 0.989691 0.103026 0.493446
1 1 0.166012 0.231947 0.499938
51 1 0.270869 0.181567 0.506851
63 1 0.353239 0.16994 0.496435
14 1 0.478728 0.165623 0.501908
28 1 0.777975 0.177582 0.495613
58 1 0.887738 0.162221 0.504829
48 1 0.378652 0.244097 0.502946
80 1 0.396137 0.32353 0.501624
76 1 0.443984 0.283131 0.496382
13 1 0.559122 0.293894 0.504269
27 1 0.7047 0.281655 0.503002
6 1 0.847164 0.288965 0.502266
12 1 0.136039 0.384371 0.497945
3 1 0.27819 0.350995 0.505136
72 1 0.393874 0.380743 0.501223
46 1 0.470526 0.386097 0.502872
23 1 0.653771 0.392178 0.49851
15 1 0.979553 0.36059 0.506018
33 1 0.042287 0.481977 0.501913
31 1 0.229191 0.478052 0.500246
19 1 0.377321 0.481257 0.504861
8 1 0.525307 0.488642 0.499002
2 1 0.67055 0.539964 0.503722
22 1 0.868331 0.455064 0.49674
57 1 0.804598 0.550852 0.500988
60 1 0.964837 0.546568 0.495594
52 1 0.192411 0.577444 0.498395
40 1 0.296835 0.588994 0.500092
17 1 0.437525 0.613571 0.501509
56 1 0.666481 0.660535 0.497851
68 1 0.756976 0.623414 0.498202
79 1 0.882287 0.557895 0.499608
41 1 0.942715 0.629783 0.495928
26 1 0.229973 0.682661 0.49623
35 1 0.339459 0.719103 0.500405
24 1 0.466936 0.749767 0.498455
36 1 0.557078 0.624099 0.50087
29 1 0.769903 0.720898 0.500444
59 1 0.844394 0.636644 0.500098
43 1 0.995349 0.712894 0.507273
37 1 0.994468 0.827999 0.505201
20 1 0.517936 0.889353 0.503373
10 1 0.597427 0.763262 0.495727
38 1 0.709599 0.847195 0.499705
74 1 0.797495 0.821307 0.50149
21 1 0.898164 0.74134 0.504463
45 1 0.876122 0.844468 0.496845
7 1 0.0386036 0.962397 0.496366
11 1 0.421777 0.0164179 0.50185
5 1 0.636361 0.965163 0.501811
50 1 0.766258 0.949255 0.502322
47 1 0.924626 0.924817 0.498153
ITEM: TIMESTEP
2250
ITEM: NUMBER OF ATOMS
58
ITEM: BOX BOUNDS pp pp pp
-4.7794692880898060e+00 4.7794692880898060e+00
-4.7977300058870487e+00 4.7977300058870487e+00
-1.0000000000000001e-01 1.0000000000000001e-01
ITEM: ATOMS id type xs ys zs
49 1 0.325281 0.0923004 0.502027
61 1 0.38439 0.122873 0.49715
66 1 0.523799 0.0558549 0.501766
67 1 0.524256 0.991676 0.499823
16 1 0.868372 0.0291733 0.497332
32 1 0.990019 0.103947 0.492958
1 1 0.166399 0.232784 0.499276
51 1 0.270696 0.181711 0.507173
63 1 0.352972 0.169736 0.496304
14 1 0.478112 0.16562 0.501034
28 1 0.777814 0.178968 0.495408
58 1 0.886978 0.161977 0.505914
48 1 0.378728 0.244062 0.501387
80 1 0.395011 0.323707 0.500804
76 1 0.443371 0.283464 0.496236
13 1 0.558515 0.29382 0.502786
27 1 0.703965 0.281601 0.503049
6 1 0.847464 0.289543 0.504324
12 1 0.136226 0.384757 0.498001
3 1 0.277703 0.35123 0.506816
72 1 0.393691 0.380889 0.500922
46 1 0.470294 0.386335 0.502258
23 1 0.652723 0.391583 0.49866
15 1 0.980529 0.360452 0.507664
33 1 0.0418845 0.482398 0.501803
31 1 0.229641 0.477734 0.500141
19 1 0.377303 0.481422 0.503486
8 1 0.52493 0.488551 0.499245
2 1 0.670613 0.539879 0.505671
22 1 0.86805 0.454536 0.497473
57 1 0.804343 0.55081 0.501765
60 1 0.965295 0.548217 0.495875
52 1 0.192348 0.57729 0.499215
40 1 0.297226 0.588768 0.498796
17 1 0.437559 0.613871 0.500639
56 1 0.667221 0.659942 0.498396
68 1 0.756331 0.624049 0.498521
79 1 0.882081 0.558232 0.500483
41 1 0.942294 0.630718 0.496491
26 1 0.230509 0.682643 0.494716
35 1 0.340071 0.719207 0.500821
24 1 0.467575 0.749605 0.497533
36 1 0.557417 0.62411 0.49855
29 1 0.770341 0.721645 0.502246
59 1 0.843642 0.636682 0.500315
43 1 0.995879 0.713114 0.507401
37 1 0.993493 0.828333 0.506324
20 1 0.517873 0.889128 0.503342
10 1 0.597713 0.762637 0.493375
38 1 0.709383 0.847153 0.498331
74 1 0.797341 0.82161 0.500903
21 1 0.898621 0.741452 0.504323
45 1 0.876119 0.844649 0.496085
7 1 0.0369875 0.963061 0.496178
11 1 0.421163 0.0157255 0.501989
5 1 0.635985 0.964755 0.504015
50 1 0.765865 0.949531 0.501963
47 1 0.923889 0.925406 0.497805
ITEM: TIMESTEP
2500
ITEM: NUMBER OF ATOMS
58
ITEM: BOX BOUNDS pp pp pp
-4.7782719686575863e+00 4.7782719686575863e+00
-4.7946767130856847e+00 4.7946767130856847e+00
-1.0000000000000001e-01 1.0000000000000001e-01
ITEM: ATOMS id type xs ys zs
49 1 0.325007 0.0932669 0.503132
61 1 0.384036 0.123883 0.496991
66 1 0.5238 0.0553749 0.5018
67 1 0.523628 0.991372 0.501331
16 1 0.869224 0.0280404 0.496635
32 1 0.989715 0.102965 0.492547
1 1 0.16585 0.23206 0.497586
51 1 0.269719 0.18108 0.509539
63 1 0.352241 0.170577 0.493847
14 1 0.478498 0.165543 0.500722
28 1 0.778158 0.177119 0.495027
58 1 0.886887 0.16179 0.50663
48 1 0.378418 0.243719 0.500411
80 1 0.39474 0.323611 0.500804
76 1 0.443024 0.283616 0.497031
13 1 0.559272 0.292981 0.504818
27 1 0.704238 0.280794 0.503248
6 1 0.846974 0.28845 0.504483
12 1 0.135525 0.3841 0.498657
3 1 0.27739 0.351187 0.506743
72 1 0.393368 0.38094 0.503341
46 1 0.470356 0.385358 0.501625
23 1 0.651659 0.391118 0.498301
15 1 0.979279 0.359642 0.506742
33 1 0.0417359 0.481701 0.50048
31 1 0.228467 0.477695 0.499609
19 1 0.377175 0.480962 0.50268
8 1 0.525526 0.488014 0.499101
2 1 0.670869 0.539709 0.506128
22 1 0.869756 0.455123 0.497503
57 1 0.804256 0.550497 0.500964
60 1 0.965347 0.547596 0.495755
52 1 0.192239 0.577427 0.497971
40 1 0.297509 0.588414 0.497463
17 1 0.437844 0.613142 0.5005
56 1 0.666816 0.659515 0.497052
68 1 0.756831 0.623577 0.499743
79 1 0.88204 0.557972 0.501239
41 1 0.94265 0.630098 0.494836
26 1 0.230236 0.68243 0.495678
35 1 0.340041 0.718446 0.502421
24 1 0.467196 0.749129 0.497212
36 1 0.557253 0.62331 0.498544
29 1 0.77045 0.720628 0.50285
59 1 0.844033 0.63644 0.49917
43 1 0.995772 0.712708 0.508113
37 1 0.994865 0.827685 0.507462
20 1 0.516977 0.888605 0.501994
10 1 0.597736 0.762569 0.492759
38 1 0.709396 0.847034 0.498066
74 1 0.79741 0.820422 0.500616
21 1 0.898818 0.740462 0.504502
45 1 0.87668 0.843306 0.494835
7 1 0.0371219 0.962242 0.496401
11 1 0.42056 0.0168523 0.501877
5 1 0.635394 0.963976 0.502991
50 1 0.764734 0.950363 0.499199
47 1 0.924057 0.924204 0.497407
ITEM: TIMESTEP
2750
ITEM: NUMBER OF ATOMS
58
ITEM: BOX BOUNDS pp pp pp
-4.7770746492253666e+00 4.7770746492253666e+00
-4.7993583810361171e+00 4.7993583810361171e+00
-1.0000000000000001e-01 1.0000000000000001e-01
ITEM: ATOMS id type xs ys zs
49 1 0.324785 0.0928112 0.504653
61 1 0.384356 0.123334 0.497327
66 1 0.523936 0.0545541 0.503159
67 1 0.522841 0.990273 0.50179
16 1 0.867745 0.0276787 0.497373
32 1 0.988881 0.102718 0.493315
1 1 0.165039 0.232282 0.497352
51 1 0.269429 0.18071 0.508799
63 1 0.352206 0.170008 0.494733
14 1 0.479291 0.164354 0.50099
28 1 0.776198 0.176808 0.495874
58 1 0.886118 0.161157 0.506531
48 1 0.379749 0.243446 0.499449
80 1 0.39372 0.323503 0.499043
76 1 0.443246 0.285068 0.497733
13 1 0.55871 0.29276 0.506989
27 1 0.703463 0.281074 0.503041
6 1 0.845948 0.288144 0.504644
12 1 0.135091 0.384208 0.498558
3 1 0.27755 0.350772 0.506547
72 1 0.393335 0.380671 0.50314
46 1 0.470012 0.385278 0.501144
23 1 0.652652 0.39145 0.496268
15 1 0.978708 0.360536 0.506517
33 1 0.0423242 0.481852 0.498843
31 1 0.229143 0.476776 0.49817
19 1 0.376829 0.480765 0.501437
8 1 0.525101 0.488685 0.499602
2 1 0.670565 0.540387 0.507053
22 1 0.868688 0.454767 0.498478
57 1 0.80463 0.550735 0.501013
60 1 0.966185 0.548011 0.495254
52 1 0.191486 0.576642 0.498578
40 1 0.296164 0.588391 0.49737
17 1 0.437157 0.612665 0.500918
56 1 0.66709 0.66073 0.495699
68 1 0.756851 0.624165 0.498982
79 1 0.882731 0.557832 0.501079
41 1 0.942556 0.63035 0.495101
26 1 0.22887 0.682522 0.494026
35 1 0.339511 0.717902 0.502651
24 1 0.466663 0.748685 0.498789
36 1 0.55733 0.624149 0.500192
29 1 0.770352 0.721283 0.502841
59 1 0.84431 0.636241 0.497924
43 1 0.995998 0.712616 0.508138
37 1 0.994864 0.827454 0.507385
20 1 0.515154 0.888075 0.500872
10 1 0.596972 0.763052 0.493458
38 1 0.708842 0.845811 0.498709
74 1 0.797046 0.820927 0.499018
21 1 0.898824 0.740958 0.504111
45 1 0.875976 0.843891 0.495204
7 1 0.0371058 0.962468 0.49707
11 1 0.420278 0.0165222 0.499447
5 1 0.63409 0.962583 0.501247
50 1 0.763661 0.949259 0.498965
47 1 0.924068 0.924063 0.49817
ITEM: TIMESTEP
3000
ITEM: NUMBER OF ATOMS
58
ITEM: BOX BOUNDS pp pp pp
-4.7758773297931469e+00 4.7758773297931469e+00
-4.7997104633035637e+00 4.7997104633035637e+00
-1.0000000000000001e-01 1.0000000000000001e-01
ITEM: ATOMS id type xs ys zs
49 1 0.325066 0.0934088 0.504194
61 1 0.384704 0.123711 0.499222
66 1 0.523745 0.0538423 0.502287
67 1 0.522348 0.990033 0.502661
16 1 0.867784 0.0275028 0.496711
32 1 0.987876 0.103002 0.4949
1 1 0.164827 0.232714 0.496679
51 1 0.269288 0.181729 0.509319
63 1 0.352074 0.170252 0.496242
14 1 0.479715 0.164696 0.499915
28 1 0.775253 0.176349 0.496165
58 1 0.884954 0.160817 0.506609
48 1 0.380631 0.242846 0.500148
80 1 0.392574 0.322797 0.49946
76 1 0.443227 0.285839 0.496498
13 1 0.559192 0.293893 0.506015
27 1 0.703793 0.281356 0.504063
6 1 0.845976 0.287115 0.506617
12 1 0.135031 0.384238 0.496835
3 1 0.276571 0.350387 0.50546
72 1 0.39431 0.38024 0.505395
46 1 0.471014 0.386207 0.502486
23 1 0.653378 0.391883 0.496206
15 1 0.977294 0.360512 0.506816
33 1 0.0412611 0.4809 0.498574
31 1 0.22851 0.4769 0.497316
19 1 0.376654 0.480042 0.501742
8 1 0.525169 0.48916 0.499597
2 1 0.67033 0.540082 0.504278
22 1 0.866483 0.454733 0.49841
57 1 0.803653 0.550779 0.50072
60 1 0.964778 0.546939 0.494643
52 1 0.191119 0.576824 0.499045
40 1 0.295779 0.58701 0.498865
17 1 0.436365 0.612806 0.502613
56 1 0.666563 0.659989 0.49411
68 1 0.756049 0.623692 0.499954
79 1 0.881621 0.557853 0.499982
41 1 0.942689 0.630029 0.495789
26 1 0.22965 0.681585 0.494632
35 1 0.339074 0.718971 0.502132
24 1 0.466756 0.748149 0.499058
36 1 0.556587 0.624619 0.499174
29 1 0.769987 0.721264 0.50174
59 1 0.843745 0.636671 0.498028
43 1 0.995997 0.712739 0.50716
37 1 0.994227 0.827597 0.506904
20 1 0.514552 0.887864 0.499722
10 1 0.597007 0.762653 0.493878
38 1 0.708659 0.846741 0.497348
74 1 0.796602 0.821495 0.498263
21 1 0.898615 0.740417 0.504166
45 1 0.875974 0.843031 0.495578
7 1 0.0371254 0.962748 0.497906
11 1 0.419877 0.0167361 0.498906
5 1 0.633842 0.962927 0.501202
50 1 0.763992 0.949632 0.498314
47 1 0.924317 0.923793 0.497211
ITEM: TIMESTEP
3250
ITEM: NUMBER OF ATOMS
58
ITEM: BOX BOUNDS pp pp pp
-4.7746800103609273e+00 4.7746800103609273e+00
-4.8042182251112253e+00 4.8042182251112253e+00
-1.0000000000000001e-01 1.0000000000000001e-01
ITEM: ATOMS id type xs ys zs
49 1 0.324218 0.0937161 0.502851
61 1 0.383956 0.124079 0.498116
66 1 0.523894 0.0538764 0.504069
67 1 0.52232 0.989818 0.502515
16 1 0.867853 0.027949 0.497219
32 1 0.988427 0.102608 0.494377
1 1 0.164429 0.232653 0.498454
51 1 0.269403 0.182455 0.511835
63 1 0.352047 0.170812 0.496926
14 1 0.479736 0.164045 0.498743
28 1 0.775369 0.176817 0.494955
58 1 0.885689 0.161162 0.507256
48 1 0.380865 0.243356 0.499718
80 1 0.389158 0.323587 0.500476
76 1 0.441657 0.288787 0.496628
13 1 0.557676 0.293441 0.505778
27 1 0.703188 0.282235 0.504841
6 1 0.845882 0.287124 0.50715
12 1 0.134507 0.38401 0.497868
3 1 0.276568 0.351044 0.505944
72 1 0.393533 0.380662 0.505043
46 1 0.470301 0.386815 0.500919
23 1 0.650633 0.392457 0.49717
15 1 0.977765 0.360645 0.506813
33 1 0.0413614 0.481877 0.497433
31 1 0.227583 0.477008 0.498507
19 1 0.376228 0.480551 0.502508
8 1 0.524025 0.489187 0.499065
2 1 0.669254 0.540355 0.504532
22 1 0.866575 0.45472 0.498286
57 1 0.803222 0.550778 0.499444
60 1 0.965305 0.548069 0.492723
52 1 0.191098 0.577146 0.500327
40 1 0.295955 0.587397 0.499426
17 1 0.435875 0.613615 0.503089
56 1 0.666705 0.660306 0.495329
68 1 0.755887 0.624163 0.499272
79 1 0.881406 0.557358 0.500177
41 1 0.942173 0.630569 0.495714
26 1 0.230205 0.681815 0.495266
35 1 0.339553 0.719893 0.503155
24 1 0.466557 0.748681 0.499622
36 1 0.556066 0.624359 0.500123
29 1 0.769754 0.721701 0.501884
59 1 0.8436 0.636658 0.499298
43 1 0.996058 0.712805 0.507778
37 1 0.993142 0.827815 0.507285
20 1 0.515919 0.887315 0.500606
10 1 0.597149 0.762631 0.494052
38 1 0.708666 0.846906 0.49563
74 1 0.796627 0.821482 0.498638
21 1 0.898543 0.741082 0.503083
45 1 0.875582 0.844236 0.495111
7 1 0.0372107 0.962234 0.498239
11 1 0.419597 0.0170654 0.497399
5 1 0.63423 0.963109 0.501975
50 1 0.764774 0.949595 0.497297
47 1 0.923596 0.924438 0.496785
ITEM: TIMESTEP
3500
ITEM: NUMBER OF ATOMS
58
ITEM: BOX BOUNDS pp pp pp
-4.7734826909287076e+00 4.7734826909287076e+00
-4.8027178833137532e+00 4.8027178833137532e+00
-1.0000000000000001e-01 1.0000000000000001e-01
ITEM: ATOMS id type xs ys zs
49 1 0.324629 0.0928833 0.502358
61 1 0.38446 0.123075 0.498902
66 1 0.523277 0.0532155 0.505385
67 1 0.521951 0.989057 0.501853
16 1 0.868268 0.0273234 0.496215
32 1 0.988906 0.102838 0.495725
1 1 0.165415 0.232103 0.496562
51 1 0.269329 0.180694 0.512036
63 1 0.352434 0.169874 0.496817
14 1 0.47916 0.163819 0.498832
28 1 0.776121 0.176707 0.496425
58 1 0.885306 0.160207 0.506916
48 1 0.379766 0.243225 0.499845
80 1 0.389109 0.324425 0.501007
76 1 0.440827 0.288794 0.498145
13 1 0.557805 0.293085 0.504373
27 1 0.702593 0.280994 0.506917
6 1 0.845658 0.287586 0.507016
12 1 0.135225 0.383889 0.497871
3 1 0.277395 0.350839 0.506129
72 1 0.393817 0.381776 0.505991
46 1 0.470582 0.387057 0.500764
23 1 0.651467 0.391407 0.495645
15 1 0.978358 0.3603 0.504085
33 1 0.0417304 0.481524 0.495833
31 1 0.228934 0.476622 0.498717
19 1 0.377285 0.481236 0.505621
8 1 0.525483 0.48996 0.498706
2 1 0.67029 0.540263 0.50376
22 1 0.867324 0.454667 0.49787
57 1 0.803947 0.551315 0.50091
60 1 0.965493 0.54814 0.492161
52 1 0.191793 0.576188 0.496777
40 1 0.296152 0.588086 0.499689
17 1 0.436372 0.613258 0.503039
56 1 0.666254 0.660082 0.49449
68 1 0.756109 0.624102 0.499094
79 1 0.882051 0.557811 0.499951
41 1 0.943148 0.630172 0.495467
26 1 0.228832 0.681911 0.493657
35 1 0.339033 0.718219 0.503628
24 1 0.466443 0.748196 0.499102
36 1 0.556853 0.624738 0.500783
29 1 0.769507 0.721288 0.503838
59 1 0.843955 0.636613 0.501346
43 1 0.995926 0.712565 0.507457
37 1 0.995007 0.827447 0.507824
20 1 0.515088 0.887583 0.499539
10 1 0.596961 0.762644 0.492944
38 1 0.70886 0.845933 0.497043
74 1 0.796894 0.820877 0.498016
21 1 0.898634 0.741139 0.499904
45 1 0.875983 0.84399 0.49607
7 1 0.0380333 0.962385 0.49713
11 1 0.419501 0.0164829 0.498216
5 1 0.633955 0.963268 0.501295
50 1 0.764129 0.949144 0.496586
47 1 0.924137 0.923507 0.498291
ITEM: TIMESTEP
3750
ITEM: NUMBER OF ATOMS
58
ITEM: BOX BOUNDS pp pp pp
-4.7722853714964879e+00 4.7722853714964879e+00
-4.8040351327523148e+00 4.8040351327523148e+00
-1.0000000000000001e-01 1.0000000000000001e-01
ITEM: ATOMS id type xs ys zs
49 1 0.324648 0.0922406 0.503037
61 1 0.384069 0.122498 0.499705
66 1 0.523603 0.0537162 0.504618
67 1 0.522416 0.989572 0.503678
16 1 0.867761 0.0266747 0.497101
32 1 0.987981 0.101328 0.494297
1 1 0.165933 0.231724 0.497217
51 1 0.269844 0.180375 0.512533
63 1 0.352653 0.169426 0.493908
14 1 0.47907 0.163765 0.499561
28 1 0.775508 0.177654 0.49567
58 1 0.885326 0.159903 0.505066
48 1 0.380341 0.24288 0.500058
80 1 0.388679 0.323442 0.499712
76 1 0.44144 0.28888 0.500264
13 1 0.557796 0.293519 0.504776
27 1 0.70341 0.282689 0.503884
6 1 0.847231 0.287471 0.507075
12 1 0.135125 0.383921 0.495388
3 1 0.277026 0.351184 0.505589
72 1 0.393172 0.380526 0.505996