LAMMPS (23 Jun 2022 - Update 4)
  using 1 OpenMP thread(s) per MPI task
# Compute elastic constant tensor for a crystal
#
# Written by Aidan Thompson (Sandia, athomps@sandia.gov)
#
#  This script uses the following three include files.
#
#   init.mod      (must be modified for different crystal structures)
# 	       	  Define units, deformation parameters and initial
#		  configuration of the atoms and simulation cell.
#
#
#   potential.mod    (must be modified for different pair styles)
# 		     Define pair style and other attributes
#		     not stored in restart file
#
#
#   displace.mod    (displace.mod should not need to be modified)
# 		    Perform positive and negative box displacements
# 		    in direction ${dir} and size ${up}.
# 		    It uses the resultant changes
#		    in stress to compute one
# 		    row of the elastic stiffness tensor
#
#		    Inputs variables:
#		    	   dir = the Voigt deformation component
#		    		    (1,2,3,4,5,6)
#		    Global constants:
#       	    	   up = the deformation magnitude (strain units)
#       		   cfac = conversion from LAMMPS pressure units to
#               	   output units for elastic constants
#
#
#  To run this on a different system, it should only be necessary to
#  modify the files init.mod and potential.mod. In order to calculate
#  the elastic constants correctly, care must be taken to specify
#  the correct units in init.mod (units, cfac and cunits). It is also
#  important to verify that the minimization of energy w.r.t atom
#  positions in the deformed cell is fully converged.
#  One indication of this is that the elastic constants are insensitive
#  to the choice of the variable ${up} in init.mod. Another is to check
#  the final max and two-norm forces reported in the log file. If you know
#  that minimization is not required, you can set maxiter = 0.0 in
#  init.mod.
#



variable dt equal 0.01
variable strain equal 0.05
variable srate equal 1e-4
variable M equal 1000 # averaging time for properties
variable strainsteps equal ${strain}/${dt}/${srate}
variable strainsteps equal 0.05/${dt}/${srate}
variable strainsteps equal 0.05/0.01/${srate}
variable strainsteps equal 0.05/0.01/0.0001


dimension 2
include init.mod
# NOTE: This script can be modified for different atomic structures,
# units, etc. See in.elastic for more info.
#

# Define the finite deformation size. Try several values of this
# variable to verify that results do not depend on it.
variable up equal 1.0e-1

# Define the amount of random jiggle for atoms
# This prevents atoms from staying on saddle points
variable atomjiggle equal 1.0e-6

# Uncomment one of these blocks, depending on what units
# you are using in LAMMPS and for output

# metal units, elastic constants in eV/A^3
#units		metal
#variable cfac equal 6.2414e-7
#variable cunits string eV/A^3

# Choose potential
# metal units, elastic constants in GPa
units		metal
atom_style	full
#pair_style      lj/cut 1.0
#pair_style      yukawa 1.0 2.0
#pair_modify     mix arithmetic
bond_style      harmonic
angle_style     harmonic
dihedral_style  zero
special_bonds   amber
variable cfac equal 1.0e-4
variable cunits string GPa
boundary	p p p

# Need to set mass to something, just to satisfy LAMMPS
#mass 1 1.0e-20
read_data network.lmp
Reading data file ...
  orthogonal box = (-4.789278 -4.789278 -0.1) to (4.789278 4.789278 0.1)
  1 by 1 by 1 MPI processor grid
WARNING: Atom style in data file differs from currently defined atom style (src/read_data.cpp:538)
  reading atoms ...
  58 atoms
WARNING: Bond style in data file differs from currently defined bond style (src/read_data.cpp:630)
  scanning bonds ...
  4 = max bonds/atom
  reading bonds ...
  122 bonds
Finding 1-2 1-3 1-4 neighbors ...
  special bond factors lj:    0        0        0.5     
  special bond factors coul:  0        0        0.8333333333333334
     7 = max # of 1-2 neighbors
    26 = max # of 1-3 neighbors
   122 = max # of 1-4 neighbors
    33 = max # of special neighbors
  special bonds CPU = 0.000 seconds
  read_data CPU = 0.003 seconds

# real units, elastic constants in GPa
#units		real
#variable cfac equal 1.01325e-4
#variable cunits string GPa

# Define minimization parameters
variable etol equal 0.0
variable ftol equal 5.0e-10
variable maxiter equal 100000
variable maxeval equal 20000
variable dmax equal 1.0e-2


include potential.mod
# NOTE: This script can be modified for different pair styles
# See in.elastic for more info.

# Setup neighbor style
neighbor 3.0 nsq
neigh_modify once no every 1 delay 0 check yes
comm_modify cutoff 2.0

# Setup minimization style
min_style	     cg
min_modify	     dmax ${dmax} line quadratic
min_modify	     dmax 0.01 line quadratic

timestep	0.001


# Setup output
thermo		500
thermo_style custom step temp pe ebond eangle edihed press pxx pyy pzz pxy pxz pyz lx ly lz vol
thermo_modify norm no


#change_box all triclinic
comm_modify mode single cutoff 10.0 vel yes
atom_modify sort 0 0



# Compute initial state

#dump rela all atom 1 traj_relax.lmpstrj
fix 3 all box/relax x 0 y 0 # xy 0  #MS comment: relax if the network is periodic
minimize ${etol} ${ftol} ${maxiter} ${maxeval}
minimize 0 ${ftol} ${maxiter} ${maxeval}
minimize 0 5e-10 ${maxiter} ${maxeval}
minimize 0 5e-10 100000 ${maxeval}
minimize 0 5e-10 100000 20000
Neighbor list info ...
  update every 1 steps, delay 0 steps, check yes
  max neighbors/atom: 2000, page size: 100000
  master list distance cutoff = 0
  ghost atom cutoff = 10
  0 neighbor lists, perpetual/occasional/extra = 0 0 0
WARNING: Inconsistent image flags (src/domain.cpp:819)
Per MPI rank memory allocation (min/avg/max) = 8.903 | 8.903 | 8.903 Mbytes
   Step          Temp          PotEng         E_bond        E_angle        E_dihed         Press           Pxx            Pyy            Pzz            Pxy            Pxz            Pyz             Lx             Ly             Lz           Volume    
         0   0              2.7034444e-11  2.7034444e-11  0              0              0.035487356    0.084187905   -0.013213194    0             -0.039393133    0              0              9.578556       9.578556       0.2            91.748735    
       202   0              1.9497149e-13  1.9497149e-13  0              0              2.2822528e-07  5.8951693e-07 -1.3306637e-07  0              9.7854904e-06  0              0              9.5785555      9.5785576      0.2            91.748745    
Loop time of 0.0106607 on 1 procs for 202 steps with 58 atoms

100.0% CPU use with 1 MPI tasks x 1 OpenMP threads

Minimization stats:
  Stopping criterion = force tolerance
  Energy initial, next-to-last, final = 
    2.70344439292686e-11 1.94971524583471e-13 1.94971492177105e-13
  Force two-norm initial, final = 1.9449577e-05 4.3898412e-10
  Force max component initial, final = 5.8421017e-06 1.5049031e-10
  Final line search alpha, max atom move = 1 1.5049031e-10
  Iterations, force evaluations = 202 404

MPI task timing breakdown:
Section |  min time  |  avg time  |  max time  |%varavg| %total
---------------------------------------------------------------
Pair    | 0          | 0          | 0          |   0.0 |  0.00
Bond    | 0.0014106  | 0.0014106  | 0.0014106  |   0.0 | 13.23
Neigh   | 0          | 0          | 0          |   0.0 |  0.00
Comm    | 0.003251   | 0.003251   | 0.003251   |   0.0 | 30.50
Output  | 0          | 0          | 0          |   0.0 |  0.00
Modify  | 0          | 0          | 0          |   0.0 |  0.00
Other   |            | 0.005999   |            |       | 56.27

Nlocal:             58 ave          58 max          58 min
Histogram: 1 0 0 0 0 0 0 0 0 0
Nghost:            501 ave         501 max         501 min
Histogram: 1 0 0 0 0 0 0 0 0 0
Neighs:              0 ave           0 max           0 min
Histogram: 1 0 0 0 0 0 0 0 0 0

Total # of neighbors = 0
Ave neighs/atom = 0
Ave special neighs/atom = 21.241379
Neighbor list builds = 0
Dangerous builds = 0
#dump rela all atom 1 traj_relax.lmpstrj
thermo 100
unfix 3

fix 2d all enforce2d



#dump dump0 all xyz 1000000 cfg0.xyz
#dump_modify dump0 format line "%d %20.10g %20.10g %20.10g"
#minimize ${etol} ${ftol} ${maxiter} ${maxeval}

#undump rela

#write_restart restart.equil

# These formulas define the derivatives w.r.t. strain components
# Constants uses $, variables use v_


timestep        ${dt}
timestep        0.01
variable nsteps equal round(${strainsteps})
variable nsteps equal round(50000)

fix             4 all nve
fix             5 all langevin 0.1 0.1 1 904297
#fix		6 all press/berendsen y  0.0 0.0 1 x 0.0 0.0 10
fix             6 all nph y 0.0 0.0 10 ptemp 0.1 # x 0.0 0.0 10

# For PLUMED2
# fix 22 all plumed plumedfile plumed.dat outfile plumed.out

#fix             6 all nph x 0.0 0.0 10
fix     	9 all deform 1 x erate -${srate} units box remap x
fix     	9 all deform 1 x erate -0.0001 units box remap x

#fix     8 all deform 1 xy erate ${srate} units box remap x



#fix    10 all ave/time

dump 1 all atom 250 deform_dump.lammpstrj


#To avoid flying ice cube phenomenon:
#fix 21 all momentum 100 linear 1 1 1 angular


run  ${nsteps}
run  50000
WARNING: One or more atoms are time integrated more than once (src/modify.cpp:292)
WARNING: Inconsistent image flags (src/domain.cpp:819)
Per MPI rank memory allocation (min/avg/max) = 7.778 | 7.778 | 7.778 Mbytes
   Step          Temp          PotEng         E_bond        E_angle        E_dihed         Press           Pxx            Pyy            Pzz            Pxy            Pxz            Pyz             Lx             Ly             Lz           Volume    
       202   0              1.9497149e-13  1.9497149e-13  0              0              2.2822528e-07  5.8951693e-07 -1.3306637e-07  0              9.7854904e-06  0              0              9.5785555      9.5785576      0.2            91.748745    
       300   0.19738988     0.0006532199   0.0006532199   0              0              176.39751      369.19701     -16.566039      0              371.5509       0              0              9.5776168      9.5707083      0.2            91.664576    
       400   0.2199623      0.00077112978  0.00077112978  0              0             -329.30134     -797.06647      138.28409      0             -96.464452      0              0              9.5766589      9.5762608      0.2            91.708584    
       500   0.23505702     0.00091236153  0.00091236153  0              0              338.31903      478.86056      197.58888      0              172.16833      0              0              9.575701       9.5784533      0.2            91.720405    
       600   0.19442201     0.00087670831  0.00087670831  0              0              647.54562      1000.9876      293.95002      0              5.4090199      0              0              9.5747432      9.5744814      0.2            91.673201    
       700   0.21576902     0.00098654492  0.00098654492  0              0              387.11328      383.96487      390.07631      0              181.64694      0              0              9.5737853      9.5743017      0.2            91.662309    
       800   0.22087468     0.00094939924  0.00094939924  0              0              865.06369      1291.3782      438.57577      0             -111.89209      0              0              9.5728275      9.5716219      0.2            91.627485    
       900   0.23434193     0.00091329283  0.00091329283  0              0              294.77261      168.13299      421.22682      0             -80.877719      0              0              9.5718696      9.5794051      0.2            91.692817    
      1000   0.20747426     0.00090671217  0.00090671217  0              0              471.71976      430.26288      513.0141       0             -569.11333      0              0              9.5709118      9.5786077      0.2            91.67601     
      1100   0.23933676     0.00079768257  0.00079768257  0              0              156.26426     -214.89467      527.25648      0             -256.48171      0              0              9.5699539      9.5777881      0.2            91.65899     
      1200   0.17404082     0.0010268447   0.0010268447   0              0              523.45985      543.09697      503.64109      0             -326.9446       0              0              9.5689961      9.5772963      0.2            91.645111    
      1300   0.21642131     0.00087321608  0.00087321608  0              0              603.15379      719.78774      486.33608      0              389.78283      0              0              9.5680382      9.5697342      0.2            91.563583    
      1400   0.19902578     0.00099645814  0.00099645814  0              0              761.62775      934.55235      588.56079      0             -509.99707      0              0              9.5670803      9.5681461      0.2            91.539222    
      1500   0.1752795      0.0011244405   0.0011244405   0              0              1470.3577      2236.0709      704.42585      0              224.21374      0              0              9.5661225      9.5774691      0.2            91.619243    
      1600   0.19402103     0.00098454828  0.00098454828  0              0              967.87541      1190.2098      745.3746       0              113.2807       0              0              9.5651646      9.5823005      0.2            91.656282    
      1700   0.24016904     0.00099623327  0.00099623327  0              0              1081.1196      1349.7487      812.33006      0              159.12359      0              0              9.5642068      9.5745651      0.2            91.57312     
      1800   0.20646848     0.0010251301   0.0010251301   0              0              1010.9839      1133.6124      888.17952      0              214.6239       0              0              9.5632489      9.5760012      0.2            91.577683    
      1900   0.22965714     0.00098486368  0.00098486368  0              0              1316.9828      1653.6348      980.17838      0              76.561713      0              0              9.5622911      9.5718757      0.2            91.529062    
      2000   0.21739738     0.00086225789  0.00086225789  0              0              1001.3749      923.27426      1079.3065      0             -185.88151      0              0              9.5613332      9.5802105      0.2            91.599585    
      2100   0.17387171     0.0011312898   0.0011312898   0              0              670.35184      155.34837      1185.1564      0              304.26775      0              0              9.5603754      9.5772533      0.2            91.562136    
      2200   0.19428382     0.0010000598   0.0010000598   0              0              1178.5377      1118.0251      1238.8655      0             -400.28274      0              0              9.5594175      9.5831289      0.2            91.60913     
      2300   0.18829581     0.00090962638  0.00090962638  0              0              926.79077      604.88763      1248.5354      0              111.71006      0              0              9.5584596      9.5795209      0.2            91.565464    
      2400   0.18834451     0.0010268904   0.0010268904   0              0              1210.3799      1127.8744      1292.6736      0              318.47801      0              0              9.5575018      9.5763898      0.2            91.526362    
      2500   0.20104094     0.0011156184   0.0011156184   0              0              1195.2303      1110.9265      1279.3568      0             -205.89227      0              0              9.5565439      9.5893534      0.2            91.641077    
      2600   0.21509229     0.00090900537  0.00090900537  0              0              1219.409       1298.6629      1139.9971      0             -207.02437      0              0              9.5555861      9.5883425      0.2            91.622232    
      2700   0.17378053     0.00092313194  0.00092313194  0              0              1128.9142      1232.98        1024.7022      0             -353.1069       0              0              9.5546282      9.5858253      0.2            91.588997    
      2800   0.19078152     0.00094224513  0.00094224513  0              0              1539.564       2060.4657      1018.4578      0              59.772184      0              0              9.5536704      9.5955957      0.2            91.673158    
      2900   0.21001782     0.00099212672  0.00099212672  0              0              840.48907      830.68474      850.12908      0             -137.98104      0              0              9.5527125      9.5978751      0.2            91.685741    
      3000   0.19550564     0.00098727856  0.00098727856  0              0              917.64339      1152.4862      682.6045       0             -74.073408      0              0              9.5517547      9.5994209      0.2            91.691314    
      3100   0.2164432      0.00096175903  0.00096175903  0              0              414.7189       292.48575      536.81471      0              81.176973      0              0              9.5507968      9.6012542      0.2            91.699628    
      3200   0.13301723     0.0009535136   0.0009535136   0              0              359.52759      329.53481      389.3662       0             -105.25981      0              0              9.5498389      9.6022173      0.2            91.699629    
      3300   0.19659228     0.00091652748  0.00091652748  0              0              497.0335       799.6034       194.32225      0              359.94278      0              0              9.5488811      9.6070717      0.2            91.736786    
      3400   0.17237521     0.0010741588   0.0010741588   0              0              85.938951      136.48546      35.225695      0              440.89321      0              0              9.5479232      9.6045557      0.2            91.703561    
      3500   0.23385904     0.0011299294   0.0011299294   0              0             -381.44883     -698.07631     -65.027662      0             -154.04748      0              0              9.5469654      9.6054358      0.2            91.702763    
      3600   0.24830451     0.00085286857  0.00085286857  0              0             -312.74192     -385.23675     -240.46741      0             -635.89481      0              0              9.5460075      9.6058636      0.2            91.697646    
      3700   0.18781876     0.00095829221  0.00095829221  0              0             -387.58909     -528.22709     -247.16215      0             -582.79751      0              0              9.5450497      9.607647       0.2            91.705468    
      3800   0.1926481      0.00099688105  0.00099688105  0              0             -217.57341     -185.84119     -249.46415      0             -155.02683      0              0              9.5440918      9.6133636      0.2            91.750825    
      3900   0.21880731     0.0010617228   0.0010617228   0              0              348.76806      1006.1833     -308.79751      0             -152.82872      0              0              9.543134       9.6189687      0.2            91.795107    
      4000   0.2160356      0.0009949082   0.0009949082   0              0             -106.63936      267.67414     -481.12948      0              166.11852      0              0              9.5421761      9.6205185      0.2            91.800682    
      4100   0.23598642     0.0010860223   0.0010860223   0              0              642.09192      1737.162      -453.14843      0             -748.55927      0              0              9.5412182      9.6209475      0.2            91.795559    
      4200   0.20278582     0.00094193594  0.00094193594  0              0             -63.513494      357.33161     -484.49242      0              119.70986      0              0              9.5402604      9.6166527      0.2            91.745371    
      4300   0.19474355     0.00099432376  0.00099432376  0              0              83.335021      758.70642     -592.19083      0              20.04425       0              0              9.5393025      9.6234285      0.2            91.800796    
      4400   0.24225851     0.0010751448   0.0010751448   0              0             -10.432974      687.17885     -708.25028      0             -595.47805      0              0              9.5383447      9.6168275      0.2            91.728615    
      4500   0.20650406     0.00085399913  0.00085399913  0              0             -317.15177      123.03294     -757.53839      0              45.707216      0              0              9.5373868      9.6064531      0.2            91.620459    
      4600   0.15891492     0.0011232388   0.0011232388   0              0             -335.61738      71.157837     -742.57181      0             -221.36344      0              0              9.536429       9.6121567      0.2            91.66565     
      4700   0.24064518     0.0010842129   0.0010842129   0              0             -903.60482     -1003.3412     -804.03684      0             -241.19772      0              0              9.5354711      9.61986        0.2            91.729897    
      4800   0.1590437      0.0010479951   0.0010479951   0              0             -805.88549     -751.54133     -860.40665      0              287.51233      0              0              9.5345133      9.6156903      0.2            91.680926    
      4900   0.19915612     0.001097195    0.001097195    0              0             -1207.858      -1547.457      -868.43259      0             -372.43044      0              0              9.5335554      9.6091939      0.2            91.609782    
      5000   0.21849358     0.0011496938   0.0011496938   0              0             -613.87242     -262.55676     -965.373        0             -180.78303      0              0              9.5325975      9.6086205      0.2            91.595112    
      5100   0.1903037      0.00091863829  0.00091863829  0              0             -711.9564      -485.52341     -938.58607      0             -676.39962      0              0              9.5316397      9.6136269      0.2            91.633627    
      5200   0.21581025     0.0012187271   0.0012187271   0              0             -831.07202     -785.18812     -877.11582      0             -209.78046      0              0              9.5306818      9.6195488      0.2            91.680859    
      5300   0.19666568     0.00091255639  0.00091255639  0              0             -1006.1203     -1155.8958     -856.50757      0             -12.298105      0              0              9.529724       9.6313728      0.2            91.784324    
      5400   0.21011244     0.00098592393  0.00098592393  0              0             -476.12445     -194.95773     -757.4648       0              142.7522       0              0              9.5287661      9.6249025      0.2            91.713445    
      5500   0.25254608     0.0010136227   0.0010136227   0              0             -596.61432     -345.56006     -847.86468      0             -203.58261      0              0              9.5278083      9.6209142      0.2            91.666226    
      5600   0.1916418      0.00095036976  0.00095036976  0              0             -751.06859     -607.6109      -894.7166       0             -157.42626      0              0              9.5268504      9.6247242      0.2            91.693307    
      5700   0.21036314     0.0010555803   0.0010555803   0              0             -1108.2495     -1324.7002     -891.97975      0             -310.34167      0              0              9.5258926      9.6272272      0.2            91.707932    
      5800   0.21855967     0.0010085507   0.0010085507   0              0             -982.48893     -1045.1093     -920.05455      0             -580.63433      0              0              9.5249347      9.6244066      0.2            91.671844    
      5900   0.25589725     0.00092651642  0.00092651642  0              0             -1205.4975     -1562.2058     -848.96818      0              4.2675807      0              0              9.5239768      9.6260145      0.2            91.677939    
      6000   0.21766431     0.00091045754  0.00091045754  0              0             -957.7887      -1040.6515     -875.07888      0             -201.79419      0              0              9.523019       9.6267724      0.2            91.675937    
      6100   0.24664953     0.00079140645  0.00079140645  0              0             -883.962       -831.41344     -936.72004      0              16.271605      0              0              9.5220611      9.6294429      0.2            91.692144    
      6200   0.20723578     0.00093415411  0.00093415411  0              0             -861.93762     -845.68963     -878.3654       0              140.3441       0              0              9.5211033      9.6248891      0.2            91.639563    
      6300   0.19945458     0.00088846775  0.00088846775  0              0             -770.69987     -716.36825     -825.21391      0              191.26669      0              0              9.5201454      9.6196479      0.2            91.580447    
      6400   0.19135062     0.0011026554   0.0011026554   0              0              7.4594747      666.08522     -651.31698      0              207.0666       0              0              9.5191876      9.625444       0.2            91.626407    
      6500   0.23215286     0.0011995281   0.0011995281   0              0              168.32012      930.68245     -594.20894      0              611.00268      0              0              9.5182297      9.6382816      0.2            91.739379    
      6600   0.22290439     0.0011195119   0.0011195119   0              0              471.83879      1431.9796     -488.44406      0              260.6915       0              0              9.5172719      9.6337397      0.2            91.68692     
      6700   0.20730758     0.00099616513  0.00099616513  0              0              35.420651      583.85535     -513.2568       0              391.47076      0              0              9.516314       9.6368498      0.2            91.707288    
      6800   0.20429858     0.00091533809  0.00091533809  0              0             -76.109493      341.04587     -493.43232      0             -176.34728      0              0              9.5153561      9.6324814      0.2            91.656491    
      6900   0.2080986      0.0009684091   0.0009684091   0              0             -53.271358      377.11056     -483.835        0              529.81875      0              0              9.5143983      9.635853       0.2            91.679344    
      7000   0.19232662     0.00086995119  0.00086995119  0              0             -260.74752     -3.6953708     -517.9636       0              594.7522       0              0              9.5134404      9.6394802      0.2            91.704621    
      7100   0.19724383     0.00093486581  0.00093486581  0              0             -104.38269      258.25377     -467.16823      0              184.86005      0              0              9.5124826      9.6379046      0.2            91.680399    
      7200   0.20195476     0.0011288298   0.0011288298   0              0             -381.90544     -327.14784     -436.84173      0              625.04722      0              0              9.5115247      9.6368527      0.2            91.661163    
      7300   0.19568805     0.00092930572  0.00092930572  0              0             -479.63455     -514.53514     -444.89366      0              482.73597      0              0              9.5105669      9.6480487      0.2            91.758412    
      7400   0.19408016     0.00086645586  0.00086645586  0              0             -286.62898     -189.7494      -383.67262      0              413.15517      0              0              9.509609       9.6461268      0.2            91.730895    
      7500   0.21997576     0.00087082783  0.00087082783  0              0             -207.96974      22.233378     -438.39238      0              497.85722      0              0              9.5086512      9.640464       0.2            91.667809    
      7600   0.21443976     0.0008094362   0.0008094362   0              0             -207.28333      17.245075     -431.98683      0              14.054817      0              0              9.5076933      9.6400858      0.2            91.654979    
      7700   0.21185562     0.001060535    0.001060535    0              0              155.03701      817.18902     -507.30658      0             -173.43948      0              0              9.5067354      9.6403404      0.2            91.648166    
      7800   0.20456995     0.0011683988   0.0011683988   0              0              307.96288      1119.4246     -503.63147      0              15.731793      0              0              9.5057776      9.6471523      0.2            91.703684    
      7900   0.15933423     0.0010383007   0.0010383007   0              0              159.5503       732.51804     -413.58992      0             -16.711783      0              0              9.5048197      9.6438694      0.2            91.66324     
      8000   0.18498346     0.0010232332   0.0010232332   0              0             -193.78063     -10.659858     -377.11768      0             -200.96533      0              0              9.5038619      9.6388962      0.2            91.606738    
      8100   0.19880695     0.0010266226   0.0010266226   0              0              101.25019      579.1364      -376.84928      0             -267.20027      0              0              9.502904       9.6439969      0.2            91.645977    
      8200   0.21455723     0.00081079437  0.00081079437  0              0             -256.82535     -158.96169     -354.84083      0              25.672703      0              0              9.5019462      9.6479868      0.2            91.674651    
      8300   0.23588855     0.0010889411   0.0010889411   0              0             -421.35002     -533.95793     -308.87576      0             -27.900149      0              0              9.5009883      9.6482616      0.2            91.668021    
      8400   0.22666684     0.00079792704  0.00079792704  0              0             -268.12673     -295.12249     -241.30688      0             -144.19088      0              0              9.5000305      9.6480234      0.2            91.656516    
      8500   0.1766003      0.00085657284  0.00085657284  0              0             -56.513307      105.22021     -218.46298      0             -257.31826      0              0              9.4990726      9.6419756      0.2            91.589826    
      8600   0.21424387     0.0010200583   0.0010200583   0              0             -62.216823      139.99313     -264.59919      0             -188.53804      0              0              9.4981147      9.6407403      0.2            91.568858    
      8700   0.21883646     0.00095937633  0.00095937633  0              0             -177.36029     -94.290536     -260.62048      0              54.016513      0              0              9.4971569      9.6353487      0.2            91.508418    
      8800   0.23445654     0.0010378291   0.0010378291   0              0              90.356847      405.92229     -225.39202      0              469.33353      0              0              9.496199       9.648179       0.2            91.621029    
      8900   0.20442463     0.00095303853  0.00095303853  0              0              509.0751       1218.8405     -200.88268      0              202.96586      0              0              9.4952412      9.644181       0.2            91.573825    
      9000   0.23620204     0.00077989715  0.00077989715  0              0              392.70019      920.99951     -135.78859      0             -410.85867      0              0              9.4942833      9.6429217      0.2            91.55263     
      9100   0.2118628      0.00081002894  0.00081002894  0              0              416.54381      852.95529     -20.061223      0             -237.05033      0              0              9.4933255      9.636866       0.2            91.485906    
      9200   0.20556442     0.00089288868  0.00089288868  0              0             -50.202324     -7.7993127     -92.757012      0             -396.07104      0              0              9.4923676      9.6324633      0.2            91.434883    
      9300   0.1655717      0.00064983763  0.00064983763  0              0              347.68152      772.82905     -77.630863      0             -321.38355      0              0              9.4914098      9.6330528      0.2            91.431251    
      9400   0.18951939     0.000650736    0.000650736    0              0              337.27631      591.44621      82.925746      0             -130.49906      0              0              9.4904519      9.6427369      0.2            91.513931    
      9500   0.19479659     0.00090806731  0.00090806731  0              0              933.50151      1802.2161      64.628203      0              227.81         0              0              9.489494       9.6396115      0.2            91.475036    
      9600   0.18440494     0.00094987143  0.00094987143  0              0              522.4849       890.29891      154.47476      0              47.85614       0              0              9.4885362      9.6452714      0.2            91.519507    
      9700   0.18031685     0.00093436785  0.00093436785  0              0              140.27893      22.613335      257.75998      0              449.96245      0              0              9.4875783      9.6422311      0.2            91.481423    
      9800   0.18594999     0.0012131535   0.0012131535   0              0              457.71724      612.29661      302.93324      0              477.47606      0              0              9.4866205      9.6348325      0.2            91.402       
      9900   0.25157761     0.0011409133   0.0011409133   0              0              626.28995      910.21033      342.17481      0              113.00878      0              0              9.4856626      9.6273577      0.2            91.321867    
     10000   0.25148665     0.00096449349  0.00096449349  0              0              194.51713      78.354917      310.47791      0             -167.01036      0              0              9.4847048      9.6243627      0.2            91.284239    
     10100   0.22781016     0.0011013141   0.0011013141   0              0              442.23758      586.08256      298.16128      0             -276.8997       0              0              9.4837469      9.6252271      0.2            91.283218    
     10200   0.21039095     0.00084823866  0.00084823866  0              0              160.06853      151.48534      168.49741      0              22.709276      0              0              9.4827891      9.6243065      0.2            91.265268    
     10300   0.16917036     0.0011310123   0.0011310123   0              0              252.45591      346.82483      157.90569      0             -507.21227      0              0              9.4818312      9.6265168      0.2            91.277007    
     10400   0.20554369     0.0010448114   0.0010448114   0              0              72.943598     -5.3672786      151.07495      0             -514.23726      0              0              9.4808733      9.6204288      0.2            91.210067    
     10500   0.22834275     0.001022948    0.001022948    0              0              116.02753      115.32671      116.51221      0             -549.13919      0              0              9.4799155      9.6252147      0.2            91.246222    
     10600   0.25695685     0.0012172018   0.0012172018   0              0              588.71359      1072.1139      105.14679      0             -950.56192      0              0              9.4789576      9.6320514      0.2            91.301807    
     10700   0.22795331     0.00091198594  0.00091198594  0              0              427.86488      712.56776      142.98132      0              233.54838      0              0              9.4779998      9.6299187      0.2            91.272367    
     10800   0.1949494      0.00083472807  0.00083472807  0              0              441.86999      889.71557     -6.1488541      0             -110.26892      0              0              9.4770419      9.6411543      0.2            91.369624    
     10900   0.22616268     0.00099202355  0.00099202355  0              0              474.16085      983.85079     -35.715614      0             -369.81836      0              0              9.4760841      9.6473089      0.2            91.41871     
     11000   0.1503822      0.001265301    0.001265301    0              0              500.09401      1139.1597     -139.12322      0             -644.47696      0              0              9.4751262      9.6451389      0.2            91.388908    
     11100   0.21150998     0.0010190709   0.0010190709   0              0             -135.24083     -75.826954     -194.83992      0             -904.48357      0              0              9.4741684      9.6430787      0.2            91.360151    
     11200   0.21631036     0.0012370447   0.0012370447   0              0              103.05447      411.32856     -205.39684      0             -856.91114      0              0              9.4732105      9.6329386      0.2            91.254855    
     11300   0.201381       0.0011821795   0.0011821795   0              0              395.10355      1065.8001     -275.76894      0             -1227.0831      0              0              9.4722526      9.6312172      0.2            91.229323    
     11400   0.19696297     0.00098592029  0.00098592029  0              0              200.08481      598.70822     -198.6984       0             -297.90047      0              0              9.4712948      9.6366931      0.2            91.271961    
     11500   0.18154186     0.0010836947   0.0010836947   0              0             -260.13765     -251.39945     -269.02525      0             -240.22927      0              0              9.4703369      9.6405451      0.2            91.299211    
     11600   0.22506065     0.0013366936   0.0013366936   0              0             -407.72951     -686.08276     -129.56046      0              131.40566      0              0              9.4693791      9.6388346      0.2            91.273778    
     11700   0.2623508      0.0010281917   0.0010281917   0              0             -171.18959     -324.65022     -17.903315      0             -19.188183      0              0              9.4684212      9.6372608      0.2            91.249645    
     11800   0.17428064     0.00088622551  0.00088622551  0              0             -227.3857      -509.70686      54.716777      0             -306.98135      0              0              9.4674634      9.6287028      0.2            91.159391    
     11900   0.17437403     0.00082385828  0.00082385828  0              0              119.54834      123.59912      115.27722      0             -332.69651      0              0              9.4665055      9.6244564      0.2            91.109969    
     12000   0.20634514     0.00087648897  0.00087648897  0              0             -21.08156      -195.88743      153.58103      0             -911.80433      0              0              9.4655477      9.6228389      0.2            91.085441    
     12100   0.27312994     0.001075662    0.001075662    0              0              345.09583      506.61303      183.41091      0             -420.04812      0              0              9.4645898      9.6263499      0.2            91.109453    
     12200   0.18329886     0.0010711562   0.0010711562   0              0              513.74019      791.90476      235.42133      0             -362.98034      0              0              9.4636319      9.6309006      0.2            91.143298    
     12300   0.20353802     0.0011412436   0.0011412436   0              0              284.90739      270.14911      299.48785      0             -614.24468      0              0              9.4626741      9.6255675      0.2            91.083608    
     12400   0.21546046     0.0012645954   0.0012645954   0              0              533.37196      671.71299      394.85176      0             -615.61128      0              0              9.4617162      9.628131       0.2            91.098643    
     12500   0.19253163     0.001087065    0.001087065    0              0              672.55852      991.27423      353.63631      0             -177.34996      0              0              9.4607584      9.6309063      0.2            91.115677    
     12600   0.23090087     0.00094221887  0.00094221887  0              0              541.20704      653.41873      428.79571      0             -795.79077      0              0              9.4598005      9.6307386      0.2            91.104866    
     12700   0.22184432     0.00095026733  0.00095026733  0              0              384.77968      270.37058      499.03412      0             -448.96538      0              0              9.4588427      9.6286029      0.2            91.07544     
     12800   0.22215366     0.0010288261   0.0010288261   0              0              382.50329      238.97489      525.8667       0             -987.96496      0              0              9.4578848      9.624864       0.2            91.030855    
     12900   0.20799001     0.0011502366   0.0011502366   0              0              500.74493      491.28026      510.03086      0             -979.184        0              0              9.456927       9.619674       0.2            90.972554    
     13000   0.20749009     0.0011996585   0.0011996585   0              0              390.91776      255.38353      526.27397      0             -333.17646      0              0              9.4559691      9.6249042      0.2            91.012797    
     13100   0.18392583     0.0013798777   0.0013798777   0              0              470.96733      461.47071      480.29758      0             -625.05518      0              0              9.4550112      9.6230115      0.2            90.985682    
     13200   0.17409153     0.0010253494   0.0010253494   0              0              41.736526     -296.79814      380.07803      0             -1156.8019      0              0              9.4540534      9.6175784      0.2            90.9251      
     13300   0.22935782     0.00093876155  0.00093876155  0              0              232.11796      266.28877      197.75979      0             -1058.138       0              0              9.4530955      9.6268565      0.2            91.003594    
     13400   0.1763688      0.0010026971   0.0010026971   0              0              140.60157      234.0292       47.027071      0             -220.76008      0              0              9.4521377      9.6347746      0.2            91.069216    
     13500   0.1871688      0.0011991927   0.0011991927   0              0             -15.756792      32.979785     -64.696858      0             -516.22958      0              0              9.4511798      9.6317748      0.2            91.031636    
     13600   0.19970657     0.0011191583   0.0011191583   0              0              513.78314      1199.933      -172.58364      0             -890.70057      0              0              9.450222       9.6297088      0.2            91.002885    
     13700   0.27766845     0.0010710526   0.0010710526   0              0              189.8345       730.10138     -350.60233      0             -400.62047      0              0              9.4492641      9.6222018      0.2            90.922726    
     13800   0.22486964     0.0009016427   0.0009016427   0              0             -34.061074      404.61538     -472.88763      0             -645.13234      0              0              9.4483063      9.6187016      0.2            90.880438    
     13900   0.19148862     0.0011503081   0.0011503081   0              0             -315.16418      67.008821     -697.52533      0             -654.28354      0              0              9.4473484      9.6313379      0.2            90.990605    
     14000   0.18118712     0.001165428    0.001165428    0              0             -124.25421      622.16861     -870.83406      0             -463.50199      0              0              9.4463905      9.6442988      0.2            91.103813    
     14100   0.179419       0.00099433402  0.00099433402  0              0             -261.98182      492.20104     -1016.3451      0             -263.07537      0              0              9.4454327      9.6417172      0.2            91.070191    
     14200   0.18981655     0.0011417912   0.0011417912   0              0             -295.56381      544.13567     -1135.4452      0             -598.12557      0              0              9.4444748      9.6377782      0.2            91.023754    
     14300   0.19401712     0.0012880024   0.0012880024   0              0             -418.7439       278.12079     -1115.7583      0             -431.18064      0              0              9.443517       9.6500308      0.2            91.13023     
     14400   0.17880764     0.0010638226   0.0010638226   0              0             -345.8718       253.98162     -945.90085      0             -298.995        0              0              9.4425591      9.648548       0.2            91.106985    
     14500   0.18713999     0.0011061984   0.0011061984   0              0             -429.46671     -77.273983     -781.8423       0             -1273.0982      0              0              9.4416013      9.6482139      0.2            91.094588    
     14600   0.24656886     0.00101093     0.00101093     0              0             -665.91948     -701.28572     -630.70761      0             -83.211324      0              0              9.4406434      9.6446139      0.2            91.051361    
     14700   0.22575466     0.00099954414  0.00099954414  0              0             -290.12004     -281.28202     -299.11891      0             -336.81736      0              0              9.4396856      9.6424812      0.2            91.021991    
     14800   0.17093264     0.0010693125   0.0010693125   0              0             -8.2891181     -65.728563      48.970147      0             -712.96817      0              0              9.4387277      9.6339211      0.2            90.931958    
     14900   0.16963559     0.0011056994   0.0011056994   0              0              291.57568      361.07381      221.87548      0             -352.24388      0              0              9.4377698      9.6315196      0.2            90.900065    
     15000   0.2136054      0.0013385993   0.0013385993   0              0              490.30988      746.37877      234.08818      0              268.11664      0              0              9.436812       9.6258772      0.2            90.837593    
     15100   0.16986248     0.0010982216   0.0010982216   0              0              247.08191      159.17762      334.8293       0             -285.17025      0              0              9.4358541      9.6391883      0.2            90.953975    
     15200   0.19492218     0.0013068576   0.0013068576   0              0              783.95943      1017.5691      550.17122      0             -171.12542      0              0              9.4348963      9.6379498      0.2            90.933057    
     15300   0.22066043     0.00100072     0.00100072     0              0              346.03861      26.012799      665.85583      0             -554.15017      0              0              9.4339384      9.6393683      0.2            90.937207    
     15400   0.22245937     0.00092093736  0.00092093736  0              0              371.98594      100.41865      643.37082      0             -924.85627      0              0              9.4329806      9.6428602      0.2            90.960913    
     15500   0.16985614     0.0011911145   0.0011911145   0              0              461.32117      350.02557      572.4545       0             -834.61579      0              0              9.4320227      9.6416651      0.2            90.940404    
     15600   0.16266856     0.001261202    0.001261202    0              0              838.93357      1144.5504      533.13047      0             -1428.0758      0              0              9.4310649      9.644669       0.2            90.959499    
     15700   0.2288815      0.00096620453  0.00096620453  0              0              1080.0472      1619.0114      540.93622      0             -797.93904      0              0              9.430107       9.630637       0.2            90.817937    
     15800   0.20045388     0.00101187     0.00101187     0              0              887.62009      1344.1676      430.85701      0             -599.72793      0              0              9.4291491      9.637431       0.2            90.872774    
     15900   0.18400711     0.001015017    0.001015017    0              0              862.19817      1362.7351      361.48622      0             -205.85624      0              0              9.4281913      9.6383437      0.2            90.872148    
     16000   0.19407225     0.0012620745   0.0012620745   0              0              1098.5751      1827.9182      369.07256      0             -995.87989      0              0              9.4272334      9.6447754      0.2            90.92355     
     16100   0.19032168     0.00085451299  0.00085451299  0              0              940.82175      1489.3953      392.06976      0             -922.34813      0              0              9.4262756      9.643553       0.2            90.902788    
     16200   0.23293711     0.0010739359   0.0010739359   0              0              1019.239       1820.5021      217.80409      0             -872.72804      0              0              9.4253177      9.6467699      0.2            90.923871    
     16300   0.17227212     0.00095419517  0.00095419517  0              0              720.47993      1349.9156      90.860592      0             -301.85128      0              0              9.4243599      9.6362981      0.2            90.815942    
     16400   0.20375527     0.0009461612   0.0009461612   0              0              765.18242      1481.9403      48.231856      0             -427.09461      0              0              9.423402       9.6412929      0.2            90.853778    
     16500   0.23625858     0.0010964546   0.0010964546   0              0              545.85852      1043.6308      47.893119      0             -225.14983      0              0              9.4224442      9.6421714      0.2            90.852822    
     16600   0.24093179     0.0010449468   0.0010449468   0              0              635.04383      1315.1243     -45.197468      0             -5.5105715      0              0              9.4214863      9.6407538      0.2            90.830229    
     16700   0.17090787     0.00100468     0.00100468     0              0              716.87076      1522.2838     -88.700287      0             -221.21071      0              0              9.4205284      9.6462889      0.2            90.873139    
     16800   0.16204259     0.0010076485   0.0010076485   0              0              201.67361      800.56679     -397.36931      0              15.762942      0              0              9.4195706      9.6512122      0.2            90.910275    
     16900   0.20168469     0.0011265156   0.0011265156   0              0              296.62691      1215.0039     -621.91339      0             -515.70696      0              0              9.4186127      9.6504106      0.2            90.89348     
     17000   0.2179119      0.001199298    0.001199298    0              0              501.54131      1669.9897     -667.06639      0              169.04824      0              0              9.4176549      9.6519962      0.2            90.899169    
     17100   0.2180779      0.0012963903   0.0012963903   0              0              728.51625      2079.6121     -622.79262      0             -201.27601      0              0              9.416697       9.6499473      0.2            90.87063     
     17200   0.23385321     0.0013655977   0.0013655977   0              0              575.40302      1694.4749     -543.8514       0             -249.61678      0              0              9.4157392      9.6494822      0.2            90.857008    
     17300   0.23594119     0.0011728521   0.0011728521   0              0              624.56084      1662.6434     -413.73191      0             -685.25424      0              0              9.4147813      9.649437       0.2            90.84734     
     17400   0.19326268     0.00107752     0.00107752     0              0              463.23309      1226.1421     -299.88911      0             -823.43947      0              0              9.4138235      9.6505054      0.2            90.848155    
     17500   0.23454069     0.0010822283   0.0010822283   0              0              185.32888      599.89197     -229.43058      0             -949.60597      0              0              9.4128656      9.6438745      0.2            90.776495    
     17600   0.2086997      0.00095844379  0.00095844379  0              0              72.65875       182.59656     -37.474797      0             -461.60608      0              0              9.4119077      9.6443674      0.2            90.771897    
     17700   0.26763558     0.00092781472  0.00092781472  0              0              260.97506      466.38305      55.370599      0             -191.03799      0              0              9.4109499      9.646437       0.2            90.782135    
     17800   0.16675019     0.0009173178   0.0009173178   0              0              63.190073     -49.967039      176.16375      0             -487.79103      0              0              9.409992       9.6404415      0.2            90.716478    
     17900   0.25391546     0.00093379057  0.00093379057  0              0             -243.63917     -790.65526      303.2083       0             -54.750563      0              0              9.4090342      9.6472897      0.2            90.771678    
     18000   0.20736287     0.0012908412   0.0012908412   0              0              399.66588      405.8686       393.27041      0             -714.57262      0              0              9.4080763      9.6458537      0.2            90.748928    
     18100   0.17400192     0.0011591489   0.0011591489   0              0              546.26314      660.87233      431.47333      0             -572.9654       0              0              9.4071185      9.6449749      0.2            90.731421    
     18200   0.19908138     0.00092976593  0.00092976593  0              0              444.64573      472.4295       416.69963      0             -515.56466      0              0              9.4061606      9.6368434      0.2            90.645697    
     18300   0.18496071     0.0012175124   0.0012175124   0              0              916.60919      1528.4149      304.63605      0             -100.20848      0              0              9.4052028      9.6347261      0.2            90.616552    
     18400   0.20829312     0.001277362    0.001277362    0              0              694.02037      1092.6018      295.26261      0             -181.19728      0              0              9.4042449      9.6403354      0.2            90.660075    
     18500   0.23770586     0.00092351898  0.00092351898  0              0              360.94976      711.31487      10.426158      0              43.754387      0              0              9.403287       9.644319       0.2            90.6883      
     18600   0.22170081     0.00099920948  0.00099920948  0              0              595.09272      1260.4662     -70.458004      0              360.23492      0              0              9.4023292      9.6349998      0.2            90.59144     
     18700   0.23621954     0.0012858305   0.0012858305   0              0              213.2923       595.52001     -169.10064      0              303.04025      0              0              9.4013713      9.6390202      0.2            90.620008    
     18800   0.22465846     0.0011593493   0.0011593493   0              0             -76.357053      167.92275     -320.84404      0             -683.37379      0              0              9.4004135      9.636707       0.2            90.58903     
     18900   0.17781685     0.0013011072   0.0013011072   0              0              222.96969      785.95399     -340.16345      0             -1514.4511      0              0              9.3994556      9.6292348      0.2            90.509566    
     19000   0.19556319     0.0012090842   0.0012090842   0              0              213.3241       763.23788     -336.75364      0             -576.69307      0              0              9.3984978      9.6354924      0.2            90.559154    
     19100   0.17870754     0.0011992168   0.0011992168   0              0             -67.052477      241.24545     -375.50978      0             -716.39906      0              0              9.3975399      9.6335884      0.2            90.532032    
     19200   0.21367855     0.00082319298  0.00082319298  0              0              279.07352      722.29093     -164.33123      0             -573.57799      0              0              9.3965821      9.6296042      0.2            90.485366    
     19300   0.18208967     0.0010138795   0.0010138795   0              0              407.61539      866.77265     -51.705016      0             -928.46351      0              0              9.3956242      9.6319131      0.2            90.497836    
     19400   0.1617166      0.0012260915   0.0012260915   0              0              590.15002      1243.0415     -62.917328      0             -294.44033      0              0              9.3946664      9.6360753      0.2            90.527712    
     19500   0.23042024     0.001014096    0.001014096    0              0              713.42861      1330.1898      96.502823      0             -88.700516      0              0              9.3937085      9.6257922      0.2            90.421886    
     19600   0.24103673     0.00113753     0.00113753     0              0              562.52839      1037.283       87.607753      0             -380.6966       0              0              9.3927506      9.6229905      0.2            90.38635     
     19700   0.21690907     0.0011360351   0.0011360351   0              0              455.2732       655.44773      254.95721      0             -67.946843      0              0              9.3917928      9.629849       0.2            90.441547    
     19800   0.20698632     0.0010584683   0.0010584683   0              0              450.66108      589.69034      311.43654      0             -96.423521      0              0              9.3908349      9.6408576      0.2            90.535702    
     19900   0.22464341     0.0012406133   0.0012406133   0              0              488.08935      555.35988      420.61578      0              121.98398      0              0              9.3898771      9.6355405      0.2            90.476541    
     20000   0.2146932      0.0012625454   0.0012625454   0              0             -47.50018      -411.82845      316.66814      0             -292.29405      0              0              9.3889192      9.6412624      0.2            90.521034    
     20100   0.21586292     0.0013906057   0.0013906057   0              0              471.39612      711.8327       230.79047      0              178.55221      0              0              9.3879614      9.6507127      0.2            90.600518    
     20200   0.2327778      0.0011950077   0.0011950077   0              0              618.82411      1221.4096      16.082337      0             -480.25683      0              0              9.3870035      9.653544       0.2            90.617851    
     20300   0.18447461     0.0010365257   0.0010365257   0              0              577.82562      1300.7093     -145.22688      0             -331.74175      0              0              9.3860457      9.6494172      0.2            90.569871    
     20400   0.20557426     0.00082178051  0.00082178051  0              0              480.83281      1139.2443     -177.72368      0             -507.63209      0              0              9.3850878      9.6455808      0.2            90.524623    
     20500   0.21753673     0.0010702843   0.0010702843   0              0              28.304533      257.00863     -200.57836      0             -223.61282      0              0              9.3841299      9.6445536      0.2            90.505744    
     20600   0.16934211     0.00099145512  0.00099145512  0              0             -42.594579      197.29316     -282.66675      0             -163.53404      0              0              9.3831721      9.6404481      0.2            90.457983    
     20700   0.25671581     0.0011452704   0.0011452704   0              0             -279.50341     -235.62952     -323.54299      0             -228.41681      0              0              9.3822142      9.6376242      0.2            90.422255    
     20800   0.25029688     0.00093054225  0.00093054225  0              0              191.93004      597.79477     -214.11667      0             -1049.032       0              0              9.3812564      9.6393262      0.2            90.428991    
     20900   0.27977274     0.0011241626   0.0011241626   0              0              32.524388      265.98866     -201.11947      0             -653.697        0              0              9.3802985      9.645621       0.2            90.478805    
     21000   0.21439714     0.0012251066   0.0012251066   0              0             -4.4365759      15.135935     -24.19162       0             -368.55396      0              0              9.3793407      9.6386707      0.2            90.404376    
     21100   0.2230556      0.0010820573   0.0010820573   0              0              443.54955      865.36916      21.559018      0             -342.0154       0              0              9.3783828      9.6384621      0.2            90.393187    
     21200   0.17565374     0.00091468165  0.00091468165  0              0              274.61143      255.72159      293.30424      0             -638.52808      0              0              9.377425       9.6282098      0.2            90.287815    
     21300   0.16736711     0.0011399061   0.0011399061   0              0              710.59803      947.6831       473.35935      0             -586.38856      0              0              9.3764671      9.6319703      0.2            90.313853    
     21400   0.21208109     0.0014174223   0.0014174223   0              0              762.58197      858.21745      666.7728       0             -471.30517      0              0              9.3755092      9.6389412      0.2            90.369982    
     21500   0.22177009     0.0011609116   0.0011609116   0              0              1340.9752      1905.8689      775.92637      0             -91.092669      0              0              9.3745514      9.6401469      0.2            90.372052    
     21600   0.22741041     0.0013085691   0.0013085691   0              0              489.58375      146.84038      832.13427      0              344.13715      0              0              9.3735935      9.6475108      0.2            90.431844    
     21700   0.19654584     0.00091854015  0.00091854015  0              0              832.75306      891.32719      773.97441      0              47.27344       0              0              9.3726357      9.6459408      0.2            90.407889    
     21800   0.22122917     0.00088271946  0.00088271946  0              0              392.65889      154.73716      630.40506      0              105.18256      0              0              9.3716778      9.6455572      0.2            90.395055    
     21900   0.20946175     0.0011381896   0.0011381896   0              0              494.29506      554.77896      433.64353      0              130.98459      0              0              9.37072        9.654498       0.2            90.469597    
     22000   0.21797071     0.0011804529   0.0011804529   0              0              305.0114       497.77725      112.03144      0             -109.11633      0              0              9.3697621      9.6550008      0.2            90.465061    
     22100   0.21155598     0.00095876663  0.00095876663  0              0             -356.50978     -356.86332     -356.36066      0             -199.67348      0              0              9.3688043      9.6600174      0.2            90.502812    
     22200   0.23520685     0.0010315564   0.0010315564   0              0              253.17785      1240.7401     -734.6007       0             -285.06508      0              0              9.3678464      9.6605463      0.2            90.498514    
     22300   0.20264391     0.0013074127   0.0013074127   0              0             -480.81693      228.50511     -1190.3462      0              409.42627      0              0              9.3668885      9.6589841      0.2            90.474627    
     22400   0.20516052     0.0012256413   0.0012256413   0              0             -236.00453      846.19594     -1318.4086      0             -266.48668      0              0              9.3659307      9.6616565      0.2            90.490405    
     22500   0.20272821     0.0013809833   0.0013809833   0              0             -779.80414     -79.847036     -1479.96        0             -518.415        0              0              9.3649728      9.6652173      0.2            90.514498    
     22600   0.2079318      0.0011643451   0.0011643451   0              0             -121.68595      1093.8571     -1337.392       0             -798.20834      0              0              9.364015       9.6639473      0.2            90.493347    
     22700   0.19876679     0.001026311    0.001026311    0              0             -264.99905      418.73174     -948.93356      0             -395.7891       0              0              9.3630571      9.6575615      0.2            90.4243      
     22800   0.18494806     0.00086206803  0.00086206803  0              0             -274.1299      -35.402356     -513.01006      0             -817.82572      0              0              9.3620993      9.6685319      0.2            90.517755    
     22900   0.18915301     0.00087330431  0.00087330431  0              0             -10.253524     -43.438896      22.769239      0             -462.72328      0              0              9.3611414      9.6502917      0.2            90.337745    
     23000   0.22677693     0.0010692705   0.0010692705   0              0              653.32327      705.69792      600.7772       0             -222.09236      0              0              9.3601836      9.6484369      0.2            90.311141    
     23100   0.19848534     0.0010748127   0.0010748127   0              0              601.12887      283.46798      918.60707      0              139.55446      0              0              9.3592257      9.6472148      0.2            90.29046     
     23200   0.23960105     0.0010969577   0.0010969577   0              0              1186.2872      1301.7969      1070.5904      0             -469.85412      0              0              9.3582678      9.6508197      0.2            90.314956    
     23300   0.19456033     0.0010259156   0.0010259156   0              0              1512.6526      1944.0285      1081.1132      0              152.4762       0              0              9.35731        9.6546285      0.2            90.341352    
     23400   0.22136257     0.00091113195  0.00091113195  0              0              830.03947      737.40644      922.51411      0             -613.2913       0              0              9.3563521      9.6592394      0.2            90.375246    
     23500   0.20614332     0.00087555449  0.00087555449  0              0              235.77099     -143.6929       615.0934       0             -18.711246      0              0              9.3553943      9.6636833      0.2            90.407567    
     23600   0.27082194     0.0010130823   0.0010130823   0              0              511.6313       761.03761      262.04733      0              420.42105      0              0              9.3544364      9.6648374      0.2            90.409107    
     23700   0.22760384     0.00094675624  0.00094675624  0              0             -49.901235     -39.353387     -60.652118      0             -1137.5965      0              0              9.3534786      9.6670806      0.2            90.420831    
     23800   0.21950523     0.00087410605  0.00087410605  0              0             -232.24275      69.639656     -534.26238      0             -187.34712      0              0              9.3525207      9.6701073      0.2            90.439879    
     23900   0.15915742     0.0010946796   0.0010946796   0              0             -315.95094      137.76096     -769.87792      0             -262.85419      0              0              9.3515629      9.6670105      0.2            90.401657    
     24000   0.26482833     0.001134099    0.001134099    0              0             -211.76351      465.65468     -889.33811      0             -462.56762      0              0              9.350605       9.6532957      0.2            90.264155    
     24100   0.25928577     0.00090304964  0.00090304964  0              0             -706.87977     -568.69736     -845.25588      0             -475.89273      0              0              9.3496471      9.6531167      0.2            90.253235    
     24200   0.21242352     0.00083607845  0.00083607845  0              0             -483.91845     -305.99285     -662.04351      0             -411.93842      0              0              9.3486893      9.6603564      0.2            90.31167     
     24300   0.22152205     0.0011232304   0.0011232304   0              0              337.71389      984.75455     -309.52131      0              340.12367      0              0              9.3477314      9.6527821      0.2            90.231614    
     24400   0.22365934     0.0011277539   0.0011277539   0              0              202.27502      344.05079      60.338623      0             -336.37136      0              0              9.3467736      9.6433293      0.2            90.134015    
     24500   0.22131383     0.00098116801  0.00098116801  0              0              667.91957      988.30597      347.36877      0             -109.45562      0              0              9.3458157      9.638254       0.2            90.077345    
     24600   0.20499096     0.0010099158   0.0010099158   0              0              514.84699      384.73399      644.80103      0             -97.973843      0              0              9.3448579      9.6466548      0.2            90.146618    
     24700   0.19058523     0.0013120508   0.0013120508   0              0              829.10225      977.22959      680.80131      0             -449.66274      0              0              9.3439         9.6562172      0.2            90.226728    
     24800   0.22811374     0.0010702374   0.0010702374   0              0              1048.2759      1370.251       726.12058      0              334.15707      0              0              9.3429422      9.6544785      0.2            90.201234    
     24900   0.2026347      0.00096453337  0.00096453337  0              0              369.90077      212.75974      526.88588      0              330.4293       0              0              9.3419843      9.6585157      0.2            90.229702    
     25000   0.20226628     0.00094790191  0.00094790191  0              0              853.79945      1413.4097      293.99689      0             -144.38862      0              0              9.3410264      9.6632118      0.2            90.264317    
     25100   0.21995126     0.001118781    0.001118781    0              0              52.187702      164.76441     -60.559648      0              346.17267      0              0              9.3400686      9.6676238      0.2            90.296269    
     25200   0.20067866     0.00099178339  0.00099178339  0              0             -217.05016     -253.99622     -180.25762      0              239.4886       0              0              9.3391107      9.6681682      0.2            90.292093    
     25300   0.18934983     0.00086199617  0.00086199617  0              0              43.624727      409.20813     -322.14281      0             -82.527336      0              0              9.3381529      9.6572461      0.2            90.18084     
     25400   0.17107292     0.0011626558   0.0011626558   0              0              82.206405      562.90678     -398.66065      0             -427.3907       0              0              9.337195       9.6624936      0.2            90.220587    
     25500   0.25181672     0.0010705976   0.0010705976   0              0              230.49218      864.47567     -403.63508      0             -203.36244      0              0              9.3362372      9.6647636      0.2            90.232525    
     25600   0.18417009     0.0011498142   0.0011498142   0              0              107.31657      655.01914     -440.57691      0             -281.89842      0              0              9.3352793      9.6654401      0.2            90.229583    
     25700   0.20621062     0.00094698219  0.00094698219  0              0             -474.43013     -612.97059     -336.09123      0             -526.14602      0              0              9.3343215      9.6677768      0.2            90.242136    
     25800   0.23130222     0.00094311671  0.00094311671  0              0             -149.66973     -232.68175     -66.811091      0             -484.69479      0              0              9.3333636      9.6696158      0.2            90.25004     
     25900   0.22274782     0.0013529885   0.0013529885   0              0              92.791907      66.776601      118.60153      0             -591.57295      0              0              9.3324057      9.6703627      0.2            90.247749    
     26000   0.2220922      0.0011956559   0.0011956559   0              0              90.558469     -92.464293      273.39119      0              750.56819      0              0              9.3314479      9.6618016      0.2            90.158598    
     26100   0.2083599      0.00094103606  0.00094103606  0              0              676.62274      1077.7379      275.34653      0              345.30281      0              0              9.33049        9.6574681      0.2            90.10891     
     26200   0.20711833     0.0011659983   0.0011659983   0              0              807.81031      1338.4958      276.93513      0              250.62753      0              0              9.3295322      9.6529868      0.2            90.057851    
     26300   0.21041392     0.0011153936   0.0011153936   0              0              348.00857      498.88378      196.96605      0              65.170012      0              0              9.3285743      9.662386       0.2            90.136286    
     26400   0.1870991      0.0010127962   0.0010127962   0              0              360.31468      564.59763      155.84881      0             -207.4253       0              0              9.3276165      9.6537788      0.2            90.046746    
     26500   0.20696404     0.00085535205  0.00085535205  0              0              376.74564      686.89529      66.402509      0              727.62829      0              0              9.3266586      9.6566475      0.2            90.064254    
     26600   0.18967987     0.0011819031   0.0011819031   0              0              57.861753      242.36078     -126.80996      0              236.53754      0              0              9.3257008      9.6669864      0.2            90.151423    
     26700   0.19375577     0.0010229102   0.0010229102   0              0              104.60035      561.33972     -352.30108      0             -343.21591      0              0              9.3247429      9.6700685      0.2            90.170903    
     26800   0.27318516     0.001008478    0.001008478    0              0             -755.12632     -1034.1211     -476.2953       0             -22.409432      0              0              9.323785       9.6774052      0.2            90.230046    
     26900   0.17860356     0.00088602994  0.00088602994  0              0             -372.51027     -235.2323      -509.95818      0             -344.34241      0              0              9.3228272      9.6727279      0.2            90.17717     
     27000   0.17100221     0.00083934801  0.00083934801  0              0             -960.39329     -1489.4046     -431.62071      0             -481.31275      0              0              9.3218693      9.6783868      0.2            90.220657    
     27100   0.2067214      0.00082757665  0.00082757665  0              0             -657.87657     -975.27075     -340.63693      0             -519.93425      0              0              9.3209115      9.6718321      0.2            90.15029     
     27200   0.21463771     0.00097469593  0.00097469593  0              0             -889.5505      -1595.3649     -183.91296      0             -386.0294       0              0              9.3199536      9.6687014      0.2            90.111848    
     27300   0.16396601     0.0012646905   0.0012646905   0              0             -48.274646     -219.67053      122.96043      0             -198.90213      0              0              9.3189958      9.6653975      0.2            90.071799    
     27400   0.24824842     0.00085411666  0.00085411666  0              0             -299.41927     -991.30519      392.2976       0              270.04437      0              0              9.3180379      9.670681       0.2            90.111772    
     27500   0.20348465     0.00095979944  0.00095979944  0              0              367.63917      168.28659      566.78066      0             -484.64825      0              0              9.3170801      9.6662666      0.2            90.06138     
     27600   0.20569476     0.00088716177  0.00088716177  0              0              448.32875      156.8243       739.62955      0              37.415306      0              0              9.3161222      9.6716355      0.2            90.102138    
     27700   0.20558909     0.00095486267  0.00095486267  0              0              714.76732      520.6781       908.63673      0             -163.3323       0              0              9.3151643      9.67306        0.2            90.106144    
     27800   0.18473262     0.0010049809   0.0010049809   0              0              511.12956      167.95989      854.13182      0              26.526579      0              0              9.3142065      9.6724727      0.2            90.091408    
     27900   0.18259639     0.00098491278  0.00098491278  0              0              612.33526      644.3529       580.16051      0             -438.99714      0              0              9.3132486      9.6643372      0.2            90.006375    
     28000   0.17840584     0.00081051512  0.00081051512  0              0              244.32832      243.07307      245.42141      0              59.861727      0              0              9.3122908      9.6669286      0.2            90.02125     
[...]
     43000   0.2324365      0.0009947666   0.0009947666   0              0              961.84812      798.54899      1124.9779      0             -144.42772      0              0              9.1686124      9.6754633      0.2            88.710573    
     43100   0.23046632     0.0010501611   0.0010501611   0              0              669.92009     -0.84087502     1340.473       0              58.064792      0              0              9.1676546      9.6837786      0.2            88.777537    
     43200   0.19853413     0.0010149678   0.0010149678   0              0              791.17035      362.65493      1219.5337      0             -232.98662      0              0              9.1666967      9.6848615      0.2            88.778188    
     43300   0.21763671     0.001046665    0.001046665    0              0              396.16722      104.75543      687.40716      0             -137.0938       0              0              9.1657389      9.6993046      0.2            88.901293    
     43400   0.19508172     0.0010832226   0.0010832226   0              0              170.71433      366.00367     -24.715825      0             -438.91942      0              0              9.164781       9.7030393      0.2            88.92623     
     43500   0.24238928     0.0011130941   0.0011130941   0              0             -812.41881     -447.33215     -1177.6914      0             -6.7995964      0              0              9.1638232      9.7009478      0.2            88.89777     
     43600   0.20886826     0.00088125838  0.00088125838  0              0             -1154.6704     -368.07745     -1941.4261      0              77.348653      0              0              9.1628653      9.6997582      0.2            88.877578    
     43700   0.19293306     0.0011166503   0.0011166503   0              0             -1269.0236     -238.21106     -2300.0137      0             -290.17065      0              0              9.1619075      9.6899301      0.2            88.778243    
     43800   0.19781618     0.0011222308   0.0011222308   0              0             -1242.9744     -468.42436     -2017.6892      0             -163.12108      0              0              9.1609496      9.6937104      0.2            88.803593    
     43900   0.17230998     0.0011226552   0.0011226552   0              0             -470.28015      293.49578     -1234.2082      0             -352.83855      0              0              9.1599917      9.6941366      0.2            88.798212    
     44000   0.21968281     0.00095907069  0.00095907069  0              0             -191.95132     -52.172935     -331.91995      0             -58.154017      0              0              9.1590339      9.6899861      0.2            88.750911    
     44100   0.2362349      0.00091414846  0.00091414846  0              0              608.48807      707.33841      509.47512      0             -71.387034      0              0              9.158076       9.6879672      0.2            88.72314     
     44200   0.19074125     0.00082943391  0.00082943391  0              0              1137.8824      1258.7904      1016.8025      0              205.70196      0              0              9.1571182      9.6902304      0.2            88.734585    
     44300   0.21070149     0.0011432815   0.0011432815   0              0              1407.369       1682.7731      1131.7744      0              494.18521      0              0              9.1561603      9.6918195      0.2            88.739853    
     44400   0.23428811     0.0011114859   0.0011114859   0              0              645.34416      222.80886      1067.7293      0             -785.70127      0              0              9.1552025      9.6864532      0.2            88.68144     
     44500   0.21590255     0.00084131815  0.00084131815  0              0              736.82808      716.19347      757.3111       0             -223.94169      0              0              9.1542446      9.6877         0.2            88.683576    
     44600   0.22078034     0.00083973978  0.00083973978  0              0              437.46407      553.18205      321.536        0              366.10179      0              0              9.1532868      9.7009265      0.2            88.795362    
     44700   0.21634329     0.0009168768   0.0009168768   0              0             -143.5598      -178.08562     -109.21102      0              547.91333      0              0              9.1523289      9.6995904      0.2            88.773841    
     44800   0.20339444     0.00079969258  0.00079969258  0              0              157.61157      750.67078     -435.62566      0             -468.17022      0              0              9.151371       9.694978       0.2            88.722341    
     44900   0.19891329     0.00079890496  0.00079890496  0              0             -252.271        197.47355     -702.18301      0              226.04747      0              0              9.1504132      9.6998554      0.2            88.757685    
     45000   0.20393162     0.0010033348   0.0010033348   0              0             -208.58804      427.88634     -845.2479       0              209.19496      0              0              9.1494553      9.6988725      0.2            88.739401    
     45100   0.19644145     0.001049516    0.001049516    0              0             -641.32128     -393.03962     -889.76608      0             -83.48517       0              0              9.1484975      9.7006359      0.2            88.746243    
     45200   0.20580125     0.0011063631   0.0011063631   0              0             -521.89623     -394.96901     -649.02127      0             -115.99768      0              0              9.1475396      9.7000065      0.2            88.731194    
     45300   0.19358478     0.00093597973  0.00093597973  0              0             -13.942296      276.51216     -304.587        0             -676.72289      0              0              9.1465818      9.7061505      0.2            88.7781      
     45400   0.23033033     0.00093112192  0.00093112192  0              0              203.81438      170.71174      236.7016       0             -150.9793       0              0              9.1456239      9.7027645      0.2            88.737835    
     45500   0.17770441     0.00093881728  0.00093881728  0              0              470.44968      368.34127      572.3989       0             -2.3018672      0              0              9.1446661      9.7017001      0.2            88.718808    
     45600   0.25030235     0.00099816512  0.00099816512  0              0              796.5552       947.16387      645.76239      0             -58.132256      0              0              9.1437082      9.700732       0.2            88.700663    
     45700   0.21621499     0.0011942552   0.0011942552   0              0              59.972326     -500.19473      619.97505      0              105.97127      0              0              9.1427503      9.7047259      0.2            88.727886    
     45800   0.24827809     0.0010652529   0.0010652529   0              0             -106.05587     -815.14906      602.87231      0             -65.158009      0              0              9.1417925      9.7032878      0.2            88.705444    
     45900   0.20891417     0.0011016161   0.0011016161   0              0              482.88178      659.80131      305.78214      0              24.527402      0              0              9.1408346      9.7047616      0.2            88.709621    
     46000   0.17649503     0.00097680465  0.00097680465  0              0              537.61776      1010.1908      64.859919      0             -37.407196      0              0              9.1398768      9.6958067      0.2            88.618478    
     46100   0.18270035     0.00094437341  0.00094437341  0              0              385.97712      999.58738     -227.85215      0              281.47731      0              0              9.1389189      9.7029243      0.2            88.674238    
     46200   0.21124029     0.0007796771   0.0007796771   0              0              53.923645      464.83162     -357.1823       0              347.13471      0              0              9.1379611      9.7044452      0.2            88.678842    
     46300   0.23142027     0.00092668278  0.00092668278  0              0              334.48724      1061.9868     -393.14611      0             -54.524876      0              0              9.1370032      9.706442       0.2            88.687792    
     46400   0.20733834     0.0010610345   0.0010610345   0              0              52.143474      445.40317     -341.33835      0              425.77372      0              0              9.1360454      9.7061807      0.2            88.676107    
     46500   0.19320168     0.0011854591   0.0011854591   0              0              27.919005      245.95769     -190.31763      0              18.051308      0              0              9.1350875      9.7056389      0.2            88.66186     
     46600   0.23125035     0.0009992935   0.0009992935   0              0              653.67059      1424.7179     -117.55786      0              37.585529      0              0              9.1341296      9.7096096      0.2            88.688833    
     46700   0.16644966     0.00098903228  0.00098903228  0              0             -152.94647     -305.90897     -0.18680795     0              100.03162      0              0              9.1331718      9.7087296      0.2            88.671495    
     46800   0.24294485     0.00074346644  0.00074346644  0              0              138.45656      57.886097      218.82914      0              35.070389      0              0              9.1322139      9.7001339      0.2            88.583698    
     46900   0.21917469     0.0011104305   0.0011104305   0              0              568.28904      750.5571       385.82997      0              545.06859      0              0              9.1312561      9.6974494      0.2            88.549894    
     47000   0.21582012     0.00086088766  0.00086088766  0              0              552.33231      630.68732      473.77571      0             -61.625315      0              0              9.1302982      9.7017514      0.2            88.579883    
     47100   0.20387214     0.00077469376  0.00077469376  0              0              656.84454      825.90499      487.59946      0             -337.29806      0              0              9.1293404      9.707223       0.2            88.620543    
     47200   0.15346026     0.00089542527  0.00089542527  0              0              721.1162       1090.9274      351.07076      0              136.89798      0              0              9.1283825      9.7067941      0.2            88.607329    
     47300   0.16583644     0.00078486496  0.00078486496  0              0              816.44683      1634.8885     -2.1202639      0             -92.759047      0              0              9.1274247      9.7109293      0.2            88.635776    
     47400   0.18651723     0.00082527003  0.00082527003  0              0              201.8703       582.53812     -178.95178      0              247.24616      0              0              9.1264668      9.7110251      0.2            88.627348    
     47500   0.22089373     0.00094695513  0.00094695513  0              0             -18.452744      362.64365     -399.7324       0             -193.97784      0              0              9.1255089      9.7052156      0.2            88.565032    
     47600   0.19977115     0.00073259399  0.00073259399  0              0             -468.73061     -529.62786     -408.01769      0             -394.95428      0              0              9.1245511      9.7090203      0.2            88.590451    
     47700   0.22901699     0.0008575181   0.0008575181   0              0             -428.69202     -528.1467      -329.40949      0             -213.98283      0              0              9.1235932      9.7069734      0.2            88.562476    
     47800   0.16294227     0.00077340988  0.00077340988  0              0             -348.5293      -347.37771     -349.86231      0             -205.15113      0              0              9.1226354      9.7024155      0.2            88.511599    
     47900   0.20123759     0.0011268225   0.0011268225   0              0             -420.65464     -654.15475     -187.35727      0              411.72098      0              0              9.1216775      9.6964349      0.2            88.447752    
     48000   0.20081418     0.0011728945   0.0011728945   0              0              577.31595      1119.5365      34.921755      0              805.99574      0              0              9.1207197      9.6945058      0.2            88.420869    
     48100   0.20293139     0.00089095561  0.00089095561  0              0              296.21195      443.38419      148.87267      0              95.760516      0              0              9.1197618      9.7082818      0.2            88.537218    
     48200   0.23784775     0.0007984857   0.0007984857   0              0              763.08078      1107.0768      418.88825      0              107.42345      0              0              9.118804       9.705257       0.2            88.500336    
     48300   0.20661509     0.00099653011  0.00099653011  0              0              353.56411      139.95317      566.98475      0              620.79327      0              0              9.1178461      9.7028284      0.2            88.468896    
     48400   0.25425459     0.0010576499   0.0010576499   0              0              604.07994      605.16413      602.78767      0              357.73527      0              0              9.1168882      9.6992281      0.2            88.426779    
     48500   0.19611967     0.00079168398  0.00079168398  0              0              688.01576      695.73655      680.11608      0             -102.89588      0              0              9.1159304      9.7032727      0.2            88.454358    
     48600   0.18145124     0.00086939758  0.00086939758  0              0              743.89908      1041.6405      445.97905      0              665.92644      0              0              9.1149725      9.7046764      0.2            88.457858    
     48700   0.23124106     0.0010101527   0.0010101527   0              0              216.34735      450.17159     -17.637397      0              836.05488      0              0              9.1140147      9.7046161      0.2            88.448014    
     48800   0.19516399     0.00090344849  0.00090344849  0              0             -222.56322     -45.796541     -399.49749      0              515.89795      0              0              9.1130568      9.7044203      0.2            88.436934    
     48900   0.20495857     0.00092896884  0.00092896884  0              0             -111.21366      749.05502     -971.67358      0              458.357        0              0              9.112099       9.7053863      0.2            88.436441    
     49000   0.22687364     0.00091763565  0.00091763565  0              0             -846.2397      -375.59168     -1317.1061      0             -143.55036      0              0              9.1111411      9.7132179      0.2            88.498499    
     49100   0.1924219      0.0010545551   0.0010545551   0              0             -1127.4196     -871.27529     -1383.7394      0              114.94685      0              0              9.1101833      9.7068648      0.2            88.431317    
     49200   0.16518178     0.0011049887   0.0011049887   0              0             -562.99132     -73.023601     -1053.1526      0             -325.24953      0              0              9.1092254      9.7036968      0.2            88.393161    
     49300   0.1982788      0.00092032744  0.00092032744  0              0             -189.94368      93.038114     -473.06729      0              2.7433737      0              0              9.1082675      9.7025374      0.2            88.373307    
     49400   0.17058838     0.00080867606  0.00080867606  0              0              355.72307      359.46243      351.82068      0             -99.733135      0              0              9.1073097      9.7011732      0.2            88.351589    
     49500   0.22944528     0.0010114236   0.0010114236   0              0              648.49521      365.00882      931.80031      0             -689.30973      0              0              9.1063518      9.6936224      0.2            88.273536    
     49600   0.19323698     0.001127056    0.001127056    0              0              1475.2669      1591.5702      1358.8014      0             -113.51438      0              0              9.105394       9.6919184      0.2            88.248735    
     49700   0.22162108     0.00089989809  0.00089989809  0              0              1340.8426      1099.8236      1581.6718      0             -243.61954      0              0              9.1044361      9.6887406      0.2            88.21052     
     49800   0.24022813     0.0010255529   0.0010255529   0              0              2164.3445      2930.2972      1398.2388      0             -42.946514      0              0              9.1034783      9.6840292      0.2            88.158349    
     49900   0.17909986     0.00086961897  0.00086961897  0              0              1122.6363      1443.1373      801.93783      0              183.91739      0              0              9.1025204      9.6910641      0.2            88.213109    
     50000   0.19325743     0.00097395931  0.00097395931  0              0              603.45401      1028.3412      178.38519      0              86.715274      0              0              9.1015626      9.6990062      0.2            88.276112    
     50100   0.20902271     0.0011685722   0.0011685722   0              0              45.560912      523.43375     -432.52485      0              155.86526      0              0              9.1006047      9.7012842      0.2            88.287553    
     50200   0.20319945     0.0012512598   0.0012512598   0              0             -192.36191      417.02257     -801.95991      0             -525.84453      0              0              9.0996468      9.7035201      0.2            88.298606    
     50202   0.20104968     0.0012650677   0.0012650677   0              0             -313.37572      360.37635     -987.29924      0             -549.05969      0              0              9.0996277      9.7043303      0.2            88.305793    
Loop time of 1.07794 on 1 procs for 50000 steps with 58 atoms

Performance: 40076.595 ns/day, 0.001 hours/ns, 46384.948 timesteps/s
99.3% CPU use with 1 MPI tasks x 1 OpenMP threads

MPI task timing breakdown:
Section |  min time  |  avg time  |  max time  |%varavg| %total
---------------------------------------------------------------
Pair    | 0          | 0          | 0          |   0.0 |  0.00
Bond    | 0.15125    | 0.15125    | 0.15125    |   0.0 | 14.03
Neigh   | 0          | 0          | 0          |   0.0 |  0.00
Comm    | 0.36236    | 0.36236    | 0.36236    |   0.0 | 33.62
Output  | 0.006744   | 0.006744   | 0.006744   |   0.0 |  0.63
Modify  | 0.53131    | 0.53131    | 0.53131    |   0.0 | 49.29
Other   |            | 0.02627    |            |       |  2.44

Nlocal:             58 ave          58 max          58 min
Histogram: 1 0 0 0 0 0 0 0 0 0
Nghost:            501 ave         501 max         501 min
Histogram: 1 0 0 0 0 0 0 0 0 0
Neighs:              0 ave           0 max           0 min
Histogram: 1 0 0 0 0 0 0 0 0 0

Total # of neighbors = 0
Ave neighs/atom = 0
Ave special neighs/atom = 21.241379
Neighbor list builds = 0
Dangerous builds = 0


Total wall time: 0:00:01
