ITEM: TIMESTEP
750
ITEM: NUMBER OF ATOMS
64
ITEM: BOX BOUNDS pp pp pp
-4.8001512669138231e+00 4.8001512669138231e+00
-4.8010465272518363e+00 4.8010465272518363e+00
-1.0000000000000001e-01 1.0000000000000001e-01
ITEM: ATOMS id type xs ys zs
11 1 0.0724288 0.0489928 0.499389
33 1 0.764033 0.0711427 0.50085
79 1 0.867326 0.066825 0.501479
62 1 0.854609 0.999855 0.499736
26 1 0.94606 0.107405 0.5006
48 1 0.028385 0.176517 0.500865
39 1 0.1462 0.164445 0.500072
15 1 0.391005 0.142614 0.499719
12 1 0.511898 0.204152 0.501846
50 1 0.850252 0.134955 0.499847
42 1 0.940059 0.221362 0.499722
10 1 0.124627 0.293046 0.500348
38 1 0.265177 0.198288 0.501671
30 1 0.41103 0.287469 0.500207
29 1 0.646599 0.23999 0.499891
51 1 0.744594 0.176805 0.49846
54 1 0.0112964 0.294663 0.500648
24 1 0.8851 0.313869 0.499448
63 1 0.10261 0.402677 0.500817
46 1 0.0174037 0.39807 0.499669
32 1 0.180941 0.428976 0.500328
7 1 0.288464 0.3431 0.498495
43 1 0.401635 0.396785 0.499894
80 1 0.48144 0.361847 0.499314
60 1 0.578799 0.411827 0.498804
23 1 0.675795 0.359119 0.498883
34 1 0.768838 0.278737 0.500299
71 1 0.930535 0.41018 0.500257
44 1 0.0766884 0.47806 0.500242
13 1 0.325121 0.495544 0.502848
27 1 0.48907 0.458045 0.500951
21 1 0.67542 0.479379 0.499565
20 1 0.817563 0.415981 0.499969
9 1 0.950054 0.514869 0.499929
49 1 0.0604346 0.57488 0.498767
8 1 0.187935 0.576117 0.501349
53 1 0.290092 0.622646 0.501811
37 1 0.425779 0.580326 0.501152
6 1 0.575329 0.57233 0.499643
5 1 0.734267 0.614983 0.5008
66 1 0.816177 0.535618 0.499086
55 1 0.851888 0.598137 0.500252
45 1 0.0807949 0.676104 0.500214
58 1 0.0112006 0.741182 0.50005
70 1 0.093641 0.738607 0.500558
28 1 0.190923 0.710818 0.501722
65 1 0.362201 0.650669 0.500644
19 1 0.308547 0.751291 0.500755
18 1 0.480063 0.711851 0.498918
40 1 0.625995 0.701083 0.498102
3 1 0.732839 0.775891 0.499551
25 1 0.974958 0.861173 0.499652
73 1 0.0574927 0.810031 0.500814
78 1 0.120661 0.825477 0.500678
56 1 0.203387 0.819602 0.49838
17 1 0.588114 0.829679 0.500526
16 1 0.858879 0.876466 0.49883
67 1 0.038075 0.940451 0.499674
36 1 0.122418 0.912355 0.501427
2 1 0.433552 0.867451 0.500144
1 1 0.559184 0.963981 0.50173
14 1 0.702522 0.928396 0.500015
69 1 0.797634 0.970611 0.499308
35 1 0.950765 0.980563 0.49954
ITEM: TIMESTEP
1000
ITEM: NUMBER OF ATOMS
64
ITEM: BOX BOUNDS pp pp pp
-4.7989510154523352e+00 4.7989510154523352e+00
-4.8015419260609855e+00 4.8015419260609855e+00
-1.0000000000000001e-01 1.0000000000000001e-01
ITEM: ATOMS id type xs ys zs
11 1 0.0731644 0.0486155 0.49905
33 1 0.764214 0.072165 0.499971
79 1 0.867244 0.0657995 0.501272
62 1 0.855094 0.998791 0.500969
26 1 0.946041 0.106763 0.501469
48 1 0.0281859 0.176313 0.501179
39 1 0.147157 0.164073 0.498866
15 1 0.390183 0.14345 0.500111
12 1 0.510846 0.205331 0.501963
50 1 0.851108 0.134763 0.50051
42 1 0.940022 0.221088 0.499643
10 1 0.125394 0.29312 0.501143
38 1 0.265709 0.20077 0.502112
30 1 0.409848 0.287906 0.500401
29 1 0.646825 0.23971 0.497318
51 1 0.745428 0.177069 0.500044
54 1 0.0119118 0.293501 0.499802
24 1 0.886336 0.314826 0.501108
63 1 0.102686 0.402777 0.500926
46 1 0.0177535 0.396888 0.499941
32 1 0.181181 0.429609 0.502578
7 1 0.288673 0.344698 0.497369
43 1 0.401872 0.397935 0.500079
80 1 0.481228 0.36188 0.498576
60 1 0.579788 0.4123 0.495285
23 1 0.676685 0.359445 0.499817
34 1 0.769433 0.279111 0.500886
71 1 0.931167 0.410915 0.502192
44 1 0.0769043 0.477718 0.501266
13 1 0.325067 0.496196 0.503468
27 1 0.490331 0.45776 0.49988
21 1 0.676752 0.479469 0.499941
20 1 0.817805 0.415825 0.502245
9 1 0.949936 0.515342 0.499095
49 1 0.0603218 0.574662 0.498528
8 1 0.187625 0.575966 0.501385
53 1 0.289027 0.623576 0.503838
37 1 0.426218 0.580332 0.50199
6 1 0.576043 0.571288 0.499458
5 1 0.734767 0.615636 0.501638
66 1 0.816051 0.535472 0.497916
55 1 0.852375 0.598056 0.500578
45 1 0.0804471 0.676014 0.499854
58 1 0.0105448 0.741276 0.499445
70 1 0.0931693 0.738218 0.499779
28 1 0.19032 0.711158 0.501334
65 1 0.361604 0.650673 0.500915
19 1 0.308994 0.751868 0.500279
18 1 0.479903 0.711653 0.497961
40 1 0.62588 0.701412 0.496948
3 1 0.732341 0.776468 0.499164
25 1 0.974994 0.860894 0.498558
73 1 0.0574483 0.80925 0.501713
78 1 0.120926 0.82538 0.500765
56 1 0.203056 0.818885 0.498012
17 1 0.587761 0.830047 0.499964
16 1 0.858323 0.876945 0.497534
67 1 0.03851 0.939744 0.502347
36 1 0.123047 0.912109 0.500063
2 1 0.43507 0.868188 0.50144
1 1 0.560255 0.965567 0.500916
14 1 0.702516 0.928959 0.500626
69 1 0.797266 0.971679 0.50045
35 1 0.951306 0.97999 0.500097
ITEM: TIMESTEP
1250
ITEM: NUMBER OF ATOMS
64
ITEM: BOX BOUNDS pp pp pp
-4.7977507639908463e+00 4.7977507639908463e+00
-4.8015023647032988e+00 4.8015023647032988e+00
-1.0000000000000001e-01 1.0000000000000001e-01
ITEM: ATOMS id type xs ys zs
11 1 0.073722 0.0488862 0.498223
33 1 0.764954 0.0710513 0.498379
79 1 0.868239 0.0664413 0.500098
62 1 0.855235 0.99961 0.502183
26 1 0.946766 0.107424 0.501022
48 1 0.0289714 0.176618 0.500411
39 1 0.14795 0.163766 0.497042
15 1 0.390419 0.143036 0.499928
12 1 0.511031 0.20383 0.503167
50 1 0.851126 0.134682 0.49986
42 1 0.94091 0.221718 0.501336
10 1 0.126042 0.293455 0.502588
38 1 0.265977 0.200595 0.499846
30 1 0.41045 0.28773 0.4998
29 1 0.646577 0.239311 0.499308
51 1 0.744794 0.176482 0.500452
54 1 0.0129263 0.294041 0.499949
24 1 0.885917 0.314825 0.501686
63 1 0.103333 0.402864 0.499637
46 1 0.0180425 0.397714 0.500863
32 1 0.181751 0.429897 0.503768
7 1 0.289151 0.344378 0.497349
43 1 0.402071 0.397594 0.499084
80 1 0.481447 0.362304 0.497767
60 1 0.579505 0.412632 0.494274
23 1 0.675865 0.359003 0.499373
34 1 0.768744 0.279105 0.499484
71 1 0.931335 0.410383 0.502527
44 1 0.0775289 0.478423 0.499639
13 1 0.325289 0.495568 0.502755
27 1 0.489042 0.458528 0.499378
21 1 0.677212 0.47912 0.499141
20 1 0.817959 0.415829 0.50266
9 1 0.950324 0.51497 0.499371
49 1 0.0609682 0.575213 0.500419
8 1 0.187481 0.576762 0.501379
53 1 0.289145 0.623588 0.503848
37 1 0.425322 0.580329 0.501885
6 1 0.575153 0.571112 0.500195
5 1 0.733908 0.615083 0.503587
66 1 0.815752 0.534595 0.497013
55 1 0.851051 0.596664 0.500212
45 1 0.0814399 0.676064 0.502461
58 1 0.0115981 0.741664 0.497182
70 1 0.0939818 0.738305 0.500661
28 1 0.191197 0.712155 0.500568
65 1 0.362062 0.651437 0.500771
19 1 0.308865 0.752716 0.500896
18 1 0.479673 0.711222 0.499161
40 1 0.625724 0.701194 0.497851
3 1 0.732795 0.776004 0.498235
25 1 0.975868 0.861284 0.497776
73 1 0.0578711 0.809706 0.501994
78 1 0.120348 0.826008 0.502244
56 1 0.203006 0.820317 0.497997
17 1 0.587924 0.829537 0.500395
16 1 0.859503 0.876629 0.498489
67 1 0.0394272 0.940043 0.50346
36 1 0.124352 0.912575 0.500545
2 1 0.434974 0.866703 0.502675
1 1 0.560072 0.964709 0.500685
14 1 0.703185 0.928319 0.498944
69 1 0.798351 0.970862 0.495937
35 1 0.951947 0.980267 0.500697
ITEM: TIMESTEP
1500
ITEM: NUMBER OF ATOMS
64
ITEM: BOX BOUNDS pp pp pp
-4.7965505125293575e+00 4.7965505125293575e+00
-4.8070274872228032e+00 4.8070274872228032e+00
-1.0000000000000001e-01 1.0000000000000001e-01
ITEM: ATOMS id type xs ys zs
11 1 0.074281 0.0492289 0.49867
33 1 0.765217 0.0719959 0.50129
79 1 0.868436 0.0667144 0.499486
62 1 0.85603 1.00001 0.50138
26 1 0.947406 0.107141 0.501356
48 1 0.029117 0.176713 0.501933
39 1 0.147693 0.1648 0.496604
15 1 0.39153 0.142775 0.500846
12 1 0.511165 0.203946 0.505721
50 1 0.851877 0.135173 0.501527
42 1 0.941064 0.221286 0.501489
10 1 0.124273 0.293445 0.502488
38 1 0.26686 0.199742 0.497742
30 1 0.409693 0.287439 0.500132
29 1 0.646338 0.240831 0.497807
51 1 0.744307 0.177153 0.499948
54 1 0.0112288 0.294606 0.49999
24 1 0.886067 0.314297 0.500572
63 1 0.102933 0.403029 0.499399
46 1 0.0178933 0.397672 0.500691
32 1 0.180672 0.430211 0.504035
7 1 0.287808 0.343476 0.496574
43 1 0.401152 0.396895 0.49778
80 1 0.48095 0.361793 0.497873
60 1 0.578659 0.411739 0.495655
23 1 0.676965 0.360093 0.499955
34 1 0.768827 0.279051 0.497898
71 1 0.930902 0.411192 0.502513
44 1 0.0767257 0.478471 0.500772
13 1 0.325355 0.495124 0.503782
27 1 0.488743 0.457981 0.499601
21 1 0.676019 0.479293 0.497715
20 1 0.817607 0.415974 0.502194
9 1 0.94968 0.515511 0.498982
49 1 0.059843 0.575187 0.500357
8 1 0.187497 0.576405 0.499605
53 1 0.289286 0.622717 0.503002
37 1 0.425833 0.580037 0.501818
6 1 0.575001 0.572262 0.500866
5 1 0.733577 0.615396 0.505884
66 1 0.814986 0.534794 0.498683
55 1 0.851137 0.596694 0.499965
45 1 0.0809933 0.676343 0.502827
58 1 0.0113604 0.741503 0.495921
70 1 0.0938437 0.738694 0.50068
28 1 0.191539 0.71096 0.499294
65 1 0.361733 0.650013 0.500348
19 1 0.30991 0.751505 0.501179
18 1 0.480075 0.711768 0.498501
40 1 0.625941 0.701638 0.4972
3 1 0.733198 0.776793 0.499217
25 1 0.97665 0.860706 0.499914
73 1 0.0591758 0.808831 0.503166
78 1 0.121563 0.82683 0.503975
56 1 0.204211 0.818941 0.496397
17 1 0.588458 0.829405 0.501753
16 1 0.860186 0.876197 0.49624
67 1 0.0394312 0.940312 0.500956
36 1 0.12459 0.913499 0.501519
2 1 0.434902 0.867357 0.502059
1 1 0.560286 0.964271 0.500015
14 1 0.703673 0.929061 0.497935
69 1 0.799335 0.969963 0.496143
35 1 0.952221 0.980435 0.501801
ITEM: TIMESTEP
1750
ITEM: NUMBER OF ATOMS
64
ITEM: BOX BOUNDS pp pp pp
-4.7953502610678687e+00 4.7953502610678687e+00
-4.8004114548099013e+00 4.8004114548099013e+00
-1.0000000000000001e-01 1.0000000000000001e-01
ITEM: ATOMS id type xs ys zs
11 1 0.0730597 0.0492412 0.497636
33 1 0.764088 0.0719664 0.500804
79 1 0.867635 0.0665229 0.496998
62 1 0.855231 0.999564 0.50087
26 1 0.946359 0.107282 0.502007
48 1 0.0285774 0.176367 0.502841
39 1 0.147288 0.163462 0.497592
15 1 0.392217 0.142694 0.500888
12 1 0.51189 0.204438 0.507084
50 1 0.851045 0.134647 0.501439
42 1 0.940744 0.221554 0.501974
10 1 0.124845 0.292931 0.504987
38 1 0.266212 0.198406 0.496714
30 1 0.41015 0.287636 0.501811
29 1 0.646824 0.241343 0.499235
51 1 0.743892 0.176603 0.498773
54 1 0.0116128 0.294873 0.502064
24 1 0.886711 0.314624 0.500995
63 1 0.102354 0.402681 0.500268
46 1 0.0173062 0.397811 0.498972
32 1 0.181184 0.429154 0.504083
7 1 0.288149 0.342687 0.496554
43 1 0.40123 0.397231 0.497826
80 1 0.481862 0.362107 0.50003
60 1 0.579141 0.411921 0.497448
23 1 0.677268 0.359813 0.500239
34 1 0.769881 0.278665 0.497947
71 1 0.930594 0.410969 0.503095
44 1 0.0769019 0.478091 0.501329
13 1 0.324373 0.494369 0.506795
27 1 0.489382 0.457907 0.499697
21 1 0.675326 0.479967 0.498217
20 1 0.817821 0.415797 0.502579
9 1 0.949466 0.515626 0.499101
49 1 0.0600284 0.575138 0.499456
8 1 0.187397 0.575861 0.49949
53 1 0.289737 0.622185 0.502722
37 1 0.425707 0.579454 0.500145
6 1 0.574818 0.572854 0.501319
5 1 0.733543 0.615821 0.504088
66 1 0.81554 0.534696 0.497993
55 1 0.851383 0.597101 0.50031
45 1 0.0818442 0.675705 0.505205
58 1 0.0116343 0.740201 0.495347
70 1 0.0940859 0.738436 0.499546
28 1 0.191051 0.710455 0.497996
65 1 0.3624 0.64969 0.500971
19 1 0.308851 0.750819 0.5006
18 1 0.479071 0.710913 0.49866
40 1 0.625218 0.701711 0.497573
3 1 0.732046 0.776557 0.499172
25 1 0.975962 0.86019 0.50028
73 1 0.0584629 0.808326 0.504856
78 1 0.121511 0.825957 0.504555
56 1 0.204039 0.819194 0.497602
17 1 0.587351 0.830108 0.502502
16 1 0.859821 0.876052 0.496675
67 1 0.0394255 0.939921 0.501752
36 1 0.124127 0.912894 0.500982
2 1 0.433755 0.867786 0.502043
1 1 0.559277 0.965102 0.500647
14 1 0.703278 0.928092 0.496907
69 1 0.798579 0.970437 0.496507
35 1 0.95162 0.979703 0.50039
ITEM: TIMESTEP
2000
ITEM: NUMBER OF ATOMS
64
ITEM: BOX BOUNDS pp pp pp
-4.7941500096063807e+00 4.7941500096063807e+00
-4.8062409796948398e+00 4.8062409796948398e+00
-1.0000000000000001e-01 1.0000000000000001e-01
ITEM: ATOMS id type xs ys zs
11 1 0.0730007 0.0491522 0.497588
33 1 0.764568 0.0726368 0.501371
79 1 0.868415 0.0676753 0.498437
62 1 0.854695 1.00091 0.501862
26 1 0.946353 0.107467 0.50301
48 1 0.0283784 0.17655 0.504366
39 1 0.146963 0.164053 0.496706
15 1 0.391576 0.142434 0.499659
12 1 0.512464 0.20447 0.506684
50 1 0.851493 0.135992 0.501468
42 1 0.940339 0.221563 0.503878
10 1 0.12494 0.292728 0.504792
38 1 0.265863 0.198201 0.49615
30 1 0.410759 0.28696 0.501961
29 1 0.646842 0.241538 0.499413
51 1 0.744805 0.177665 0.499255
54 1 0.0121944 0.29423 0.502214
24 1 0.886344 0.315321 0.501937
63 1 0.102321 0.402225 0.500387
46 1 0.0171609 0.397147 0.497147
32 1 0.181208 0.428983 0.505832
7 1 0.288696 0.342638 0.496515
43 1 0.401678 0.396837 0.499261
80 1 0.481172 0.360832 0.500248
60 1 0.579963 0.412075 0.498098
23 1 0.677493 0.360482 0.500098
34 1 0.769282 0.279223 0.498675
71 1 0.930736 0.411899 0.503922
44 1 0.0765306 0.477374 0.499179
13 1 0.324938 0.494838 0.507028
27 1 0.489554 0.456714 0.500432
21 1 0.675981 0.480361 0.498815
20 1 0.817172 0.416825 0.501531
9 1 0.949407 0.516192 0.499662
49 1 0.0603269 0.574058 0.499279
8 1 0.186915 0.575437 0.501312
53 1 0.288708 0.623255 0.503958
37 1 0.425741 0.579665 0.500877
6 1 0.574452 0.571566 0.502894
5 1 0.732628 0.61599 0.506075
66 1 0.814403 0.535379 0.49865
55 1 0.850084 0.597881 0.500115
45 1 0.0818848 0.674984 0.50518
58 1 0.0125746 0.740733 0.495941
70 1 0.0949599 0.737238 0.500356
28 1 0.19212 0.710812 0.497597
65 1 0.361346 0.649708 0.50184
19 1 0.309353 0.751997 0.501319
18 1 0.478331 0.711695 0.496051
40 1 0.624727 0.701459 0.49735
3 1 0.73152 0.777266 0.497301
25 1 0.976243 0.860833 0.500496
73 1 0.0586705 0.809251 0.502406
78 1 0.121408 0.82677 0.505603
56 1 0.203995 0.819268 0.497473
17 1 0.586695 0.829532 0.503267
16 1 0.859705 0.876493 0.496616
67 1 0.0389034 0.940526 0.501459
36 1 0.123931 0.913268 0.501556
2 1 0.433978 0.868496 0.502302
1 1 0.559757 0.964823 0.499291
14 1 0.703163 0.928402 0.496265
69 1 0.798518 0.970132 0.495776
35 1 0.951284 0.980011 0.500234
ITEM: TIMESTEP
2250
ITEM: NUMBER OF ATOMS
64
ITEM: BOX BOUNDS pp pp pp
-4.7929497581448919e+00 4.7929497581448919e+00
-4.8046176997086247e+00 4.8046176997086247e+00
-1.0000000000000001e-01 1.0000000000000001e-01
ITEM: ATOMS id type xs ys zs
11 1 0.0731471 0.0497752 0.498368
33 1 0.763569 0.0728444 0.499479
79 1 0.867206 0.0673343 0.495734
62 1 0.854751 1.00037 0.502006
26 1 0.946215 0.107742 0.502342
48 1 0.0285153 0.176629 0.504474
39 1 0.147721 0.164824 0.494804
15 1 0.391385 0.142331 0.501579
12 1 0.511908 0.202842 0.50731
50 1 0.850604 0.135623 0.501205
42 1 0.940607 0.221834 0.503023
10 1 0.125676 0.293022 0.50387
38 1 0.266326 0.199575 0.4987
30 1 0.411173 0.286252 0.503394
29 1 0.64632 0.241945 0.49959
51 1 0.744064 0.178509 0.49912
54 1 0.0123408 0.294428 0.500536
24 1 0.886671 0.315803 0.502631
63 1 0.102718 0.401945 0.499112
46 1 0.0168123 0.39771 0.498424
32 1 0.181204 0.429379 0.503566
7 1 0.288891 0.343279 0.496763
43 1 0.401144 0.396944 0.501355
80 1 0.480827 0.361709 0.500219
60 1 0.57952 0.411379 0.499023
23 1 0.678113 0.360562 0.501398
34 1 0.769974 0.279729 0.497732
71 1 0.92986 0.410882 0.503734
44 1 0.0764194 0.477535 0.49793
13 1 0.324147 0.495141 0.505797
27 1 0.489523 0.457557 0.503178
21 1 0.67581 0.480078 0.496571
20 1 0.816849 0.416974 0.501282
9 1 0.949274 0.5158 0.500308
49 1 0.0597085 0.574853 0.499322
8 1 0.187498 0.575589 0.50164
53 1 0.289162 0.623331 0.500775
37 1 0.425936 0.578973 0.500042
6 1 0.575036 0.572053 0.504138
5 1 0.734039 0.616006 0.504811
66 1 0.815387 0.536352 0.499137
55 1 0.850872 0.598637 0.499505
45 1 0.0824989 0.675213 0.503225
58 1 0.0120854 0.739898 0.496449
70 1 0.0950825 0.737485 0.501247
28 1 0.192372 0.7104 0.496885
65 1 0.362097 0.650045 0.50324
19 1 0.310042 0.752256 0.50069
18 1 0.478599 0.711602 0.496787
40 1 0.625131 0.701143 0.496122
3 1 0.731831 0.776096 0.495916
25 1 0.975892 0.861422 0.500461
73 1 0.0575655 0.808656 0.502921
78 1 0.120526 0.825821 0.504746
56 1 0.202846 0.81887 0.498719
17 1 0.587525 0.829438 0.503226
16 1 0.859081 0.876398 0.496623
67 1 0.0387448 0.941133 0.499657
36 1 0.123113 0.912436 0.50223
2 1 0.43286 0.866997 0.500747
1 1 0.559349 0.963678 0.500197
14 1 0.70277 0.928384 0.495572
69 1 0.798462 0.969881 0.494882
35 1 0.951303 0.980404 0.499705
ITEM: TIMESTEP
2500
ITEM: NUMBER OF ATOMS
64
ITEM: BOX BOUNDS pp pp pp
-4.7917495066834030e+00 4.7917495066834030e+00
-4.8008819714793027e+00 4.8008819714793027e+00
-1.0000000000000001e-01 1.0000000000000001e-01
ITEM: ATOMS id type xs ys zs
11 1 0.0726763 0.049097 0.49718
33 1 0.763991 0.0724166 0.499422
79 1 0.867434 0.0673646 0.494949
62 1 0.854194 1.00065 0.502134
26 1 0.946378 0.107854 0.500449
48 1 0.0286502 0.176904 0.504348
39 1 0.147255 0.163835 0.494197
15 1 0.390648 0.142208 0.500093
12 1 0.511417 0.203276 0.507014
50 1 0.850794 0.135609 0.501771
42 1 0.941201 0.222703 0.502884
10 1 0.1258 0.292154 0.505383
38 1 0.26623 0.199376 0.497847
30 1 0.410422 0.286852 0.503109
29 1 0.646006 0.242521 0.500551
51 1 0.742458 0.177352 0.500032
54 1 0.0126746 0.295253 0.502495
24 1 0.886562 0.315747 0.502351
63 1 0.102485 0.401969 0.499475
46 1 0.016744 0.398249 0.499354
32 1 0.181095 0.428307 0.502128
7 1 0.288409 0.342545 0.497416
43 1 0.401506 0.397001 0.501824
80 1 0.481091 0.360875 0.499579
60 1 0.580107 0.411657 0.499994
23 1 0.678689 0.360698 0.500734
34 1 0.76975 0.278718 0.496124
71 1 0.930047 0.411364 0.502875
44 1 0.0766912 0.477738 0.498472
13 1 0.32473 0.494899 0.50556
27 1 0.490049 0.457152 0.502697
21 1 0.676012 0.480485 0.496705
20 1 0.816442 0.416276 0.501994
9 1 0.949314 0.515506 0.500676
49 1 0.0595072 0.575051 0.497112
8 1 0.186331 0.57539 0.501945
53 1 0.288844 0.623077 0.502407
37 1 0.425248 0.58044 0.50068
6 1 0.574328 0.572612 0.504127
5 1 0.73425 0.615917 0.504992
66 1 0.814863 0.53487 0.49794
55 1 0.850815 0.59726 0.500032
45 1 0.0821323 0.675461 0.502621
58 1 0.0123868 0.73996 0.49756
70 1 0.0948289 0.737669 0.501819
28 1 0.192213 0.710289 0.49815
65 1 0.36145 0.650298 0.49924
19 1 0.310134 0.752397 0.501534
18 1 0.479404 0.711515 0.498497
40 1 0.625481 0.701538 0.497153
3 1 0.732404 0.776371 0.49495
25 1 0.975795 0.860173 0.501033
73 1 0.0581239 0.808935 0.501722
78 1 0.12082 0.826364 0.504906
56 1 0.203354 0.818786 0.497059
17 1 0.587144 0.829288 0.504156
16 1 0.859685 0.875643 0.496357
67 1 0.0382125 0.940229 0.50169
36 1 0.123454 0.913255 0.501578
2 1 0.433488 0.867706 0.499795
1 1 0.55924 0.964461 0.498254
14 1 0.702426 0.928482 0.494231
69 1 0.79827 0.969943 0.495032
35 1 0.950876 0.980156 0.498803
ITEM: TIMESTEP
2750
ITEM: NUMBER OF ATOMS
64
ITEM: BOX BOUNDS pp pp pp
-4.7905492552219151e+00 4.7905492552219151e+00
-4.8128333293504495e+00 4.8128333293504495e+00
-1.0000000000000001e-01 1.0000000000000001e-01
ITEM: ATOMS id type xs ys zs
11 1 0.0724447 0.0490562 0.496453
33 1 0.762364 0.0722778 0.499679
79 1 0.866162 0.067012 0.497643
62 1 0.854132 1.00018 0.500661
26 1 0.945258 0.107268 0.500188
48 1 0.0281711 0.175842 0.505341
39 1 0.146575 0.164477 0.494017
15 1 0.390432 0.143146 0.500577
12 1 0.51132 0.203925 0.508617
50 1 0.849642 0.134791 0.501502
42 1 0.940454 0.221512 0.503016
10 1 0.125678 0.292732 0.505636
38 1 0.26575 0.199647 0.498601
30 1 0.41016 0.287351 0.503448
29 1 0.646482 0.242557 0.500111
51 1 0.742997 0.177298 0.500273
54 1 0.0119213 0.294167 0.502694
24 1 0.885584 0.314911 0.50287
63 1 0.102077 0.40233 0.500164
46 1 0.0165124 0.397409 0.499874
32 1 0.180774 0.428353 0.501359
7 1 0.288546 0.343899 0.49663
43 1 0.402209 0.397477 0.501613
80 1 0.48178 0.360892 0.499935
60 1 0.580252 0.409848 0.498967
23 1 0.679076 0.360516 0.501774
34 1 0.769842 0.278176 0.495914
71 1 0.929631 0.410141 0.502727
44 1 0.0764548 0.47768 0.498115
13 1 0.325275 0.495197 0.505828
27 1 0.490984 0.457085 0.502049
21 1 0.67494 0.479726 0.496987
20 1 0.816408 0.416112 0.503116
9 1 0.949273 0.513944 0.499774
49 1 0.0590524 0.574502 0.497371
8 1 0.186782 0.574699 0.502482
53 1 0.28917 0.622995 0.502314
37 1 0.426097 0.579407 0.498685
6 1 0.57469 0.572414 0.505477
5 1 0.733733 0.615876 0.504411
66 1 0.814224 0.535207 0.497651
55 1 0.851053 0.596908 0.499983
45 1 0.0820935 0.675587 0.501789
58 1 0.0128563 0.740762 0.497309
70 1 0.0955671 0.737686 0.503396
28 1 0.19297 0.709936 0.496782
65 1 0.36196 0.649799 0.499231
19 1 0.310047 0.751246 0.502935
18 1 0.479293 0.710804 0.499938
40 1 0.625206 0.701519 0.494892
3 1 0.731153 0.777008 0.495557
25 1 0.975427 0.860321 0.500504
73 1 0.0583195 0.80979 0.5016
78 1 0.121417 0.826152 0.506059
56 1 0.204117 0.817964 0.497213
17 1 0.586381 0.829182 0.504336
16 1 0.858741 0.876015 0.49558
67 1 0.0378104 0.940131 0.502705
36 1 0.122975 0.912713 0.502178
2 1 0.432631 0.866608 0.500568
1 1 0.557999 0.963687 0.500266
14 1 0.702058 0.929315 0.492009
69 1 0.797845 0.970111 0.495213
35 1 0.950196 0.979892 0.497018
ITEM: TIMESTEP
3000
ITEM: NUMBER OF ATOMS
64
ITEM: BOX BOUNDS pp pp pp
-4.7893490037604263e+00 4.7893490037604263e+00
-4.7978689167841431e+00 4.7978689167841431e+00
-1.0000000000000001e-01 1.0000000000000001e-01
ITEM: ATOMS id type xs ys zs
11 1 0.0722634 0.0486768 0.498214
33 1 0.762789 0.0715535 0.499206
79 1 0.86642 0.0666894 0.496244
62 1 0.853951 0.99986 0.500698
26 1 0.945283 0.107469 0.501038
48 1 0.0279041 0.176748 0.503237
39 1 0.146441 0.162981 0.494219
15 1 0.390303 0.142238 0.502058
12 1 0.511462 0.202807 0.507583
50 1 0.849478 0.134697 0.500602
42 1 0.939719 0.221739 0.504355
10 1 0.125117 0.291921 0.504982
38 1 0.265104 0.198868 0.498808
30 1 0.410627 0.287075 0.500051
29 1 0.645761 0.242009 0.498437
51 1 0.742411 0.176872 0.500233
54 1 0.0118047 0.293943 0.50273
24 1 0.885311 0.315411 0.502209
63 1 0.101361 0.401459 0.498872
46 1 0.0158873 0.397017 0.497231
32 1 0.18013 0.428515 0.500939
7 1 0.288529 0.343317 0.496906
43 1 0.402337 0.397116 0.500566
80 1 0.481885 0.361053 0.500407
60 1 0.58014 0.411162 0.500601
23 1 0.678746 0.360293 0.504569
34 1 0.769214 0.278137 0.495845
71 1 0.928816 0.408836 0.502458
44 1 0.0756795 0.477129 0.49729
13 1 0.324606 0.494975 0.507624
27 1 0.490449 0.457406 0.501885
21 1 0.675696 0.479996 0.499087
20 1 0.815124 0.415956 0.502825
9 1 0.948675 0.513273 0.500063
49 1 0.0585884 0.574101 0.497437
8 1 0.185994 0.57476 0.503465
53 1 0.287609 0.62254 0.502369
37 1 0.425517 0.579189 0.496226
6 1 0.574931 0.5722 0.504862
5 1 0.733459 0.615834 0.503906
66 1 0.814801 0.535084 0.49496
55 1 0.851423 0.59722 0.500709
45 1 0.0827788 0.674514 0.501164
58 1 0.0134758 0.740353 0.496212
70 1 0.095806 0.736897 0.503192
28 1 0.192987 0.709422 0.496442
65 1 0.360706 0.648722 0.499247
19 1 0.310188 0.751567 0.503732
18 1 0.477769 0.711482 0.498883
40 1 0.624531 0.702015 0.494486
3 1 0.7299 0.777374 0.494401
25 1 0.974279 0.859878 0.499251
73 1 0.0579192 0.810334 0.501847
78 1 0.120786 0.826325 0.504701
56 1 0.202979 0.817595 0.495922
17 1 0.585978 0.829847 0.506721
16 1 0.858036 0.876581 0.495054
67 1 0.0381268 0.939319 0.503994
36 1 0.123456 0.912923 0.502657
2 1 0.432527 0.868119 0.500375
1 1 0.55786 0.964652 0.499941
14 1 0.701059 0.929745 0.493021
69 1 0.797228 0.970954 0.495913
35 1 0.950922 0.979635 0.497051
ITEM: TIMESTEP
3250
ITEM: NUMBER OF ATOMS
64
ITEM: BOX BOUNDS pp pp pp
-4.7881487522989374e+00 4.7881487522989374e+00
-4.8020720138107027e+00 4.8020720138107027e+00
-1.0000000000000001e-01 1.0000000000000001e-01
ITEM: ATOMS id type xs ys zs
11 1 0.0721864 0.0489525 0.499941
33 1 0.762896 0.0702267 0.49914
79 1 0.866624 0.0659259 0.497323
62 1 0.854179 0.999106 0.500489
26 1 0.94505 0.107439 0.501778
48 1 0.0274563 0.176525 0.501453
39 1 0.146597 0.162872 0.495135
15 1 0.389771 0.142614 0.502962
12 1 0.510771 0.203586 0.50678
50 1 0.849824 0.133735 0.500686
42 1 0.939279 0.221674 0.504034
10 1 0.124004 0.292392 0.505176
38 1 0.264625 0.200068 0.499847
30 1 0.40984 0.287086 0.500459
29 1 0.645406 0.241287 0.497975
51 1 0.74166 0.175437 0.499946
54 1 0.0106681 0.294633 0.503514
24 1 0.884689 0.314365 0.503421
63 1 0.101601 0.402305 0.499088
46 1 0.0162072 0.397495 0.499413
32 1 0.180414 0.428803 0.50219
7 1 0.288583 0.343402 0.497332
43 1 0.401141 0.397137 0.500153
80 1 0.480809 0.361213 0.501223
60 1 0.580209 0.41243 0.501968
23 1 0.677908 0.359985 0.505122
34 1 0.768124 0.277203 0.495251
71 1 0.929399 0.410281 0.502515
44 1 0.0760717 0.477768 0.496594
13 1 0.323654 0.495451 0.508234
27 1 0.48948 0.456959 0.502603
21 1 0.676129 0.480673 0.49983
20 1 0.815875 0.415523 0.502083
9 1 0.948628 0.514326 0.498691
49 1 0.0583332 0.575247 0.49883
8 1 0.185615 0.574773 0.504696
53 1 0.28705 0.623522 0.502617
37 1 0.424788 0.580317 0.494977
6 1 0.574085 0.572408 0.502848
5 1 0.732898 0.616121 0.504224
66 1 0.814304 0.534789 0.495456
55 1 0.850693 0.596919 0.499918
45 1 0.0820731 0.675586 0.50084
58 1 0.0122961 0.741029 0.495618
70 1 0.094994 0.738118 0.50165
28 1 0.19223 0.710305 0.498423
65 1 0.360174 0.649868 0.499858
19 1 0.309201 0.751912 0.504238
18 1 0.47802 0.711325 0.500852
40 1 0.624664 0.701655 0.493127
3 1 0.730595 0.776854 0.493857
25 1 0.974607 0.860931 0.50215
73 1 0.057757 0.809938 0.501824
78 1 0.120911 0.826408 0.502482
56 1 0.203612 0.819293 0.496407
17 1 0.586094 0.830106 0.506418
16 1 0.858083 0.877455 0.496018
67 1 0.0381222 0.940322 0.505353
36 1 0.122899 0.913098 0.502797
2 1 0.432159 0.867354 0.498052
1 1 0.55716 0.96501 0.499798
14 1 0.700843 0.929806 0.493141
69 1 0.796406 0.972166 0.494895
35 1 0.950847 0.980286 0.497252
ITEM: TIMESTEP
3500
ITEM: NUMBER OF ATOMS
64
ITEM: BOX BOUNDS pp pp pp
-4.7869485008374486e+00 4.7869485008374486e+00
-4.7990373079953645e+00 4.7990373079953645e+00
-1.0000000000000001e-01 1.0000000000000001e-01
ITEM: ATOMS id type xs ys zs
11 1 0.0727504 0.0485123 0.50142
33 1 0.762464 0.0712096 0.499708
79 1 0.866031 0.0666758 0.498927
62 1 0.854107 0.999545 0.501116
26 1 0.945234 0.106481 0.500746
48 1 0.0281636 0.175372 0.499318
39 1 0.146689 0.163656 0.494791
15 1 0.389545 0.142343 0.50205
12 1 0.510405 0.202868 0.507632
50 1 0.849362 0.13452 0.501483
42 1 0.940153 0.220723 0.504823
10 1 0.124901 0.292534 0.503524
38 1 0.26503 0.199492 0.501568
30 1 0.409621 0.287296 0.498137
29 1 0.64446 0.241803 0.497493
51 1 0.740001 0.175717 0.499742
54 1 0.011718 0.293655 0.502411
24 1 0.885249 0.31434 0.504901
63 1 0.101306 0.401954 0.499205
46 1 0.0160265 0.397028 0.499865
32 1 0.180303 0.428682 0.502874
7 1 0.288177 0.344115 0.496475
43 1 0.401498 0.397917 0.499575
80 1 0.481215 0.361012 0.501288
60 1 0.579874 0.411381 0.503768
23 1 0.678483 0.359915 0.50443
34 1 0.768894 0.276603 0.49414
71 1 0.929083 0.409711 0.501317
44 1 0.0756261 0.477486 0.495612
13 1 0.323356 0.495828 0.508218
27 1 0.490079 0.457629 0.503874
21 1 0.675435 0.47968 0.49792
20 1 0.815219 0.415365 0.5011
9 1 0.948584 0.514376 0.497129
49 1 0.0587779 0.575053 0.498363
8 1 0.185665 0.576081 0.503458
53 1 0.287924 0.623218 0.502388
37 1 0.425145 0.579434 0.495955
6 1 0.574379 0.573096 0.504063
5 1 0.733899 0.6154 0.50424
66 1 0.816005 0.535041 0.496043
55 1 0.851361 0.597909 0.498644
45 1 0.0812885 0.675574 0.500792
58 1 0.0110318 0.740746 0.494863
70 1 0.0938221 0.738333 0.498845
28 1 0.191247 0.711539 0.500108
65 1 0.361139 0.64997 0.50039
19 1 0.309438 0.752201 0.50315
18 1 0.478568 0.710192 0.50152
40 1 0.625649 0.70131 0.493873
3 1 0.731152 0.776707 0.494159
25 1 0.974871 0.859532 0.503149
73 1 0.058238 0.808788 0.501269
78 1 0.121145 0.825726 0.50263
56 1 0.203594 0.82017 0.496567
17 1 0.585268 0.829177 0.506394
16 1 0.858017 0.876715 0.496485
67 1 0.0383938 0.939426 0.505623
36 1 0.12354 0.912152 0.501174
2 1 0.431715 0.866294 0.498854
1 1 0.557454 0.963715 0.500201
14 1 0.700889 0.928725 0.49239
69 1 0.796491 0.971275 0.49455
35 1 0.951036 0.979386 0.496709
ITEM: TIMESTEP
3750
ITEM: NUMBER OF ATOMS
64
ITEM: BOX BOUNDS pp pp pp
-4.7857482493759607e+00 4.7857482493759607e+00
-4.8001518834211430e+00 4.8001518834211430e+00
-1.0000000000000001e-01 1.0000000000000001e-01
ITEM: ATOMS id type xs ys zs
11 1 0.0724295 0.0488881 0.500509
33 1 0.762516 0.0709061 0.498156
79 1 0.866247 0.0666151 0.499341
62 1 0.853988 0.999674 0.502169
26 1 0.945356 0.107263 0.499654
48 1 0.0277771 0.176298 0.499999
39 1 0.146896 0.16319 0.49769
15 1 0.390765 0.142361 0.503646
12 1 0.511554 0.203719 0.506999
50 1 0.849406 0.134528 0.500184
42 1 0.939703 0.221308 0.504803
10 1 0.125084 0.292346 0.504605
38 1 0.265833 0.200048 0.50182
30 1 0.41011 0.287241 0.497995
29 1 0.64503 0.242654 0.496677
51 1 0.741274 0.176256 0.500113
54 1 0.0114126 0.293721 0.503755
24 1 0.88487 0.314133 0.506281
63 1 0.101376 0.401718 0.499222
46 1 0.01584 0.397339 0.49914
32 1 0.180188 0.42884 0.502372
7 1 0.28855 0.343615 0.494389
43 1 0.401547 0.397887 0.50005
80 1 0.480855 0.361573 0.500533
60 1 0.58093 0.412421 0.502739
23 1 0.678746 0.360734 0.503441
34 1 0.768998 0.277344 0.492399
71 1 0.928426 0.408502 0.502294
44 1 0.0756088 0.477382 0.496369
13 1 0.32381 0.495562 0.50997
27 1 0.490499 0.457139 0.504013
21 1 0.676597 0.480207 0.498008
20 1 0.81485 0.414992 0.501357
9 1 0.948634 0.513194 0.496356
49 1 0.0585488 0.574513 0.497606
8 1 0.186272 0.576307 0.503199
53 1 0.288148 0.623788 0.501445
37 1 0.425367 0.579537 0.494552
6 1 0.57472 0.571651 0.504002
5 1 0.734108 0.616002 0.503682
66 1 0.814896 0.534436 0.494204
55 1 0.851083 0.596684 0.497878
45 1 0.0798532 0.67563 0.501323
58 1 0.00969468 0.740753 0.495076
70 1 0.0924154 0.738164 0.498336
28 1 0.190047 0.711239 0.501141
65 1 0.361331 0.649662 0.498899
19 1 0.30889 0.751691 0.50227
18 1 0.479574 0.710305 0.502827
40 1 0.62565 0.701198 0.495886
3 1 0.731737 0.776436 0.494371
25 1 0.975205 0.860625 0.505321
73 1 0.0573243 0.808381 0.502393
78 1 0.120268 0.825557 0.502867
56 1 0.202983 0.819898 0.496296
17 1 0.587051 0.82862 0.506307
16 1 0.857707 0.876769 0.4961
67 1 0.0378003 0.940014 0.505551
36 1 0.123228 0.912835 0.501951
2 1 0.432608 0.865842 0.498908
1 1 0.557518 0.963396 0.49997
14 1 0.701668 0.92966 0.494208
69 1 0.797219 0.97084 0.496311
35 1 0.950546 0.979966 0.498441
ITEM: TIMESTEP
4000
ITEM: NUMBER OF ATOMS
64
ITEM: BOX BOUNDS pp pp pp
-4.7845479979144718e+00 4.7845479979144718e+00
-4.8098253133805642e+00 4.8098253133805642e+00
-1.0000000000000001e-01 1.0000000000000001e-01
ITEM: ATOMS id type xs ys zs
11 1 0.0729706 0.0487495 0.501216
33 1 0.763236 0.0703075 0.496068
79 1 0.867281 0.0661319 0.500694
62 1 0.853711 0.999637 0.501657
26 1 0.9457 0.107524 0.496702
48 1 0.0282771 0.176426 0.500697