LAMMPS (23 Jun 2022 - Update 4)
  using 1 OpenMP thread(s) per MPI task
# Compute elastic constant tensor for a crystal
#
# Written by Aidan Thompson (Sandia, athomps@sandia.gov)
#
#  This script uses the following three include files.
#
#   init.mod      (must be modified for different crystal structures)
# 	       	  Define units, deformation parameters and initial
#		  configuration of the atoms and simulation cell.
#
#
#   potential.mod    (must be modified for different pair styles)
# 		     Define pair style and other attributes
#		     not stored in restart file
#
#
#   displace.mod    (displace.mod should not need to be modified)
# 		    Perform positive and negative box displacements
# 		    in direction ${dir} and size ${up}.
# 		    It uses the resultant changes
#		    in stress to compute one
# 		    row of the elastic stiffness tensor
#
#		    Inputs variables:
#		    	   dir = the Voigt deformation component
#		    		    (1,2,3,4,5,6)
#		    Global constants:
#       	    	   up = the deformation magnitude (strain units)
#       		   cfac = conversion from LAMMPS pressure units to
#               	   output units for elastic constants
#
#
#  To run this on a different system, it should only be necessary to
#  modify the files init.mod and potential.mod. In order to calculate
#  the elastic constants correctly, care must be taken to specify
#  the correct units in init.mod (units, cfac and cunits). It is also
#  important to verify that the minimization of energy w.r.t atom
#  positions in the deformed cell is fully converged.
#  One indication of this is that the elastic constants are insensitive
#  to the choice of the variable ${up} in init.mod. Another is to check
#  the final max and two-norm forces reported in the log file. If you know
#  that minimization is not required, you can set maxiter = 0.0 in
#  init.mod.
#



variable dt equal 0.01
variable strain equal 0.05
variable srate equal 1e-4
variable M equal 1000 # averaging time for properties
variable strainsteps equal ${strain}/${dt}/${srate}
variable strainsteps equal 0.05/${dt}/${srate}
variable strainsteps equal 0.05/0.01/${srate}
variable strainsteps equal 0.05/0.01/0.0001


dimension 2
include init.mod
# NOTE: This script can be modified for different atomic structures,
# units, etc. See in.elastic for more info.
#

# Define the finite deformation size. Try several values of this
# variable to verify that results do not depend on it.
variable up equal 1.0e-1

# Define the amount of random jiggle for atoms
# This prevents atoms from staying on saddle points
variable atomjiggle equal 1.0e-6

# Uncomment one of these blocks, depending on what units
# you are using in LAMMPS and for output

# metal units, elastic constants in eV/A^3
#units		metal
#variable cfac equal 6.2414e-7
#variable cunits string eV/A^3

# Choose potential
# metal units, elastic constants in GPa
units		metal
atom_style	full
#pair_style      lj/cut 1.0
#pair_style      yukawa 1.0 2.0
#pair_modify     mix arithmetic
bond_style      harmonic
angle_style     harmonic
dihedral_style  zero
special_bonds   amber
variable cfac equal 1.0e-4
variable cunits string GPa
boundary	p p p

# Need to set mass to something, just to satisfy LAMMPS
#mass 1 1.0e-20
read_data network.lmp
Reading data file ...
  orthogonal box = (-4.800999 -4.800999 -0.1) to (4.800999 4.800999 0.1)
  1 by 1 by 1 MPI processor grid
WARNING: Atom style in data file differs from currently defined atom style (src/read_data.cpp:538)
  reading atoms ...
  64 atoms
WARNING: Bond style in data file differs from currently defined bond style (src/read_data.cpp:630)
  scanning bonds ...
  6 = max bonds/atom
  reading bonds ...
  143 bonds
Finding 1-2 1-3 1-4 neighbors ...
  special bond factors lj:    0        0        0.5     
  special bond factors coul:  0        0        0.8333333333333334
    10 = max # of 1-2 neighbors
    54 = max # of 1-3 neighbors
   351 = max # of 1-4 neighbors
    32 = max # of special neighbors
  special bonds CPU = 0.000 seconds
  read_data CPU = 0.003 seconds

# real units, elastic constants in GPa
#units		real
#variable cfac equal 1.01325e-4
#variable cunits string GPa

# Define minimization parameters
variable etol equal 0.0
variable ftol equal 5.0e-10
variable maxiter equal 100000
variable maxeval equal 20000
variable dmax equal 1.0e-2


include potential.mod
# NOTE: This script can be modified for different pair styles
# See in.elastic for more info.

# Setup neighbor style
neighbor 3.0 nsq
neigh_modify once no every 1 delay 0 check yes
comm_modify cutoff 2.0

# Setup minimization style
min_style	     cg
min_modify	     dmax ${dmax} line quadratic
min_modify	     dmax 0.01 line quadratic

timestep	0.001


# Setup output
thermo		500
thermo_style custom step temp pe ebond eangle edihed press pxx pyy pzz pxy pxz pyz lx ly lz vol
thermo_modify norm no


#change_box all triclinic
comm_modify mode single cutoff 10.0 vel yes
atom_modify sort 0 0



# Compute initial state

#dump rela all atom 1 traj_relax.lmpstrj
fix 3 all box/relax x 0 y 0 # xy 0  #MS comment: relax if the network is periodic
minimize ${etol} ${ftol} ${maxiter} ${maxeval}
minimize 0 ${ftol} ${maxiter} ${maxeval}
minimize 0 5e-10 ${maxiter} ${maxeval}
minimize 0 5e-10 100000 ${maxeval}
minimize 0 5e-10 100000 20000
Neighbor list info ...
  update every 1 steps, delay 0 steps, check yes
  max neighbors/atom: 2000, page size: 100000
  master list distance cutoff = 0
  ghost atom cutoff = 10
  0 neighbor lists, perpetual/occasional/extra = 0 0 0
WARNING: Inconsistent image flags (src/domain.cpp:819)
Per MPI rank memory allocation (min/avg/max) = 9.095 | 9.095 | 9.095 Mbytes
   Step          Temp          PotEng         E_bond        E_angle        E_dihed         Press           Pxx            Pyy            Pzz            Pxy            Pxz            Pyz             Lx             Ly             Lz           Volume    
         0   0              4.1893245e-11  4.1893245e-11  0              0              0.17574278     0.17673701     0.17474855     0             -0.0025992231   0              0              9.601998       9.601998       0.2            92.198366    
       500   0              4.1005167e-16  4.1005167e-16  0              0              1.5452703e-06 -4.7483178e-06  7.8388583e-06  0              0.00017567159  0              0              9.6020117      9.6020108      0.2            92.19862     
       572   0              3.5532054e-16  3.5532054e-16  0              0             -1.9978462e-07  1.8032529e-06 -2.2028222e-06  0              0.00021157801  0              0              9.6020117      9.6020108      0.2            92.19862     
Loop time of 0.0376892 on 1 procs for 572 steps with 64 atoms

100.0% CPU use with 1 MPI tasks x 1 OpenMP threads

Minimization stats:
  Stopping criterion = force tolerance
  Energy initial, next-to-last, final = 
    4.18932452737535e-11 3.55344342255486e-16 3.55320540945275e-16
  Force two-norm initial, final = 3.0670005e-05 4.4818846e-10
  Force max component initial, final = 1.4606574e-05 1.2676312e-10
  Final line search alpha, max atom move = 1 1.2676312e-10
  Iterations, force evaluations = 572 1144

MPI task timing breakdown:
Section |  min time  |  avg time  |  max time  |%varavg| %total
---------------------------------------------------------------
Pair    | 0          | 0          | 0          |   0.0 |  0.00
Bond    | 0.0053549  | 0.0053549  | 0.0053549  |   0.0 | 14.21
Neigh   | 0          | 0          | 0          |   0.0 |  0.00
Comm    | 0.011256   | 0.011256   | 0.011256   |   0.0 | 29.87
Output  | 1.4181e-05 | 1.4181e-05 | 1.4181e-05 |   0.0 |  0.04
Modify  | 0          | 0          | 0          |   0.0 |  0.00
Other   |            | 0.02106    |            |       | 55.89

Nlocal:             64 ave          64 max          64 min
Histogram: 1 0 0 0 0 0 0 0 0 0
Nghost:            542 ave         542 max         542 min
Histogram: 1 0 0 0 0 0 0 0 0 0
Neighs:              0 ave           0 max           0 min
Histogram: 1 0 0 0 0 0 0 0 0 0

Total # of neighbors = 0
Ave neighs/atom = 0
Ave special neighs/atom = 23.40625
Neighbor list builds = 0
Dangerous builds = 0
#dump rela all atom 1 traj_relax.lmpstrj
thermo 100
unfix 3

fix 2d all enforce2d



#dump dump0 all xyz 1000000 cfg0.xyz
#dump_modify dump0 format line "%d %20.10g %20.10g %20.10g"
#minimize ${etol} ${ftol} ${maxiter} ${maxeval}

#undump rela

#write_restart restart.equil

# These formulas define the derivatives w.r.t. strain components
# Constants uses $, variables use v_


timestep        ${dt}
timestep        0.01
variable nsteps equal round(${strainsteps})
variable nsteps equal round(50000)

fix             4 all nve
fix             5 all langevin 0.1 0.1 1 904297
#fix		6 all press/berendsen y  0.0 0.0 1 x 0.0 0.0 10
fix             6 all nph y 0.0 0.0 10 ptemp 0.1 # x 0.0 0.0 10

# For PLUMED2
# fix 22 all plumed plumedfile plumed.dat outfile plumed.out

#fix             6 all nph x 0.0 0.0 10
fix     	9 all deform 1 x erate -${srate} units box remap x
fix     	9 all deform 1 x erate -0.0001 units box remap x

#fix     8 all deform 1 xy erate ${srate} units box remap x



#fix    10 all ave/time

dump 1 all atom 250 deform_dump.lammpstrj


#To avoid flying ice cube phenomenon:
#fix 21 all momentum 100 linear 1 1 1 angular


run  ${nsteps}
run  50000
WARNING: One or more atoms are time integrated more than once (src/modify.cpp:292)
WARNING: Inconsistent image flags (src/domain.cpp:819)
Per MPI rank memory allocation (min/avg/max) = 7.97 | 7.97 | 7.97 Mbytes
   Step          Temp          PotEng         E_bond        E_angle        E_dihed         Press           Pxx            Pyy            Pzz            Pxy            Pxz            Pyz             Lx             Ly             Lz           Volume    
       572   0              3.5532054e-16  3.5532054e-16  0              0             -1.9978462e-07  1.8032529e-06 -2.2028222e-06  0              0.00021157801  0              0              9.6020117      9.6020108      0.2            92.19862     
       600   0.13376614     0.00018960454  0.00018960454  0              0              73.566666      140.02355      6.9098683      0              267.42183      0              0              9.6017428      9.6001352      0.2            92.178029    
       700   0.17296796     0.0009522539   0.0009522539   0              0              357.95991      727.27229     -11.530756      0             -158.855        0              0              9.6007826      9.6035218      0.2            92.201325    
       800   0.23120881     0.0010576655   0.0010576655   0              0             -147.54986     -298.40189      3.0796652      0              125.65414      0              0              9.5998224      9.6022251      0.2            92.179656    
       900   0.19534689     0.0010641254   0.0010641254   0              0              345.34703      622.92859      67.602828      0              69.874272      0              0              9.5988622      9.5990351      0.2            92.139816    
      1000   0.19327637     0.001199228    0.001199228    0              0              200.34138      296.09303      104.35889      0             -488.94804      0              0              9.597902       9.6030839      0.2            92.169458    
      1100   0.17097373     0.00085956409  0.00085956409  0              0              317.65919      594.47098      40.687228      0              416.63567      0              0              9.5969418      9.6112761      0.2            92.238858    
      1200   0.233351       0.0011308628   0.0011308628   0              0              243.01897      515.63494     -29.813338      0              118.29551      0              0              9.5959816      9.6019016      0.2            92.139671    
      1300   0.24947496     0.0013038534   0.0013038534   0              0              134.41349      509.88103     -241.23874      0             -289.30979      0              0              9.5950214      9.6093915      0.2            92.202317    
      1400   0.20780707     0.0012891115   0.0012891115   0              0              772.65154      1815.4659     -270.31239      0              0.64311227     0              0              9.5940612      9.6058538      0.2            92.159149    
      1500   0.22172704     0.001073684    0.001073684    0              0             -338.064       -328.14623     -348.17744      0             -81.859538      0              0              9.593101       9.614055       0.2            92.228601    
      1600   0.20196072     0.0010460633   0.0010460633   0              0              236.91338      874.24561     -400.63384      0             -52.594064      0              0              9.5921408      9.614421       0.2            92.22288     
      1700   0.19428251     0.0010581207   0.0010581207   0              0              250.56441      928.4005      -427.47757      0             -570.1696       0              0              9.5911806      9.6053653      0.2            92.126793    
      1800   0.22885432     0.001006619    0.001006619    0              0              15.063559      467.22657     -437.30742      0              86.875         0              0              9.5902204      9.6054999      0.2            92.118861    
      1900   0.18492102     0.0010353494   0.0010353494   0              0             -394.20379     -310.25646     -478.30541      0             -372.95738      0              0              9.5892602      9.6066671      0.2            92.12083     
      2000   0.18577948     0.0012631547   0.0012631547   0              0              453.02139      1244.522      -338.68953      0              342.36987      0              0              9.5883         9.612482       0.2            92.167361    
      2100   0.22476955     0.0011828941   0.0011828941   0              0              195.03263      573.22866     -183.36221      0             -135.91535      0              0              9.5873398      9.6097707      0.2            92.132137    
      2200   0.227649       0.0010698478   0.0010698478   0              0              118.79092      274.97906     -37.569154      0              64.484583      0              0              9.5863796      9.6123691      0.2            92.147819    
      2300   0.22297593     0.0012553295   0.0012553295   0              0             -427.73753     -1042.9776      187.31165      0              503.62689      0              0              9.5854194      9.6080031      0.2            92.09674     
      2400   0.2211417      0.0011733116   0.0011733116   0              0              972.14459      1403.2934      540.8073       0              35.643938      0              0              9.5844592      9.607217       0.2            92.07998     
      2500   0.17847002     0.0010006824   0.0010006824   0              0              1068.1846      1160.5094      975.69667      0             -28.218106      0              0              9.583499       9.6017639      0.2            92.018495    
      2600   0.19334898     0.001066378    0.001066378    0              0              1410.8842      1450.2363      1371.3372      0              48.546125      0              0              9.5825388      9.5963922      0.2            91.957801    
      2700   0.20993988     0.0012823947   0.0012823947   0              0              1365.6419      1316.7816      1414.2754      0             -405.31974      0              0              9.5815786      9.6024153      0.2            92.006297    
      2800   0.20541571     0.0012753916   0.0012753916   0              0              1102.0591      828.57193      1375.3345      0              259.31759      0              0              9.5806184      9.6116963      0.2            92.085995    
      2900   0.18168557     0.0011535006   0.0011535006   0              0              814.85491      375.19192      1254.3282      0             -19.063443      0              0              9.5796582      9.6022721      0.2            91.986484    
      3000   0.23091266     0.00094664354  0.00094664354  0              0              1396.4783      1794.9129      997.86613      0              450.70717      0              0              9.578698       9.5957378      0.2            91.914675    
      3100   0.23078657     0.0014954146   0.0014954146   0              0              1033.9109      1443.5184      624.10455      0             -37.784286      0              0              9.5777378      9.5963635      0.2            91.911454    
      3200   0.2328492      0.0011134932   0.0011134932   0              0              1145.7177      2149.655       141.55723      0             -25.676215      0              0              9.5767776      9.5998282      0.2            91.93542     
      3300   0.2007955      0.0012670577   0.0012670577   0              0              692.33977      1659.112      -274.63867      0              646.19797      0              0              9.5758174      9.6009068      0.2            91.936531    
      3400   0.18176916     0.00099000528  0.00099000528  0              0             -698.55602     -595.54319     -801.72262      0              385.74185      0              0              9.5748572      9.6082289      0.2            91.997419    
      3500   0.19524547     0.0011536307   0.0011536307   0              0             -245.02557      446.18601     -936.44782      0              272.8836       0              0              9.573897       9.5980746      0.2            91.890978    
      3600   0.20615466     0.0012866391   0.0012866391   0              0             -337.56802      515.14985     -1190.4376      0              136.91415      0              0              9.5729368      9.6041148      0.2            91.939584    
      3700   0.21648158     0.0012345494   0.0012345494   0              0             -569.96741      30.122998     -1170.2469      0              47.53639       0              0              9.5719766      9.6082163      0.2            91.969622    
      3800   0.16243625     0.0012953256   0.0012953256   0              0             -70.86089       906.23294     -1048.1575      0              83.391049      0              0              9.5710164      9.6163111      0.2            92.037871    
      3900   0.20070561     0.0013318834   0.0013318834   0              0              27.895314      872.85931     -817.27388      0             -240.21888      0              0              9.5700562      9.6140833      0.2            92.007318    
      4000   0.22876258     0.0010902908   0.0010902908   0              0             -219.49242      75.899502     -515.05363      0              516.65012      0              0              9.569096       9.6196506      0.2            92.05136     
      4100   0.20112284     0.0011081215   0.0011081215   0              0             -36.364977      183.8088      -256.73142      0              649.86407      0              0              9.5681358      9.6160696      0.2            92.00786     
      4200   0.16360289     0.0012529175   0.0012529175   0              0              997.4862       2017.4077     -22.628749      0              296.57484      0              0              9.5671756      9.6116358      0.2            91.956208    
      4300   0.20447948     0.0011263412   0.0011263412   0              0              964.74478      1804.8703      124.40028      0              771.52957      0              0              9.5662154      9.60457        0.2            91.879385    
      4400   0.1781311      0.0012071022   0.0012071022   0              0              1130.6819      1798.687       462.50073      0              165.78409      0              0              9.5652552      9.6144838      0.2            91.964991    
      4500   0.22675348     0.0009952033   0.0009952033   0              0              662.95338      697.02894      628.68368      0              233.86703      0              0              9.564295       9.6110469      0.2            91.922887    
      4600   0.1703533      0.0014182339   0.0014182339   0              0              963.25512      1141.4533      784.88937      0              667.62097      0              0              9.5633348      9.6095591      0.2            91.899431    
      4700   0.2402681      0.0010406712   0.0010406712   0              0              455.80073      186.90268      724.48094      0              64.045783      0              0              9.5623746      9.6141279      0.2            91.933892    
      4800   0.22778654     0.0011287135   0.0011287135   0              0              1229.3999      1621.7879      836.81349      0              711.32487      0              0              9.5614144      9.6121731      0.2            91.90597     
      4900   0.26726834     0.0010240064   0.0010240064   0              0              1235.263       1665.4354      804.90514      0              765.34577      0              0              9.5604542      9.6186333      0.2            91.958503    
      5000   0.21796206     0.0011395324   0.0011395324   0              0              332.58136     -9.4154355      674.37047      0              10.496363      0              0              9.559494       9.6182183      0.2            91.9453      
      5100   0.18155458     0.0012819428   0.0012819428   0              0              807.47084      1028.5922      586.15266      0              385.08947      0              0              9.5585338      9.6204012      0.2            91.95693     
      5200   0.23623096     0.0011997575   0.0011997575   0              0              1008.9935      1565.4843      452.3174       0             -108.77814      0              0              9.5575736      9.6227713      0.2            91.970344    
      5300   0.2041483      0.00097619883  0.00097619883  0              0              625.86929      1010.3926      241.13456      0              267.53276      0              0              9.5566134      9.6238043      0.2            91.970977    
      5400   0.19600128     0.0011986263   0.0011986263   0              0              531.62844      923.21682      139.87742      0              272.52819      0              0              9.5556532      9.6190793      0.2            91.916586    
      5500   0.19618979     0.001128217    0.001128217    0              0              396.63178      838.67616     -45.62318       0             -115.74416      0              0              9.554693       9.6232298      0.2            91.947006    
      5600   0.19979883     0.0012263496   0.0012263496   0              0              371.96053      929.93835     -186.22835      0              213.09028      0              0              9.5537328      9.6283676      0.2            91.986851    
      5700   0.23005405     0.0014266711   0.0014266711   0              0              394.04552      1136.7057     -348.80173      0             -254.17726      0              0              9.5527726      9.6301727      0.2            91.99485     
      5800   0.21207195     0.0013521287   0.0013521287   0              0              895.86886      2248.9944     -457.43469      0              61.714566      0              0              9.5518124      9.6324427      0.2            92.007286    
      5900   0.15896872     0.0012372442   0.0012372442   0              0              280.51844      1035.1468     -474.26269      0              288.70091      0              0              9.5508522      9.6376407      0.2            92.047681    
      6000   0.21606309     0.0015745398   0.0015745398   0              0              765.81649      2054.8066     -523.36687      0              261.67993      0              0              9.549892       9.6295801      0.2            91.96145     
      6100   0.18150219     0.0012330697   0.0012330697   0              0             -58.441008      457.54144     -574.63177      0              359.34741      0              0              9.5489318      9.6351917      0.2            92.005788    
      6200   0.2050474      0.0011137082   0.0011137082   0              0              277.62356      1193.4969     -638.46519      0              809.6431       0              0              9.5479716      9.6319001      0.2            91.965108    
      6300   0.21619051     0.001429526    0.001429526    0              0              431.94527      1512.9622     -649.2384       0             -160.90893      0              0              9.5470114      9.6357051      0.2            91.992186    
      6400   0.20116663     0.001272611    0.001272611    0              0             -85.72738       367.95822     -539.60048      0             -263.36109      0              0              9.5460512      9.6315108      0.2            91.942895    
      6500   0.22817258     0.0010773979   0.0010773979   0              0              534.58497      1616.1717     -547.16192      0             -217.89294      0              0              9.545091       9.6298808      0.2            91.918088    
      6600   0.23903416     0.0013344136   0.0013344136   0              0              824.98206      2107.3251     -457.52345      0              245.33518      0              0              9.5441308      9.6266175      0.2            91.877697    
      6700   0.21135141     0.001138392    0.001138392    0              0             -65.527359      109.30188     -240.518        0             -210.07447      0              0              9.5431706      9.6262691      0.2            91.865127    
      6800   0.20661237     0.0014056254   0.0014056254   0              0              297.8665       801.65798     -206.10762      0             -41.743251      0              0              9.5422104      9.6228304      0.2            91.823072    
      6900   0.20246144     0.0012354897   0.0012354897   0              0              566.60304      1265.4724     -132.459        0              27.856172      0              0              9.5412502      9.6263571      0.2            91.847481    
      7000   0.23901652     0.0012777463   0.0012777463   0              0              467.31439      1009.0261     -74.607619      0             -289.06836      0              0              9.54029        9.630987       0.2            91.882408    
      7100   0.24788639     0.0012333203   0.0012333203   0              0              586.03344      1068.2045      103.68791      0              497.60893      0              0              9.5393298      9.629418       0.2            91.858194    
      7200   0.241779       0.0012557859   0.0012557859   0              0             -97.214539     -340.7503       146.11302      0             -441.53641      0              0              9.5383696      9.636239       0.2            91.914008    
      7300   0.28102575     0.0011644244   0.0011644244   0              0              484.95612      687.34809      282.38106      0              10.722207      0              0              9.5374094      9.6384605      0.2            91.925944    
      7400   0.2446646      0.0010529941   0.0010529941   0              0              318.47393      270.16618      366.63528      0              523.12679      0              0              9.5364492      9.6439003      0.2            91.968565    
      7500   0.26840513     0.0012653268   0.0012653268   0              0              348.51644      249.43133      447.40359      0             -152.78269      0              0              9.535489       9.6370701      0.2            91.894175    
      7600   0.20561125     0.0010053411   0.0010053411   0              0              759.48116      906.67898      612.07705      0              622.75327      0              0              9.5345288      9.6404216      0.2            91.916877    
      7700   0.22463891     0.0011107372   0.0011107372   0              0              981.20301      1389.7687      572.4662       0             -196.22589      0              0              9.5335686      9.6456193      0.2            91.957173    
      7800   0.20771099     0.00085186502  0.00085186502  0              0              378.95075      150.84622      606.81249      0              390.31375      0              0              9.5326084      9.6435384      0.2            91.928075    
      7900   0.20847919     0.0010786029   0.0010786029   0              0              478.42771      411.72381      544.91357      0              57.847343      0              0              9.5316482      9.6384517      0.2            91.87033     
      8000   0.21832394     0.0010398983   0.0010398983   0              0              311.85125      146.39439      477.11062      0             -249.19124      0              0              9.5306879      9.6387591      0.2            91.864006    
      8100   0.18095379     0.001150675    0.001150675    0              0              90.507085     -121.49658      302.33062      0              318.76264      0              0              9.5297277      9.6455105      0.2            91.91909     
      8200   0.18939689     0.0014443708   0.0014443708   0              0             -609.18488     -1442.2553      223.72217      0              471.28195      0              0              9.5287675      9.6434777      0.2            91.890457    
      8300   0.18729965     0.0010763116   0.0010763116   0              0              27.222882     -90.639329      144.84888      0              347.16667      0              0              9.5278073      9.6437981      0.2            91.88425     
      8400   0.23220022     0.001035701    0.001035701    0              0              382.01246      624.9276       138.91264      0              262.95789      0              0              9.5268471      9.6501884      0.2            91.93587     
      8500   0.23830659     0.0011039611   0.0011039611   0              0             -82.339852     -222.82624      57.966974      0              533.23328      0              0              9.5258869      9.6534493      0.2            91.957667    
      8600   0.17704124     0.0010550728   0.0010550728   0              0              320.11526      689.26468     -49.235445      0              622.6781       0              0              9.5249267      9.6572918      0.2            91.984997    
      8700   0.19073493     0.0012656436   0.0012656436   0              0              553.12533      1242.707      -136.67429      0              195.30219      0              0              9.5239665      9.6516122      0.2            91.921631    
      8800   0.17052622     0.00090814706  0.00090814706  0              0              389.03654      946.98151     -169.09097      0             -123.0272       0              0              9.5230063      9.641716       0.2            91.818122    
      8900   0.2091473      0.0010207581   0.0010207581   0              0              768.1145       1703.8944     -167.85876      0             -381.3552       0              0              9.5220461      9.6481395      0.2            91.87003     
      9000   0.21958174     0.001196304    0.001196304    0              0              182.2667       496.66443     -132.30773      0              253.00031      0              0              9.5210859      9.6477817      0.2            91.857359    
      9100   0.16757044     0.0012107251   0.0012107251   0              0              495.51912      1202.9052     -212.06591      0             -239.52634      0              0              9.5201257      9.649543       0.2            91.864863    
      9200   0.21948092     0.0013277833   0.0013277833   0              0              486.97794      1124.3864     -150.64329      0              151.9943       0              0              9.5191655      9.6469237      0.2            91.830663    
      9300   0.23396988     0.0012410729   0.0012410729   0              0              710.66765      1590.8849     -169.75243      0             -245.17205      0              0              9.5182053      9.6368771      0.2            91.725775    
      9400   0.19530873     0.0011174502   0.0011174502   0              0              416.59338      1105.3998     -272.42921      0              239.87928      0              0              9.5172451      9.6346088      0.2            91.694934    
      9500   0.16993769     0.0010957626   0.0010957626   0              0              21.292971      346.87        -304.48072      0              281.38081      0              0              9.5162849      9.6323348      0.2            91.664042    
      9600   0.1416536      0.001283623    0.001283623    0              0              185.47427      790.69112     -419.94991      0              35.998924      0              0              9.5153247      9.6346671      0.2            91.676986    
      9700   0.1937968      0.0012712829   0.0012712829   0              0              32.448894      488.32069     -423.65136      0              576.39994      0              0              9.5143645      9.6397221      0.2            91.71583     
      9800   0.22821862     0.0011358709   0.0011358709   0              0              330.10479      1066.5179     -406.48297      0              131.80383      0              0              9.5134043      9.6353988      0.2            91.665444    
      9900   0.19299427     0.0010275073   0.0010275073   0              0             -43.414298      281.34333     -368.36202      0              103.22214      0              0              9.5124441      9.6315078      0.2            91.61918     
     10000   0.19075343     0.0010445284   0.0010445284   0              0              130.68208      653.42061     -392.25243      0              438.22138      0              0              9.5114839      9.6315701      0.2            91.610524    
     10100   0.22638999     0.0012462818   0.0012462818   0              0              445.01641      1168.046      -278.16515      0              525.60996      0              0              9.5105237      9.6370949      0.2            91.65382     
     10200   0.172183       0.0010144732   0.0010144732   0              0              576.62805      1382.951      -229.91735      0              747.93713      0              0              9.5095635      9.6380295      0.2            91.653453    
     10300   0.20108235     0.00090360902  0.00090360902  0              0              123.49744      393.67014     -146.90128      0              849.94848      0              0              9.5086033      9.6366261      0.2            91.630855    
     10400   0.21782621     0.0009779406   0.0009779406   0              0              412.36734      915.15384     -90.635034      0              60.235413      0              0              9.5076431      9.6429061      0.2            91.681309    
     10500   0.21165399     0.0010901074   0.0010901074   0              0              329.32416      705.00146     -46.544496      0              492.18124      0              0              9.5066829      9.6482149      0.2            91.72252     
     10600   0.19122351     0.0013954938   0.0013954938   0              0              650.45936      1298.9931      1.7400197      0              155.0561       0              0              9.5057227      9.6519872      0.2            91.749114    
     10700   0.20037168     0.0013410403   0.0013410403   0              0              414.18831      886.34404     -58.141923      0             -53.390526      0              0              9.5047625      9.6433671      0.2            91.657914    
     10800   0.22084166     0.00099996747  0.00099996747  0              0              675.72677      1270.9425      80.365608      0              385.56412      0              0              9.5038023      9.6430939      0.2            91.646058    
     10900   0.2192919      0.0011993721   0.0011993721   0              0              311.36011      563.9082       58.644389      0              730.45225      0              0              9.5028421      9.6434508      0.2            91.64019     
     11000   0.21603166     0.00096118455  0.00096118455  0              0              424.32313      819.71179      28.780659      0              445.50283      0              0              9.5018819      9.6435492      0.2            91.631866    
     11100   0.17117732     0.0011530913   0.0011530913   0              0              495.77137      924.11381      67.272864      0              858.81476      0              0              9.5009217      9.6402412      0.2            91.591177    
     11200   0.2123024      0.0011802288   0.0011802288   0              0              497.40393      876.68773      117.94318      0              434.69248      0              0              9.4999615      9.6394785      0.2            91.574675    
     11300   0.17357567     0.0010275237   0.0010275237   0              0              860.02398      1494.9234      224.93465      0              175.01601      0              0              9.4990013      9.637074       0.2            91.542578    
     11400   0.19547247     0.00095250998  0.00095250998  0              0              723.06579      1233.5913      212.33764      0              545.76948      0              0              9.4980411      9.6336842      0.2            91.501129    
     11500   0.18916438     0.0013901551   0.0013901551   0              0              598.07359      824.44467      371.49308      0              210.61598      0              0              9.4970809      9.6377504      0.2            91.530495    
     11600   0.19624861     0.0011886069   0.0011886069   0              0              811.31428      1196.0846      426.36646      0             -213.41421      0              0              9.4961207      9.6394419      0.2            91.537303    
     11700   0.18709814     0.0011521032   0.0011521032   0              0              966.0791       1532.596       399.37864      0              175.29387      0              0              9.4951605      9.6418853      0.2            91.551248    
     11800   0.20563071     0.0012252859   0.0012252859   0              0              384.39918      466.81501      301.79006      0             -613.26356      0              0              9.4942003      9.6459681      0.2            91.580753    
     11900   0.18046379     0.001379188    0.001379188    0              0              1115.7552      1833.7469      397.5725       0             -153.56692      0              0              9.4932401      9.6399385      0.2            91.514251    
     12000   0.27058401     0.0011636383   0.0011636383   0              0              277.31827      171.95785      382.46697      0             -454.60383      0              0              9.4922799      9.6416743      0.2            91.521471    
     12100   0.27061032     0.00095048805  0.00095048805  0              0              281.41542      223.99004      338.65934      0              73.915639      0              0              9.4913197      9.6478299      0.2            91.570638    
     12200   0.16758109     0.0010030672   0.0010030672   0              0              862.15389      1338.6085      385.48773      0              90.269599      0              0              9.4903595      9.654125       0.2            91.621117    
     12300   0.20469225     0.0010523004   0.0010523004   0              0              634.80589      870.36177      399.02792      0             -271.5134       0              0              9.4893993      9.651254       0.2            91.584603    
     12400   0.21224209     0.0012279664   0.0012279664   0              0              788.56973      1300.8717      276.07121      0             -78.87387       0              0              9.4884391      9.6548331      0.2            91.609296    
     12500   0.2426556      0.0010427021   0.0010427021   0              0              584.26247      935.17623      233.16596      0             -265.30444      0              0              9.4874789      9.6612853      0.2            91.661241    
     12600   0.20045092     0.0011934445   0.0011934445   0              0              815.13635      1453.1254      176.9369       0             -795.66981      0              0              9.4865187      9.6577929      0.2            91.618833    
     12700   0.16588544     0.0015700195   0.0015700195   0              0              349.75736      625.82023      73.494615      0             -388.62601      0              0              9.4855585      9.6530492      0.2            91.564563    
     12800   0.19726488     0.0011647204   0.0011647204   0              0              1052.7223      1962.9477      142.31385      0              490.88535      0              0              9.4845983      9.655747       0.2            91.580882    
     12900   0.20571139     0.0012503415   0.0012503415   0              0              456.21937      732.01506      180.25113      0             -163.97578      0              0              9.4836381      9.648643       0.2            91.504238    
     13000   0.21202078     0.001492968    0.001492968    0              0              1135.8133      2305.6202     -34.170851      0             -512.29777      0              0              9.4826779      9.647119       0.2            91.480522    
     13100   0.18729964     0.0013493981   0.0013493981   0              0              465.32455      1057.6808     -127.20472      0              241.92424      0              0              9.4817177      9.6431673      0.2            91.43379     
     13200   0.19202255     0.0014084895   0.0014084895   0              0              289.85007      965.26427     -385.75585      0             -353.76994      0              0              9.4807575      9.64965        0.2            91.485991    
     13300   0.22032455     0.0012444923   0.0012444923   0              0             -234.85535     -79.917857     -389.97916      0             -225.88675      0              0              9.4797973      9.6480428      0.2            91.461489    
     13400   0.20097488     0.0012189188   0.0012189188   0              0             -724.31873     -992.8205      -456.02153      0             -125.22118      0              0              9.4788371      9.6397534      0.2            91.373652    
     13500   0.20670328     0.0012766504   0.0012766504   0              0             -91.492868      221.79485     -404.93441      0              249.5809       0              0              9.4778769      9.6379786      0.2            91.347575    
     13600   0.19138873     0.001579945    0.001579945    0              0             -219.21599      13.635092     -452.28158      0              142.38764      0              0              9.4769167      9.6329308      0.2            91.290482    
     13700   0.21784409     0.0014571216   0.0014571216   0              0              141.42577      857.43316     -574.78799      0              60.01626       0              0              9.4759565      9.6382894      0.2            91.332011    
     13800   0.21591027     0.0011218307   0.0011218307   0              0             -201.01571      316.33135     -718.56885      0              69.843551      0              0              9.4749963      9.6371711      0.2            91.312161    
     13900   0.21397417     0.0011837216   0.0011837216   0              0             -462.64301     -69.19208      -856.29732      0              225.0276       0              0              9.4740361      9.6374297      0.2            91.305357    
     14000   0.21160902     0.0013553867   0.0013553867   0              0              209.56991      1334.5259     -915.58906      0             -240.50128      0              0              9.4730759      9.6358248      0.2            91.2809      
     14100   0.18915906     0.0016292487   0.0016292487   0              0              81.463632      1170.0455     -1007.2814      0             -50.59409       0              0              9.4721157      9.6348801      0.2            91.262699    
     14200   0.23354415     0.0012191485   0.0012191485   0              0             -412.68263      204.15713     -1029.7292      0             -383.5489       0              0              9.4711555      9.6298174      0.2            91.205498    
     14300   0.178425       0.0012273129   0.0012273129   0              0              433.86711      1867.4252     -999.84303      0             -409.39398      0              0              9.4701953      9.634031       0.2            91.236155    
     14400   0.22995018     0.0012042465   0.0012042465   0              0             -249.31487      439.9323      -938.7231       0             -326.61402      0              0              9.4692351      9.6303446      0.2            91.191997    
     14500   0.14493753     0.0012524538   0.0012524538   0              0             -348.00898      181.90231     -878.10467      0             -179.89315      0              0              9.4682749      9.627377       0.2            91.154652    
     14600   0.24002625     0.0013756502   0.0013756502   0              0              27.107618      891.39385     -837.36017      0              240.1216       0              0              9.4673147      9.626176       0.2            91.134037    
     14700   0.23775991     0.0011916419   0.0011916419   0              0             -524.56571     -329.62625     -719.7149       0              17.267165      0              0              9.4663545      9.6227662      0.2            91.092516    
     14800   0.20788453     0.0013779451   0.0013779451   0              0             -2.1187803      635.93199     -640.35993      0             -309.48796      0              0              9.4653943      9.6221106      0.2            91.077071    
     14900   0.18996534     0.0012030216   0.0012030216   0              0              27.416043      715.11099     -660.48169      0              435.37457      0              0              9.4644341      9.6326963      0.2            91.168019    
     15000   0.22446458     0.0011815116   0.0011815116   0              0              46.605135      675.20104     -582.17118      0              202.63171      0              0              9.4634739      9.6313645      0.2            91.146167    
     15100   0.15732933     0.0012386577   0.0012386577   0              0              174.48912      790.19711     -441.48101      0             -694.69003      0              0              9.4625137      9.6246604      0.2            91.07348     
     15200   0.22383555     0.0012696994   0.0012696994   0              0              465.21625      1400.0531     -469.80317      0             -112.60999      0              0              9.4615535      9.6304903      0.2            91.119399    
     15300   0.19392311     0.0013182296   0.0013182296   0              0              246.62988      916.87225     -423.78701      0              10.256153      0              0              9.4605933      9.6266042      0.2            91.073387    
     15400   0.23639863     0.0013245633   0.0013245633   0              0              763.23097      1959.9649     -433.6875       0              407.79845      0              0              9.4596331      9.6220136      0.2            91.020718    
     15500   0.17903316     0.0011873668   0.0011873668   0              0              781.56466      1858.3175     -295.40372      0             -291.17083      0              0              9.4586729      9.6228487      0.2            91.019378    
     15600   0.16655144     0.0010854757   0.0010854757   0              0              301.05772      741.65513     -139.71169      0              75.354012      0              0              9.4577127      9.6158277      0.2            90.943735    
     15700   0.16832374     0.0013972143   0.0013972143   0              0              779.73006      1609.7849     -50.488028      0             -96.57115       0              0              9.4567525      9.609651       0.2            90.876091    
     15800   0.19592217     0.0013335543   0.0013335543   0              0              1313.7238      2644.7806     -17.522347      0              703.32084      0              0              9.4557923      9.6122165      0.2            90.891123    
     15900   0.23516291     0.0012647155   0.0012647155   0              0              1024.6035      1975.2412      73.79937       0              312.07121      0              0              9.4548321      9.61597        0.2            90.917381    
     16000   0.22585606     0.0012015821   0.0012015821   0              0              508.12893      888.41578      127.6796       0             -147.24398      0              0              9.4538719      9.6131776      0.2            90.88175     
     16100   0.21657547     0.0012734772   0.0012734772   0              0              681.7767       1127.5513      235.78632      0              29.183744      0              0              9.4529117      9.6156973      0.2            90.896337    
     16200   0.22357979     0.0011760015   0.0011760015   0              0              652.08603      1063.6419      240.33659      0             -6.6438916      0              0              9.4519515      9.6120614      0.2            90.852738    
     16300   0.1840694      0.0012503471   0.0012503471   0              0              831.06223      1521.1452      140.77448      0             -413.12756      0              0              9.4509913      9.6148773      0.2            90.870121    
     16400   0.17639458     0.0013608212   0.0013608212   0              0              722.94094      1455.4408     -9.7570029      0             -36.192209      0              0              9.4500311      9.608121       0.2            90.797042    
     16500   0.20172989     0.0012126268   0.0012126268   0              0              248.24364      478.85049      17.416802      0              57.450307      0              0              9.4490708      9.6081328      0.2            90.787928    
     16600   0.2296659      0.0012671912   0.0012671912   0              0              249.47442      482.32811      16.461365      0             -82.260513      0              0              9.4481106      9.6064316      0.2            90.762628    
     16700   0.24525947     0.0015340474   0.0015340474   0              0              660.27121      1169.9126      150.43916      0             -36.956977      0              0              9.4471504      9.6008863      0.2            90.701017    
     16800   0.19125971     0.0015501372   0.0015501372   0              0             -115.30396     -388.84295      158.08524      0              341.65754      0              0              9.4461902      9.5975225      0.2            90.660023    
     16900   0.17192292     0.0014503931   0.0014503931   0              0             -530.14271     -1143.5791      83.083759      0              777.64811      0              0              9.44523        9.6048646      0.2            90.720156    
     17000   0.18052777     0.0016142346   0.0016142346   0              0              599.00027      1154.4476      43.324883      0             -161.96451      0              0              9.4442698      9.6026445      0.2            90.689966    
     17100   0.204852       0.0013029175   0.0013029175   0              0              422.5807       824.70704      20.249354      0             -183.2419       0              0              9.4433096      9.6066886      0.2            90.718935    
     17200   0.22197427     0.001337914    0.001337914    0              0              617.43102      1167.3802      67.305212      0              93.176131      0              0              9.4423494      9.6133824      0.2            90.772916    
     17300   0.22403411     0.0013455603   0.0013455603   0              0              1050.3676      2041.7671      58.799371      0              564.80374      0              0              9.4413892      9.6084534      0.2            90.717149    
     17400   0.18536223     0.0013845606   0.0013845606   0              0              776.77643      1391.0375      162.33974      0             -100.16944      0              0              9.440429       9.6044854      0.2            90.670462    
     17500   0.26115988     0.001421324    0.001421324    0              0              365.48069      491.32448      239.41166      0              75.938813      0              0              9.4394688      9.6049747      0.2            90.66586     
     17600   0.15636521     0.0016317419   0.0016317419   0              0              576.10698      877.48913      274.51336      0             -402.30044      0              0              9.4385086      9.6061675      0.2            90.667895    
     17700   0.2170044      0.0015444426   0.0015444426   0              0              565.56763      896.86563      234.04184      0              417.44066      0              0              9.4375484      9.6101957      0.2            90.696688    
     17800   0.22947023     0.0015568456   0.0015568456   0              0              754.05259      1338.8281      169.11251      0              382.56447      0              0              9.4365882      9.6154521      0.2            90.737062    
     17900   0.19468693     0.0013872314   0.0013872314   0              0              649.1115       1104.4627      193.53918      0              284.69325      0              0              9.435628       9.6095815      0.2            90.672437    
     18000   0.21693711     0.0014171807   0.0014171807   0              0              1038.5701      1873.2763      203.69961      0              562.0698       0              0              9.4346678      9.6044623      0.2            90.614911    
     18100   0.20990236     0.0013387946   0.0013387946   0              0              509.69615      914.87         104.30846      0              105.93511      0              0              9.4337076      9.5965437      0.2            90.530988    
     18200   0.14714984     0.0013748296   0.0013748296   0              0              187.33984      278.29195      96.205692      0              677.59701      0              0              9.4327474      9.5896405      0.2            90.456657    
     18300   0.20381842     0.0013009606   0.0013009606   0              0              818.20582      1413.7669      222.43133      0              787.91332      0              0              9.4317872      9.5895914      0.2            90.446986    
     18400   0.19710431     0.0013837467   0.0013837467   0              0              567.60151      844.97981      290.05813      0              57.432779      0              0              9.430827       9.5955284      0.2            90.493769    
     18500   0.25060905     0.0013976805   0.0013976805   0              0              1053.1473      1752.6495      353.43053      0              347.5212       0              0              9.4298668      9.5907643      0.2            90.43963     
     18600   0.19985645     0.0010858963   0.0010858963   0              0              392.91039      299.9306       485.67247      0             -70.06728       0              0              9.4289066      9.5938719      0.2            90.459722    
     18700   0.14848561     0.0013948308   0.0013948308   0              0              800.6471       876.39465      724.70805      0              396.10972      0              0              9.4279464      9.6014525      0.2            90.52198     
     18800   0.20724871     0.0013453305   0.0013453305   0              0              1320.2919      1638.4125      1001.9689      0             -280.54253      0              0              9.4269862      9.5981144      0.2            90.481292    
     18900   0.2030621      0.0015223325   0.0015223325   0              0              979.03007      779.14953      1178.7438      0              505.11614      0              0              9.426026       9.5924576      0.2            90.418755    
     19000   0.24756849     0.0013882459   0.0013882459   0              0              1310.8994      1223.9104      1397.6883      0              424.7343       0              0              9.4250658      9.5885672      0.2            90.372877    
     19100   0.2241596      0.0013817829   0.0013817829   0              0              1592.8454      1624.2977      1561.2436      0              658.3306       0              0              9.4241056      9.5920881      0.2            90.396851    
     19200   0.18702952     0.0017215529   0.0017215529   0              0              2239.5965      2812.9666      1666.0376      0             -296.82076      0              0              9.4231454      9.5910603      0.2            90.377956    
     19300   0.21441691     0.0013285541   0.0013285541   0              0              2133.0057      2497.9921      1767.83        0             -97.882509      0              0              9.4221852      9.5889239      0.2            90.348617    
     19400   0.20564433     0.0013876071   0.0013876071   0              0              1715.5323      1543.2002      1887.6635      0              377.91065      0              0              9.421225       9.5787493      0.2            90.243553    
     19500   0.20207842     0.0013357122   0.0013357122   0              0              2052.3821      2299.3335      1805.219       0             -101.7282       0              0              9.4202648      9.5834504      0.2            90.278641    
     19600   0.19843067     0.0016041009   0.0016041009   0              0              1319.0493      939.32753      1698.579       0              156.22172      0              0              9.4193046      9.5818198      0.2            90.25408     
     19700   0.21615067     0.0011984075   0.0011984075   0              0              2083.2617      2474.8063      1691.5056      0             -75.421601      0              0              9.4183444      9.5859861      0.2            90.284119    
     19800   0.1890199      0.0014109204   0.0014109204   0              0              979.05244      406.4466       1551.4604      0              104.96143      0              0              9.4173842      9.5904481      0.2            90.316935    
     19900   0.21610408     0.0010049759   0.0010049759   0              0              1523.59        1647.5835      1399.3972      0              105.34135      0              0              9.416424       9.5943687      0.2            90.344644    
     20000   0.18505926     0.0012081339   0.0012081339   0              0              1875.641       2570.2958      1180.7886      0              154.24752      0              0              9.4154638      9.6021768      0.2            90.408948    
     20100   0.19578137     0.0012011613   0.0012011613   0              0              1314.1041      1576.6405      1051.376       0              198.63488      0              0              9.4145036      9.6060815      0.2            90.436489    
     20200   0.23627006     0.0012628711   0.0012628711   0              0              1060.6379      1125.881       995.18604      0             -340.25942      0              0              9.4135434      9.6026741      0.2            90.395189    
     20300   0.20896574     0.0016147244   0.0016147244   0              0              993.91187      1056.4023      931.20952      0             -740.3269       0              0              9.4125832      9.6007456      0.2            90.367817    
     20400   0.18874133     0.0014131548   0.0014131548   0              0              1105.1743      1237.5098      972.6236       0             -47.493509      0              0              9.411623       9.5920383      0.2            90.276649    
     20500   0.2044135      0.0013866984   0.0013866984   0              0              1537.0932      2096.2112      977.79893      0             -632.69695      0              0              9.4106628      9.5962178      0.2            90.30677     
     20600   0.22103202     0.0013680315   0.0013680315   0              0              791.81617      822.99084      760.44484      0             -215.1075       0              0              9.4097026      9.603651       0.2            90.367499    
     20700   0.17890034     0.0013990069   0.0013990069   0              0              856.71637      1110.2194      603.01467      0             -317.73873      0              0              9.4087424      9.6088247      0.2            90.406956    
     20800   0.21249807     0.0013631747   0.0013631747   0              0              1095.9393      1784.8153      406.9013       0              133.76772      0              0              9.4077822      9.6005151      0.2            90.319555    
     20900   0.24924461     0.0012720061   0.0012720061   0              0              400.90144      539.01231      262.56885      0              83.669204      0              0              9.406822       9.603938       0.2            90.342535    
     21000   0.22135864     0.0014265327   0.0014265327   0              0              1258.34        2323.0553      193.40995      0              24.795795      0              0              9.4058618      9.5965805      0.2            90.26411     
     21100   0.17287341     0.0013694059   0.0013694059   0              0              884.9568       1701.8634      67.833638      0              637.32501      0              0              9.4049016      9.5954054      0.2            90.243844    
     21200   0.28216112     0.0012403618   0.0012403618   0              0              1329.4607      2677.6875     -18.974937      0             -652.01849      0              0              9.4039414      9.6065011      0.2            90.338973    
     21300   0.19809451     0.0013632787   0.0013632787   0              0              992.2229       1948.8642      35.38557       0             -704.27967      0              0              9.4029812      9.6102468      0.2            90.36497     
     21400   0.17387265     0.0014913212   0.0014913212   0              0             -37.216869     -123.18917      48.554157      0              299.54692      0              0              9.402021       9.6084173      0.2            90.338541    
     21500   0.22290127     0.0013017454   0.0013017454   0              0              448.65605      733.77799      163.32367      0             -257.7325       0              0              9.4010608      9.6071434      0.2            90.317339    
     21600   0.24786512     0.0013476419   0.0013476419   0              0              475.32913      791.38363      159.06499      0              87.828106      0              0              9.4001006      9.6050323      0.2            90.288269    
     21700   0.2298788      0.0014014306   0.0014014306   0              0              634.20207      1083.0709      185.14978      0              54.314692      0              0              9.3991404      9.6039591      0.2            90.26896     
     21800   0.19609027     0.0015151315   0.0015151315   0              0              968.32314      1630.2176      306.24493      0              463.7351       0              0              9.3981802      9.5990728      0.2            90.213816    
     21900   0.20634563     0.0012752145   0.0012752145   0              0              659.80206      954.27339      365.12914      0             -244.53808      0              0              9.39722        9.5987366      0.2            90.201439    
     22000   0.20343826     0.0014419206   0.0014419206   0              0              936.35498      1505.4138      367.11319      0             -772.91438      0              0              9.3962598      9.5998315      0.2            90.202511    
     22100   0.21998338     0.0013299063   0.0013299063   0              0              294.97461      107.68445      482.06169      0             -142.62403      0              0              9.3952996      9.6026537      0.2            90.219808    
     22200   0.25293358     0.0014158528   0.0014158528   0              0              1166.3522      1856.7438      475.80174      0             -463.81008      0              0              9.3943394      9.5991195      0.2            90.177386    
     22300   0.202726       0.0013642465   0.0013642465   0              0              898.30424      1228.5455      567.89802      0              175.88492      0              0              9.3933792      9.5972033      0.2            90.150169    
     22400   0.22296425     0.0014918025   0.0014918025   0              0              1407.0056      2254.035       559.80856      0              810.26128      0              0              9.392419       9.5991931      0.2            90.159643    
     22500   0.20227342     0.0013320858   0.0013320858   0              0              756.19284      1081.5985      430.60795      0              278.0394       0              0              9.3914588      9.5972951      0.2            90.132602    
     22600   0.18971422     0.0012743499   0.0012743499   0              0              1050.915       1644.5286      457.13747      0              1015.716       0              0              9.3904986      9.6020285      0.2            90.167835    
     22700   0.18425751     0.0014412244   0.0014412244   0              0              717.04308      1022.8647      411.06752      0              469.7793       0              0              9.3895384      9.6039486      0.2            90.176644    
     22800   0.1761061      0.0015677488   0.0015677488   0              0              1231.8012      2068.8289      394.57117      0              518.26632      0              0              9.3885782      9.6038077      0.2            90.166099    
     22900   0.17812949     0.0013485609   0.0013485609   0              0              1312.8251      2171.3253      454.10107      0             -53.477811      0              0              9.387618       9.6046508      0.2            90.164792    
     23000   0.21578182     0.0011867725   0.0011867725   0              0              1070.8625      1634.3592      507.18016      0             -83.753424      0              0              9.3866578      9.6036757      0.2            90.146418    
     23100   0.1656316      0.001596981    0.001596981    0              0              292.84274      52.489107      533.00022      0              860.10302      0              0              9.3856976      9.6091837      0.2            90.188892    
     23200   0.21545858     0.0014279972   0.0014279972   0              0              1136.1255      1844.6433      427.42135      0              280.85231      0              0              9.3847374      9.607857       0.2            90.167214    
     23300   0.16401534     0.0014287245   0.0014287245   0              0              468.19923      564.51981      371.69211      0             -527.19717      0              0              9.3837772      9.6043495      0.2            90.125076    
     23400   0.19453383     0.0013982017   0.0013982017   0              0              1252.0192      2142.3886      361.47368      0             -115.48997      0              0              9.382817       9.6136527      0.2            90.203144    
     23500   0.21228343     0.0013065868   0.0013065868   0              0              1339.2624      2350.9311      327.40916      0              149.59798      0              0              9.3818568      9.6031529      0.2            90.095405    
     23600   0.23500791     0.0010989425   0.0010989425   0              0              760.55757      1279.5253      241.38827      0              469.37363      0              0              9.3808966      9.6099175      0.2            90.149642    
     23700   0.19308794     0.0013842254   0.0013842254   0              0              266.5524       265.71401      267.21787      0              766.52032      0              0              9.3799364      9.6056645      0.2            90.100522    
     23800   0.21020922     0.0014361538   0.0014361538   0              0              465.60039      792.8977       138.06848      0              961.97115      0              0              9.3789762      9.5975029      0.2            90.014751    
     23900   0.20138252     0.0011537628   0.0011537628   0              0              749.7285       1363.9982      135.22658      0              387.18036      0              0              9.378016       9.6026636      0.2            90.053932    
     24000   0.20331481     0.0012567578   0.0012567578   0              0              296.50593      449.39254      143.4082       0              554.34507      0              0              9.3770558      9.6018781      0.2            90.037347    
     24100   0.20981972     0.0013276773   0.0013276773   0              0              727.47195      1479.8847     -25.116498      0             -253.68975      0              0              9.3760956      9.5968733      0.2            89.981201    
     24200   0.21226093     0.0013829741   0.0013829741   0              0             -14.343527      1.6041101     -30.484732      0              319.34499      0              0              9.3751354      9.6000063      0.2            90.001359    
     24300   0.18498723     0.0013714329   0.0013714329   0              0             -159.58196     -232.2905      -87.101716      0              771.76515      0              0              9.3741752      9.5910168      0.2            89.907871    
     24400   0.2103232      0.0015015983   0.0015015983   0              0              548.87669      1224.5867     -127.02389      0              278.1091       0              0              9.373215       9.6033098      0.2            90.013887    
     24500   0.23349825     0.0014686755   0.0014686755   0              0              552.65205      1239.2909     -134.20931      0             -388.51724      0              0              9.3722548      9.6099909      0.2            90.067283    
     24600   0.20364897     0.0015772768   0.0015772768   0              0              831.23631      1932.1838     -269.88646      0              241.4616       0              0              9.3712946      9.6123007      0.2            90.079702    
     24700   0.19880842     0.00141362     0.00141362     0              0              669.4538       1607.57       -268.86061      0              425.40202      0              0              9.3703344      9.6107294      0.2            90.055748    
     24800   0.17598235     0.0013932675   0.0013932675   0              0              751.53213      1814.2008     -311.29043      0              0.23125471     0              0              9.3693742      9.6140777      0.2            90.077892    
     24900   0.20406075     0.0013435637   0.0013435637   0              0             -218.50229     -109.71843     -327.5073       0              34.40742       0              0              9.368414       9.6090835      0.2            90.021872    
     25000   0.21184888     0.0016060608   0.0016060608   0              0              323.10073      855.09078     -209.08265      0              214.43301      0              0              9.3674538      9.6090063      0.2            90.011923    
     25100   0.19758634     0.0013160784   0.0013160784   0              0              437.48846      941.00597     -66.240561      0             -751.11984      0              0              9.3664935      9.6070553      0.2            89.984422    
     25200   0.26473831     0.0013348333   0.0013348333   0              0              1224.0304      2448.566      -0.67567621     0              404.69829      0              0              9.3655333      9.6155654      0.2            90.054898    
     25300   0.22260029     0.0015443378   0.0015443378   0              0              1129.3723      2322.7406     -64.195868      0             -352.27152      0              0              9.3645731      9.6144574      0.2            90.03529     
     25400   0.20564693     0.001400951    0.001400951    0              0              654.20932      1380.2793     -72.00675       0             -241.79864      0              0              9.3636129      9.6212829      0.2            90.089969    
     25500   0.18619171     0.0012326143   0.0012326143   0              0              655.8026       1373.5673     -62.189365      0             -364.01906      0              0              9.3626527      9.6127784      0.2            90.001106    
     25600   0.2455871      0.0012277202   0.0012277202   0              0              562.05302      1062.3223      61.62911       0             -285.55512      0              0              9.3616925      9.6107156      0.2            89.972565    
     25700   0.20778372     0.0015592586   0.0015592586   0              0              715.90704      1251.1688      180.44346      0             -441.72168      0              0              9.3607323      9.61025        0.2            89.958978    
     25800   0.24184974     0.0013487958   0.0013487958   0              0              1319.2977      2300.3771      338.04606      0             -126.02672      0              0              9.3597721      9.6054544      0.2            89.904865    
     25900   0.26050753     0.0012930368   0.0012930368   0              0              252.19473      289.45753      214.75092      0             -689.95801      0              0              9.3588119      9.5994512      0.2            89.839459    
     26000   0.20473342     0.001362503    0.001362503    0              0              47.977443     -77.895317      173.61174      0             -55.599766      0              0              9.3578517      9.5885661      0.2            89.72838     
     26100   0.17676065     0.0015896197   0.0015896197   0              0              726.75354      1441.103       12.231895      0              532.98606      0              0              9.3568915      9.596537       0.2            89.793756    
     26200   0.1904508      0.0013464536   0.0013464536   0              0              518.96492      1005.3181      32.375026      0             -576.62143      0              0              9.3559313      9.6027452      0.2            89.842625    
     26300   0.22624605     0.0014160997   0.0014160997   0              0              783.00777      1554.4322      11.373471      0             -138.11511      0              0              9.3549711      9.5995814      0.2            89.803806    
     26400   0.25704612     0.0014540851   0.0014540851   0              0              520.90754      1109.7772     -68.156156      0             -208.21529      0              0              9.3540109      9.6055751      0.2            89.850655    
     26500   0.23576669     0.0013159803   0.0013159803   0              0              1050.9731      1999.1544      102.62188      0             -347.71357      0              0              9.3530507      9.5979533      0.2            89.770144    
     26600   0.23730761     0.0013020787   0.0013020787   0              0              194.16492      373.43746      14.688013      0             -46.735432      0              0              9.3520905      9.5964447      0.2            89.746819    
     26700   0.224787       0.0012589152   0.0012589152   0              0              524.92607      1038.3855      11.301357      0              337.87833      0              0              9.3511303      9.5910209      0.2            89.686886    
     26800   0.18682623     0.0012126934   0.0012126934   0              0              930.16227      1883.7489     -23.611134      0             -343.76025      0              0              9.3501701      9.5941326      0.2            89.706772    
     26900   0.16129554     0.0014447728   0.0014447728   0              0              176.34644      381.62467     -29.117416      0              769.88749      0              0              9.3492099      9.5967829      0.2            89.722338    
     27000   0.19207067     0.0014650808   0.0014650808   0              0              864.67534      1813.2576     -84.109626      0             -174.32812      0              0              9.3482497      9.5924866      0.2            89.67296     
     27100   0.18859557     0.0013619181   0.0013619181   0              0              402.82958      838.3412      -32.888563      0             -26.790982      0              0              9.3472895      9.595225       0.2            89.689346    
     27200   0.1846828      0.001232016    0.001232016    0              0              759.87612      1581.4965     -61.946006      0             -193.75984      0              0              9.3463293      9.5876229      0.2            89.609081    
     27300   0.2052966      0.0013233739   0.0013233739   0              0              135.97843      373.63432     -101.86647      0              569.71255      0              0              9.3453691      9.5851324      0.2            89.5766      
     27400   0.18998146     0.0013743951   0.0013743951   0              0              572.64626      1192.8744     -47.815743      0              265.15614      0              0              9.3444089      9.5870273      0.2            89.585103    
     27500   0.17740367     0.0012307876   0.0012307876   0              0              1154.329       2427.1434     -118.696        0              108.50156      0              0              9.3434487      9.5932633      0.2            89.634164    
     27600   0.20585238     0.0014492861   0.0014492861   0              0              459.79194      1047.4367     -128.04628      0              16.732709      0              0              9.3424885      9.5867382      0.2            89.563992    
     27700   0.19887781     0.0012894562   0.0012894562   0              0              992.89869      2056.6243     -71.029425      0              209.69305      0              0              9.3415283      9.5902985      0.2            89.588045    
     27800   0.2341844      0.0013697701   0.0013697701   0              0              627.05525      1268.6293     -14.741088      0              248.55709      0              0              9.3405681      9.5915195      0.2            89.590241    
     27900   0.18765011     0.001483851    0.001483851    0              0              834.425        1637.1742      31.433168      0             -14.904847      0              0              9.3396079      9.5964607      0.2            89.62718     
     28000   0.2524025      0.0016789287   0.0016789287   0              0              496.08378      891.66731      100.30166      0             -347.75523      0              0              9.3386477      9.5874235      0.2            89.53357     
     28100   0.21686438     0.0013209701   0.0013209701   0              0              1524.5064      2956.6963      92.13552       0              32.177356      0              0              9.3376875      9.5847084      0.2            89.499012    
     28200   0.23120571     0.0011779473   0.0011779473   0              0              881.76681      1669.7946      93.553012      0              439.0704       0              0              9.3367273      9.5780885      0.2            89.428001    
[...]
     43300   0.24039598     0.001525991    0.001525991    0              0             -132.73391      597.87888     -863.5268       0              311.64426      0              0              9.1917369      9.4816188      0.2            87.152546    
     43400   0.23380468     0.0016459492   0.0016459492   0              0             -375.59442      175.07982     -926.47822      0             -7.2868089      0              0              9.1907767      9.4828549      0.2            87.154802    
     43500   0.2122533      0.0015326628   0.0015326628   0              0              191.94833      1472.9458     -1089.2068      0             -748.39698      0              0              9.1898165      9.4814459      0.2            87.132748    
     43600   0.20647977     0.001610239    0.001610239    0              0              360.34172      1780.2555     -1059.7337      0             -675.78216      0              0              9.1888563      9.4898208      0.2            87.2006      
     43700   0.19730462     0.0017931992   0.0017931992   0              0             -759.55966     -329.28086     -1190.0607      0              394.71266      0              0              9.1878961      9.484426       0.2            87.141921    
     43800   0.19220888     0.0016519375   0.0016519375   0              0             -668.70148     -160.06187     -1177.5276      0              14.298324      0              0              9.1869359      9.4758833      0.2            87.054333    
     43900   0.19469787     0.0016526088   0.0016526088   0              0              162.63431      1397.3969     -1072.3412      0              124.56908      0              0              9.1859757      9.4701213      0.2            86.992304    
     44000   0.2011214      0.0015860199   0.0015860199   0              0             -393.1768       265.05442     -1051.606       0              737.48654      0              0              9.1850155      9.4592417      0.2            86.883282    
     44100   0.20686498     0.0016021299   0.0016021299   0              0             -257.31507      456.40432     -971.27108      0              787.64258      0              0              9.1840553      9.4644913      0.2            86.922412    
     44200   0.23933008     0.0015800402   0.0015800402   0              0             -149.85326      573.55922     -873.46643      0              640.82818      0              0              9.1830951      9.4674601      0.2            86.940587    
     44300   0.21859787     0.0015267704   0.0015267704   0              0             -427.33674     -218.46375     -636.44757      0              80.88469       0              0              9.1821349      9.4644496      0.2            86.903853    
     44400   0.21604608     0.0015963085   0.0015963085   0              0             -140.67357      31.129975     -312.71758      0             -335.01066      0              0              9.1811747      9.4573873      0.2            86.829925    
     44500   0.21687625     0.0015267208   0.0015267208   0              0             -105.77714     -22.122321     -189.61681      0              213.11633      0              0              9.1802145      9.4585691      0.2            86.831693    
     44600   0.15299002     0.0014032078   0.0014032078   0              0              20.638587      4.1271965      36.956825      0             -235.77749      0              0              9.1792543      9.4521283      0.2            86.763489    
     44700   0.22161399     0.0015521273   0.0015521273   0              0              215.79332      300.16215      131.18792      0             -200.14109      0              0              9.1782941      9.444685       0.2            86.686097    
     44800   0.20297        0.001590819    0.001590819    0              0              62.503814     -290.75136      415.5425       0              11.722171      0              0              9.1773339      9.4519719      0.2            86.743902    
     44900   0.15089055     0.0014922371   0.0014922371   0              0              935.64994      1199.6386      671.41214      0              39.395553      0              0              9.1763737      9.4499095      0.2            86.715901    
     45000   0.21043038     0.0015680154   0.0015680154   0              0              923.54728      1086.457       760.45652      0              315.47468      0              0              9.1754135      9.4492871      0.2            86.701116    
     45100   0.20937267     0.0015363305   0.0015363305   0              0              792.93087      761.95537      823.71505      0             -102.49285      0              0              9.1744533      9.4364989      0.2            86.574719    
     45200   0.27206402     0.0014172995   0.0014172995   0              0              1265.1399      1598.7506      931.31953      0             -401.35824      0              0              9.1734931      9.4419118      0.2            86.615313    
     45300   0.22623098     0.0016749701   0.0016749701   0              0              454.83182      11.145849      898.30754      0             -189.24303      0              0              9.1725329      9.4483124      0.2            86.664956    
     45400   0.19693463     0.0016873959   0.0016873959   0              0              1033.6513      1089.4363      977.66044      0             -167.47386      0              0              9.1715727      9.454739       0.2            86.714826    
     45500   0.239823       0.0013013279   0.0013013279   0              0              1255.7298      1574.3854      936.89953      0             -335.37045      0              0              9.1706125      9.4475003      0.2            86.639364    
     45600   0.18268647     0.0017311267   0.0017311267   0              0              1626.6923      2232.3988      1020.8001      0             -506.70552      0              0              9.1696523      9.4441779      0.2            86.599828    
     45700   0.2143004      0.0018150751   0.0018150751   0              0              1832.9585      2797.8906      867.77668      0             -105.23095      0              0              9.1686921      9.4455302      0.2            86.603158    
     45800   0.20339676     0.0015266735   0.0015266735   0              0              1172.0043      1504.8792      838.93417      0              724.85287      0              0              9.1677319      9.4548679      0.2            86.679694    
     45900   0.15952058     0.0016154066   0.0016154066   0              0              739.75258      635.66559      843.64909      0             -573.32019      0              0              9.1667717      9.4441319      0.2            86.572201    
     46000   0.19778401     0.0017871529   0.0017871529   0              0              1181.4166      1601.8926      760.72727      0             -222.51016      0              0              9.1658115      9.4459364      0.2            86.579672    
     46100   0.2108003      0.0015888009   0.0015888009   0              0              1596.4073      2375.6305      817.03857      0             -696.18104      0              0              9.1648513      9.4443077      0.2            86.555676    
     46200   0.19314014     0.0014795332   0.0014795332   0              0              1417.1513      2138.353       695.7469       0             -404.12426      0              0              9.1638911      9.4474373      0.2            86.575287    
     46300   0.21600641     0.0015973033   0.0015973033   0              0              1081.7931      1666.4384      496.97874      0             -445.58134      0              0              9.1629309      9.454032       0.2            86.626642    
     46400   0.23074732     0.0018122597   0.0018122597   0              0              551.56958      747.0853       355.8408       0              32.062362      0              0              9.1619707      9.4534363      0.2            86.612106    
     46500   0.22388747     0.0014674691   0.0014674691   0              0              812.75099      1348.1362      277.16012      0             -164.83659      0              0              9.1610105      9.4542682      0.2            86.61065     
     46600   0.19872688     0.0015183639   0.0015183639   0              0              797.19964      1474.5709      119.61547      0             -519.04175      0              0              9.1600503      9.4473347      0.2            86.538061    
     46700   0.20994927     0.0014644348   0.0014644348   0              0              788.15726      1546.7036      29.414892      0              43.019603      0              0              9.1590901      9.4538979      0.2            86.589102    
     46800   0.21024407     0.0016516888   0.0016516888   0              0              142.29319      273.6923       10.698715      0             -197.92646      0              0              9.1581299      9.4451235      0.2            86.499668    
     46900   0.19321226     0.0014695762   0.0014695762   0              0             -57.813155     -192.10861      76.279229      0             -260.56042      0              0              9.1571697      9.4520323      0.2            86.553863    
     47000   0.21646056     0.0017450271   0.0017450271   0              0              547.96892      849.25678      246.41556      0             -197.92967      0              0              9.1562095      9.4451008      0.2            86.481321    
     47100   0.2105882      0.0016590038   0.0016590038   0              0              656.44871      1140.4947      172.20125      0             -36.774422      0              0              9.1552493      9.4427985      0.2            86.451174    
     47200   0.20394543     0.0018169814   0.0018169814   0              0              303.72305      527.15004      80.106095      0             -255.0321       0              0              9.1542891      9.4486369      0.2            86.495553    
     47300   0.21346907     0.0014941468   0.0014941468   0              0              988.38301      1949.8889      26.654265      0             -134.81702      0              0              9.1533289      9.4442421      0.2            86.446254    
     47400   0.27227797     0.0015139941   0.0015139941   0              0              575.66148      1174.414      -23.277221      0             -355.7275       0              0              9.1523687      9.4477127      0.2            86.46895     
     47500   0.19569767     0.0015752751   0.0015752751   0              0              586.14619      1222.2805     -50.194194      0             -141.94982      0              0              9.1514085      9.4386845      0.2            86.377257    
     47600   0.19469897     0.0014859864   0.0014859864   0              0              220.38611      556.27779     -115.72966      0             -122.77195      0              0              9.1504483      9.4419272      0.2            86.397866    
     47700   0.20345487     0.0015692602   0.0015692602   0              0             -127.36829     -223.37899     -31.559252      0             -156.11299      0              0              9.1494881      9.4471876      0.2            86.43693     
     47800   0.21103578     0.0016132264   0.0016132264   0              0              345.11142      717.6546      -27.667616      0             -357.20228      0              0              9.1485279      9.4469766      0.2            86.425929    
     47900   0.21407078     0.0016514364   0.0016514364   0              0             -262.04369     -445.66141     -78.640083      0              25.490629      0              0              9.1475677      9.438605       0.2            86.340278    
     48000   0.2167413      0.0017593351   0.0017593351   0              0              131.41891      264.22754     -1.6136159      0             -305.15379      0              0              9.1466075      9.4303384      0.2            86.255604    
     48100   0.1896275      0.0015443272   0.0015443272   0              0              242.97559      564.92122     -79.158853      0             -305.74273      0              0              9.1456473      9.4310736      0.2            86.253272    
     48200   0.17845595     0.0014463567   0.0014463567   0              0             -211.98491     -245.34289     -178.82396      0              385.45521      0              0              9.1446871      9.4317488      0.2            86.250391    
     48300   0.1905026      0.0014640776   0.0014640776   0              0              1003.6565      2214.4379     -207.32861      0             -158.54547      0              0              9.1437269      9.4369785      0.2            86.289154    
     48400   0.19317881     0.0015512939   0.0015512939   0              0              92.318398      441.74063     -257.28669      0              86.666441      0              0              9.1427667      9.4350169      0.2            86.262159    
     48500   0.19520571     0.0014835667   0.0014835667   0              0              332.51495      941.90038     -277.09175      0             -481.96478      0              0              9.1418065      9.4349664      0.2            86.252637    
     48600   0.18127422     0.0014618741   0.0014618741   0              0             -234.51656     -181.40511     -287.84977      0             -584.90435      0              0              9.1408463      9.4230569      0.2            86.134714    
     48700   0.23580967     0.0017213717   0.0017213717   0              0             -32.851101      218.25652     -284.15162      0              301.84974      0              0              9.1398861      9.4234247      0.2            86.129029    
     48800   0.20700646     0.001468415    0.001468415    0              0              584.49881      1549.5306     -380.80165      0              43.557178      0              0              9.1389259      9.4189734      0.2            86.0793      
     48900   0.18574599     0.0015287248   0.0015287248   0              0             -98.663123      205.79484     -403.31591      0             -362.28523      0              0              9.1379657      9.4152866      0.2            86.036566    
     49000   0.17951118     0.0013258808   0.0013258808   0              0             -297.11811     -223.0689      -371.37524      0              421.30737      0              0              9.1370055      9.4127863      0.2            86.00468     
     49100   0.20322436     0.0015060043   0.0015060043   0              0             -181.44091      257.358       -620.41887      0              684.83879      0              0              9.1360453      9.4236916      0.2            86.095273    
     49200   0.21424443     0.001444821    0.001444821    0              0             -52.045556      691.65358     -795.97023      0             -47.330416      0              0              9.1350851      9.4232465      0.2            86.082158    
     49300   0.2263025      0.0015787607   0.0015787607   0              0             -53.688123      889.9148      -997.51599      0              121.89404      0              0              9.1341249      9.4242683      0.2            86.082444    
     49400   0.19066751     0.0014789977   0.0014789977   0              0             -860.45783     -500.67895     -1220.4448      0              804.58172      0              0              9.1331647      9.4270925      0.2            86.099188    
     49500   0.23770794     0.0015818685   0.0015818685   0              0             -700.90898      17.598444     -1419.6321      0              272.09104      0              0              9.1322045      9.4236934      0.2            86.059095    
     49600   0.223031       0.0013870532   0.0013870532   0              0             -451.58874      530.81236     -1434.1909      0             -22.142503      0              0              9.1312443      9.4190479      0.2            86.007627    
     49700   0.16535941     0.0014348336   0.0014348336   0              0             -851.12364     -214.49775     -1487.9304      0              180.23015      0              0              9.1302841      9.4183172      0.2            85.991912    
     49800   0.2078861      0.0015325737   0.0015325737   0              0             -429.53477      589.20214     -1448.4752      0              360.7795       0              0              9.1293239      9.4220198      0.2            86.016671    
     49900   0.20977136     0.0018470393   0.0018470393   0              0             -227.6362       830.09198     -1285.5546      0             -267.20674      0              0              9.1283637      9.4188417      0.2            85.978612    
     50000   0.23232822     0.0016506897   0.0016506897   0              0              69.238963      1219.5602     -1081.2606      0              246.96217      0              0              9.1274035      9.4243815      0.2            86.020133    
     50100   0.20406194     0.0016160018   0.0016160018   0              0              231.96735      1189.5143     -725.75715      0              560.56765      0              0              9.1264433      9.4161241      0.2            85.935722    
     50200   0.18985392     0.0017760888   0.0017760888   0              0             -0.7281692      570.56393     -572.20588      0              895.55411      0              0              9.1254831      9.4232733      0.2            85.991921    
     50300   0.2087694      0.0018151588   0.0018151588   0              0              1159.2734      2596.0927     -277.73444      0              255.0952       0              0              9.1245229      9.4252907      0.2            86.00128     
     50400   0.21873873     0.0017593672   0.0017593672   0              0              738.95172      1637.623      -159.9731       0             -873.97418      0              0              9.1235627      9.4263161      0.2            86.001585    
     50500   0.23402363     0.0016291612   0.0016291612   0              0              1155.7545      2370.8685     -59.553915      0             -365.14519      0              0              9.1226025      9.4210987      0.2            85.944938    
     50572   0.19528954     0.0016120705   0.0016120705   0              0              1385.0207      2459.33        310.47578      0              182.76558      0              0              9.1219111      9.4151294      0.2            85.883974    
Loop time of 1.15684 on 1 procs for 50000 steps with 64 atoms

Performance: 37343.032 ns/day, 0.001 hours/ns, 43221.102 timesteps/s
99.3% CPU use with 1 MPI tasks x 1 OpenMP threads

MPI task timing breakdown:
Section |  min time  |  avg time  |  max time  |%varavg| %total
---------------------------------------------------------------
Pair    | 0          | 0          | 0          |   0.0 |  0.00
Bond    | 0.17388    | 0.17388    | 0.17388    |   0.0 | 15.03
Neigh   | 0          | 0          | 0          |   0.0 |  0.00
Comm    | 0.38593    | 0.38593    | 0.38593    |   0.0 | 33.36
Output  | 0.0070613  | 0.0070613  | 0.0070613  |   0.0 |  0.61
Modify  | 0.56239    | 0.56239    | 0.56239    |   0.0 | 48.61
Other   |            | 0.02758    |            |       |  2.38

Nlocal:             64 ave          64 max          64 min
Histogram: 1 0 0 0 0 0 0 0 0 0
Nghost:            542 ave         542 max         542 min
Histogram: 1 0 0 0 0 0 0 0 0 0
Neighs:              0 ave           0 max           0 min
Histogram: 1 0 0 0 0 0 0 0 0 0

Total # of neighbors = 0
Ave neighs/atom = 0
Ave special neighs/atom = 23.40625
Neighbor list builds = 0
Dangerous builds = 0


Total wall time: 0:00:01
