ITEM: TIMESTEP
250
ITEM: NUMBER OF ATOMS
32
ITEM: BOX BOUNDS pp pp pp
-4.8173891911908893e+00 4.8173891911908893e+00
-4.8187464528391040e+00 4.8187464528391040e+00
-1.0000000000000001e-01 1.0000000000000001e-01
ITEM: ATOMS id type xs ys zs
23 1 0.184575 0.0457141 0.500733
77 1 0.104384 0.0835116 0.500092
80 1 0.932377 0.0659085 0.500324
69 1 0.885196 0.0867478 0.501055
13 1 0.0172382 0.145878 0.500241
8 1 0.164998 0.18505 0.499299
10 1 0.880465 0.201744 0.500139
14 1 0.0441137 0.293643 0.499556
46 1 0.23908 0.276304 0.499598
43 1 0.29297 0.353627 0.5
41 1 0.936158 0.320214 0.500083
5 1 0.175962 0.377795 0.499018
39 1 0.822601 0.329023 0.49973
73 1 0.905996 0.386603 0.500186
47 1 0.978279 0.398202 0.499634
7 1 0.0606587 0.48782 0.499486
24 1 0.187716 0.515721 0.500214
9 1 0.307159 0.475878 0.499133
6 1 0.00444604 0.623697 0.499973
71 1 0.265069 0.57036 0.500223
53 1 0.258613 0.645368 0.501265
30 1 0.146648 0.638131 0.499823
45 1 0.334604 0.687453 0.499996
4 1 0.237664 0.769082 0.50007
25 1 0.948865 0.754388 0.499686
19 1 0.0818983 0.764124 0.500413
20 1 0.159202 0.902037 0.499991
16 1 0.398194 0.795632 0.500479
1 1 0.0335009 0.990507 0.500404
35 1 0.30358 0.885274 0.499695
18 1 0.885004 0.972912 0.499843
34 1 0.977757 0.854685 0.499593
ITEM: TIMESTEP
500
ITEM: NUMBER OF ATOMS
32
ITEM: BOX BOUNDS pp pp pp
-4.8161847872861072e+00 4.8161847872861072e+00
-4.8214538638505982e+00 4.8214538638505982e+00
-1.0000000000000001e-01 1.0000000000000001e-01
ITEM: ATOMS id type xs ys zs
23 1 0.184552 0.0451246 0.499768
77 1 0.104831 0.0832296 0.500009
80 1 0.932319 0.0658965 0.5002
69 1 0.885385 0.0874377 0.500613
13 1 0.0175588 0.145622 0.501998
8 1 0.165101 0.184927 0.502408
10 1 0.881072 0.201964 0.499697
14 1 0.0443481 0.29391 0.500014
46 1 0.238659 0.277119 0.500769
43 1 0.292789 0.353749 0.499761
41 1 0.935959 0.32041 0.499811
5 1 0.175706 0.377979 0.500217
39 1 0.822052 0.328603 0.50023
73 1 0.90616 0.386632 0.502282
47 1 0.978622 0.39823 0.500346
7 1 0.0608396 0.487893 0.499045
24 1 0.187412 0.516827 0.49966
9 1 0.306493 0.476304 0.497539
6 1 0.00417464 0.624264 0.499906
71 1 0.265279 0.571912 0.499581
53 1 0.258137 0.646817 0.500412
30 1 0.146129 0.638779 0.499502
45 1 0.334907 0.687703 0.498976
4 1 0.237983 0.770008 0.499706
25 1 0.948673 0.754891 0.497961
19 1 0.0815894 0.7643 0.498769
20 1 0.158948 0.901885 0.501097
16 1 0.39896 0.795292 0.50017
1 1 0.0337135 0.990779 0.501547
35 1 0.303867 0.88572 0.50252
18 1 0.884276 0.973161 0.501291
34 1 0.978141 0.855244 0.499774
ITEM: TIMESTEP
750
ITEM: NUMBER OF ATOMS
32
ITEM: BOX BOUNDS pp pp pp
-4.8149803833813261e+00 4.8149803833813261e+00
-4.8210914419526363e+00 4.8210914419526363e+00
-1.0000000000000001e-01 1.0000000000000001e-01
ITEM: ATOMS id type xs ys zs
23 1 0.185233 0.0458621 0.499206
77 1 0.104778 0.0835211 0.500726
80 1 0.933362 0.0650612 0.500428
69 1 0.886326 0.0866609 0.501474
13 1 0.0177639 0.145931 0.504139
8 1 0.165079 0.185061 0.503216
10 1 0.881202 0.20173 0.498892
14 1 0.044177 0.293473 0.500878
46 1 0.238385 0.277482 0.501153
43 1 0.292758 0.354608 0.50043
41 1 0.936337 0.320523 0.499337
5 1 0.175934 0.379554 0.498184
39 1 0.82222 0.329479 0.502295
73 1 0.906281 0.386917 0.501903
47 1 0.979069 0.398483 0.500675
7 1 0.0601547 0.488808 0.498657
24 1 0.1874 0.517126 0.498449
9 1 0.307114 0.477427 0.496337
6 1 0.00403792 0.624631 0.50061
71 1 0.265094 0.571828 0.498388
53 1 0.257778 0.646863 0.502701
30 1 0.145702 0.638634 0.498538
45 1 0.334342 0.68829 0.497614
4 1 0.238119 0.770589 0.500003
25 1 0.948241 0.754836 0.495545
19 1 0.0819722 0.76434 0.4997
20 1 0.159672 0.902547 0.501535
16 1 0.398865 0.796153 0.502557
1 1 0.0339466 0.99056 0.501305
35 1 0.304812 0.886135 0.504275
18 1 0.884795 0.97272 0.500537
34 1 0.977621 0.854839 0.499441
ITEM: TIMESTEP
1000
ITEM: NUMBER OF ATOMS
32
ITEM: BOX BOUNDS pp pp pp
-4.8137759794765449e+00 4.8137759794765449e+00
-4.8159260573762568e+00 4.8159260573762568e+00
-1.0000000000000001e-01 1.0000000000000001e-01
ITEM: ATOMS id type xs ys zs
23 1 0.186385 0.0464953 0.499911
77 1 0.105714 0.0840989 0.499241
80 1 0.932693 0.0652169 0.498626
69 1 0.885896 0.08691 0.501875
13 1 0.0174989 0.145928 0.504634
8 1 0.164644 0.185821 0.503581
10 1 0.879942 0.201608 0.498912
14 1 0.0440474 0.294314 0.50108
46 1 0.238414 0.27738 0.500124
43 1 0.293034 0.354233 0.500603
41 1 0.93596 0.32054 0.49948
5 1 0.175888 0.37906 0.500343
39 1 0.822471 0.329648 0.501726
73 1 0.905991 0.386969 0.502162
47 1 0.978235 0.398809 0.498858
7 1 0.0609307 0.488051 0.500023
24 1 0.187794 0.516745 0.498187
9 1 0.30733 0.47689 0.497844
6 1 0.00444126 0.624385 0.500509
71 1 0.265048 0.57141 0.498587
53 1 0.259186 0.646763 0.503804
30 1 0.146733 0.63842 0.498403
45 1 0.335701 0.687933 0.498351
4 1 0.238797 0.7714 0.499535
25 1 0.948953 0.755293 0.493578
19 1 0.0826711 0.764691 0.501049
20 1 0.159975 0.90331 0.500713
16 1 0.399504 0.796213 0.503629
1 1 0.0341718 0.991458 0.501747
35 1 0.304888 0.887315 0.504222
18 1 0.885259 0.972631 0.500364
34 1 0.97852 0.855393 0.499876
ITEM: TIMESTEP
1250
ITEM: NUMBER OF ATOMS
32
ITEM: BOX BOUNDS pp pp pp
-4.8125715755717637e+00 4.8125715755717637e+00
-4.8209827917153802e+00 4.8209827917153802e+00
-1.0000000000000001e-01 1.0000000000000001e-01
ITEM: ATOMS id type xs ys zs
23 1 0.185545 0.0455579 0.501858
77 1 0.10568 0.0841098 0.49755
80 1 0.933754 0.065333 0.501252
69 1 0.886597 0.0865775 0.504383
13 1 0.018329 0.146335 0.503797
8 1 0.165669 0.185601 0.502422
10 1 0.880806 0.201359 0.497036
14 1 0.0445659 0.294165 0.501638
46 1 0.238213 0.277845 0.499589
43 1 0.293413 0.354406 0.500657
41 1 0.936196 0.320725 0.500787
5 1 0.175749 0.378871 0.501809
39 1 0.822902 0.329243 0.502096
73 1 0.906109 0.386857 0.500943
47 1 0.97852 0.398645 0.499687
7 1 0.0609335 0.488024 0.50173
24 1 0.18829 0.517201 0.499365
9 1 0.307026 0.476792 0.498491
6 1 0.00539261 0.624743 0.49824
71 1 0.265826 0.571838 0.497391
53 1 0.260872 0.646923 0.504785
30 1 0.14806 0.639419 0.498583
45 1 0.336773 0.689082 0.497358
4 1 0.239324 0.770322 0.497715
25 1 0.949472 0.755226 0.491841
19 1 0.0828317 0.764489 0.503264
20 1 0.160001 0.902581 0.50139
16 1 0.400123 0.79754 0.504338
1 1 0.034523 0.991627 0.501605
35 1 0.304764 0.88669 0.502281
18 1 0.885956 0.972582 0.498032
34 1 0.978755 0.855453 0.49967
ITEM: TIMESTEP
1500
ITEM: NUMBER OF ATOMS
32
ITEM: BOX BOUNDS pp pp pp
-4.8113671716669826e+00 4.8113671716669826e+00
-4.8229579644835114e+00 4.8229579644835114e+00
-1.0000000000000001e-01 1.0000000000000001e-01
ITEM: ATOMS id type xs ys zs
23 1 0.185476 0.0456913 0.500824
77 1 0.105287 0.0837424 0.498067
80 1 0.934331 0.0650924 0.499718
69 1 0.887274 0.0868082 0.504179
13 1 0.0178329 0.146384 0.504279
8 1 0.16501 0.185193 0.502848
10 1 0.879881 0.200765 0.496609
14 1 0.044504 0.294477 0.502937
46 1 0.238496 0.276661 0.499394
43 1 0.292686 0.353955 0.499532
41 1 0.936192 0.320352 0.502637
5 1 0.17628 0.378914 0.500592
39 1 0.822366 0.328701 0.500558
73 1 0.905996 0.386849 0.499627
47 1 0.978748 0.39847 0.500148
7 1 0.0605638 0.487727 0.500905
24 1 0.187768 0.51702 0.499333
9 1 0.307028 0.477032 0.499522
6 1 0.00707214 0.62472 0.498063
71 1 0.265099 0.572181 0.498826
53 1 0.261387 0.647261 0.505444
30 1 0.148881 0.64002 0.499068
45 1 0.336406 0.689043 0.497749
4 1 0.239279 0.770771 0.49698
25 1 0.951142 0.754847 0.49292
19 1 0.0837983 0.765328 0.503772
20 1 0.160252 0.903029 0.500387
16 1 0.400256 0.796502 0.504877
1 1 0.0342344 0.990942 0.500015
35 1 0.30556 0.886575 0.502183
18 1 0.88492 0.972925 0.496464
34 1 0.97916 0.855233 0.500406
ITEM: TIMESTEP
1750
ITEM: NUMBER OF ATOMS
32
ITEM: BOX BOUNDS pp pp pp
-4.8101627677622014e+00 4.8101627677622014e+00
-4.8258564133063260e+00 4.8258564133063260e+00
-1.0000000000000001e-01 1.0000000000000001e-01
ITEM: ATOMS id type xs ys zs
23 1 0.185931 0.0467922 0.500735
77 1 0.105854 0.08489 0.499438
80 1 0.934891 0.0643327 0.498566
69 1 0.887914 0.0861686 0.503349
13 1 0.0179291 0.146398 0.505363
8 1 0.166203 0.186147 0.50371
10 1 0.880506 0.200398 0.497553
14 1 0.0444088 0.293398 0.505365
46 1 0.239124 0.278149 0.500581
43 1 0.293431 0.354304 0.501636
41 1 0.93594 0.319422 0.504805
5 1 0.176047 0.379352 0.499953
39 1 0.822397 0.32776 0.499878
73 1 0.905531 0.385677 0.498873
47 1 0.978054 0.39732 0.500935
7 1 0.0595593 0.487269 0.500409
24 1 0.186754 0.517216 0.500098
9 1 0.306857 0.477108 0.497976
6 1 0.0058917 0.624687 0.497549
71 1 0.264278 0.571677 0.499439
53 1 0.261024 0.646636 0.50616
30 1 0.148457 0.6394 0.500893
45 1 0.336416 0.688542 0.495919
4 1 0.239508 0.77058 0.499693
25 1 0.951237 0.755376 0.492896
19 1 0.0838573 0.764782 0.502316
20 1 0.161966 0.903894 0.50036
16 1 0.400386 0.796064 0.50561
1 1 0.0352894 0.991697 0.499861
35 1 0.306018 0.886238 0.50191
18 1 0.885813 0.972153 0.495524
34 1 0.979822 0.855493 0.500015
ITEM: TIMESTEP
2000
ITEM: NUMBER OF ATOMS
32
ITEM: BOX BOUNDS pp pp pp
-4.8089583638574203e+00 4.8089583638574203e+00
-4.8269484163376157e+00 4.8269484163376157e+00
-1.0000000000000001e-01 1.0000000000000001e-01
ITEM: ATOMS id type xs ys zs
23 1 0.185958 0.0463536 0.501076
77 1 0.105928 0.0843103 0.500143
80 1 0.935164 0.0644436 0.498509
69 1 0.888387 0.0863233 0.501775
13 1 0.0181181 0.14614 0.504737
8 1 0.166365 0.185518 0.503097
10 1 0.881657 0.200746 0.496651
14 1 0.0444004 0.293735 0.506218
46 1 0.238766 0.278275 0.503779
43 1 0.292975 0.354999 0.501528
41 1 0.935746 0.320189 0.5042
5 1 0.174956 0.378964 0.498848
39 1 0.822175 0.327598 0.498771
73 1 0.905767 0.386062 0.499492
47 1 0.978143 0.397887 0.498307
7 1 0.0592552 0.488532 0.500613
24 1 0.186509 0.517079 0.500101
9 1 0.306072 0.477098 0.497674
6 1 0.00590998 0.625817 0.49842
71 1 0.263696 0.571581 0.500206
53 1 0.260326 0.647147 0.507848
30 1 0.1475 0.639663 0.50104
45 1 0.337317 0.687718 0.495098
4 1 0.240224 0.770933 0.499923
25 1 0.950705 0.755924 0.492078
19 1 0.0840232 0.765524 0.500344
20 1 0.161582 0.903186 0.499449
16 1 0.402039 0.796262 0.504862
1 1 0.0351636 0.991148 0.500566
35 1 0.307137 0.886375 0.500954
18 1 0.885986 0.972656 0.495605
34 1 0.979704 0.855644 0.498374
ITEM: TIMESTEP
2250
ITEM: NUMBER OF ATOMS
32
ITEM: BOX BOUNDS pp pp pp
-4.8077539599526391e+00 4.8077539599526391e+00
-4.8291476232529984e+00 4.8291476232529984e+00
-1.0000000000000001e-01 1.0000000000000001e-01
ITEM: ATOMS id type xs ys zs
23 1 0.186257 0.0457771 0.501061
77 1 0.105672 0.0842018 0.499241
80 1 0.935087 0.0640047 0.49832
69 1 0.888545 0.0862927 0.502008
13 1 0.0184101 0.145944 0.50305
8 1 0.16634 0.184851 0.503318
10 1 0.880617 0.20135 0.497815
14 1 0.0439509 0.293647 0.50682
46 1 0.238394 0.278204 0.505454
43 1 0.292066 0.355573 0.501559
41 1 0.936032 0.320337 0.505866
5 1 0.17463 0.37861 0.497826
39 1 0.822182 0.328366 0.498091
73 1 0.905644 0.386294 0.499245
47 1 0.978453 0.397832 0.498741
7 1 0.0592916 0.48795 0.501002
24 1 0.18634 0.516337 0.500281
9 1 0.306578 0.477356 0.498366
6 1 0.00551191 0.624803 0.499109
71 1 0.264141 0.571491 0.501055
53 1 0.260767 0.64637 0.508028
30 1 0.147572 0.638853 0.500661
45 1 0.337099 0.688038 0.495705
4 1 0.239323 0.769854 0.500712
25 1 0.950254 0.755444 0.493301
19 1 0.0834424 0.76484 0.501434
20 1 0.160301 0.902472 0.498013
16 1 0.400074 0.796136 0.504005
1 1 0.0351001 0.991028 0.502327
35 1 0.30528 0.885754 0.502577
18 1 0.885027 0.972628 0.494299
34 1 0.9795 0.855587 0.497845
ITEM: TIMESTEP
2500
ITEM: NUMBER OF ATOMS
32
ITEM: BOX BOUNDS pp pp pp
-4.8065495560478579e+00 4.8065495560478579e+00
-4.8264032303461546e+00 4.8264032303461546e+00
-1.0000000000000001e-01 1.0000000000000001e-01
ITEM: ATOMS id type xs ys zs
23 1 0.186494 0.0460993 0.501121
77 1 0.105691 0.0832719 0.500023
80 1 0.933978 0.0647572 0.497673
69 1 0.887395 0.0864321 0.50139
13 1 0.0184471 0.145664 0.504861
8 1 0.166057 0.185155 0.503524
10 1 0.880896 0.200948 0.497346
14 1 0.0443065 0.293465 0.50545
46 1 0.239583 0.276959 0.504585
43 1 0.293409 0.354306 0.50068
41 1 0.936081 0.319867 0.507406
5 1 0.175713 0.377965 0.499463
39 1 0.821903 0.32783 0.496077
73 1 0.905146 0.386051 0.500531
47 1 0.978249 0.397479 0.499606
7 1 0.0594449 0.487763 0.500455
24 1 0.186429 0.515566 0.500506
9 1 0.306235 0.476986 0.498961
6 1 0.00487016 0.625031 0.49964
71 1 0.26321 0.571503 0.498827
53 1 0.259696 0.646562 0.508892
30 1 0.147643 0.638391 0.500835
45 1 0.336795 0.68799 0.496035
4 1 0.23953 0.770159 0.502594
25 1 0.949753 0.756005 0.493855
19 1 0.0834801 0.764689 0.501802
20 1 0.160499 0.903099 0.498793
16 1 0.400375 0.796421 0.504548
1 1 0.0340615 0.991195 0.501972
35 1 0.305361 0.88588 0.503394
18 1 0.884753 0.972746 0.496096
34 1 0.979046 0.855465 0.49751
ITEM: TIMESTEP
2750
ITEM: NUMBER OF ATOMS
32
ITEM: BOX BOUNDS pp pp pp
-4.8053451521430768e+00 4.8053451521430768e+00
-4.8284339234810716e+00 4.8284339234810716e+00
-1.0000000000000001e-01 1.0000000000000001e-01
ITEM: ATOMS id type xs ys zs
23 1 0.185526 0.0469098 0.499791
77 1 0.105167 0.0850772 0.501026
80 1 0.934257 0.0647154 0.498122
69 1 0.88664 0.0859624 0.501962
13 1 0.0175995 0.146085 0.504306
8 1 0.165921 0.186052 0.504187
10 1 0.880821 0.20004 0.500037
14 1 0.0438564 0.293908 0.504962
46 1 0.239418 0.278345 0.506051
43 1 0.293144 0.355485 0.502511
41 1 0.935549 0.318878 0.508675
5 1 0.175174 0.378245 0.500246
39 1 0.821492 0.326741 0.49574
73 1 0.904629 0.38482 0.49862
47 1 0.976851 0.397078 0.500779
7 1 0.0592929 0.486913 0.499254
24 1 0.185879 0.51615 0.499845
9 1 0.305694 0.477407 0.498628
6 1 0.00451264 0.624404 0.497796
71 1 0.262898 0.571674 0.499229
53 1 0.258481 0.646957 0.50791
30 1 0.146251 0.638619 0.501596
45 1 0.335558 0.688094 0.49408
4 1 0.239066 0.770647 0.503142
25 1 0.949834 0.75515 0.495801
19 1 0.0835871 0.76483 0.503127
20 1 0.160471 0.903576 0.500987
16 1 0.39974 0.795644 0.506733
1 1 0.0347133 0.991227 0.500811
35 1 0.305564 0.886082 0.504287
18 1 0.885929 0.971965 0.498074
34 1 0.979195 0.855312 0.498558
ITEM: TIMESTEP
3000
ITEM: NUMBER OF ATOMS
32
ITEM: BOX BOUNDS pp pp pp
-4.8041407482382947e+00 4.8041407482382947e+00
-4.8303503100027987e+00 4.8303503100027987e+00
-1.0000000000000001e-01 1.0000000000000001e-01
ITEM: ATOMS id type xs ys zs
23 1 0.185965 0.0466314 0.499659
77 1 0.106015 0.0851499 0.50122
80 1 0.933265 0.0656859 0.497915
69 1 0.885465 0.0859825 0.502072
13 1 0.0175824 0.146219 0.50593
8 1 0.166046 0.185939 0.504824
10 1 0.878513 0.200321 0.499143
14 1 0.0438022 0.293817 0.506082
46 1 0.239922 0.277928 0.505203
43 1 0.293473 0.355614 0.502304
41 1 0.934965 0.318548 0.508118
5 1 0.175508 0.378457 0.500264
39 1 0.820981 0.326893 0.497023
73 1 0.904535 0.384802 0.49867
47 1 0.977118 0.396922 0.501601
7 1 0.0582618 0.487422 0.500781
24 1 0.186318 0.516256 0.49809
9 1 0.306148 0.477735 0.498869
6 1 0.00522146 0.62586 0.497031
71 1 0.262894 0.571838 0.497689
53 1 0.260024 0.647203 0.507111
30 1 0.147577 0.638805 0.501785
45 1 0.336459 0.689245 0.496247
4 1 0.239266 0.770474 0.503302
25 1 0.950405 0.75651 0.495124
19 1 0.0839872 0.765229 0.502193
20 1 0.160212 0.903534 0.500545
16 1 0.400902 0.79667 0.506011
1 1 0.0354432 0.992253 0.499048
35 1 0.305971 0.886157 0.503921
18 1 0.886268 0.972314 0.496817
34 1 0.97993 0.856196 0.499677
ITEM: TIMESTEP
3250
ITEM: NUMBER OF ATOMS
32
ITEM: BOX BOUNDS pp pp pp
-4.8029363443335136e+00 4.8029363443335136e+00
-4.8292754994705991e+00 4.8292754994705991e+00
-1.0000000000000001e-01 1.0000000000000001e-01
ITEM: ATOMS id type xs ys zs
23 1 0.185961 0.0470015 0.500621
77 1 0.105473 0.0851509 0.499811
80 1 0.933236 0.0651906 0.496232
69 1 0.885821 0.086519 0.503741
13 1 0.0176722 0.146155 0.506292
8 1 0.165907 0.186533 0.505519
10 1 0.881039 0.200436 0.498183
14 1 0.0435142 0.293219 0.506164
46 1 0.241128 0.277623 0.505009
43 1 0.292644 0.356012 0.500888
41 1 0.935017 0.319498 0.508598
5 1 0.175266 0.377938 0.500846
39 1 0.821413 0.327119 0.498385
73 1 0.904594 0.385409 0.498444
47 1 0.977493 0.397107 0.502571
7 1 0.0584282 0.487506 0.498604
24 1 0.185791 0.515677 0.497259
9 1 0.305729 0.477477 0.499499
6 1 0.0061616 0.625298 0.497412
71 1 0.262731 0.571671 0.497235
53 1 0.261003 0.646502 0.506283
30 1 0.148174 0.63917 0.501452
45 1 0.336824 0.688425 0.496775
4 1 0.239233 0.770025 0.501776
25 1 0.950701 0.755612 0.496332
19 1 0.08412 0.764991 0.503144
20 1 0.161255 0.903902 0.499585
16 1 0.400737 0.796003 0.506803
1 1 0.035349 0.991514 0.498103
35 1 0.305824 0.885978 0.501568
18 1 0.8855 0.972816 0.496014
34 1 0.980036 0.855648 0.497451
ITEM: TIMESTEP
3500
ITEM: NUMBER OF ATOMS
32
ITEM: BOX BOUNDS pp pp pp
-4.8017319404287324e+00 4.8017319404287324e+00
-4.8234950820837783e+00 4.8234950820837783e+00
-1.0000000000000001e-01 1.0000000000000001e-01
ITEM: ATOMS id type xs ys zs
23 1 0.18598 0.0467418 0.499459
77 1 0.10549 0.0848974 0.49904
80 1 0.933235 0.0657467 0.494843
69 1 0.885841 0.0868454 0.50402
13 1 0.0174502 0.146674 0.503774
8 1 0.165719 0.185619 0.50407
10 1 0.880798 0.201975 0.499018
14 1 0.0435835 0.294027 0.506171
46 1 0.239731 0.277584 0.50648
43 1 0.293624 0.354984 0.500609
41 1 0.93511 0.320015 0.507477
5 1 0.175705 0.378677 0.50035
39 1 0.820632 0.328648 0.499981
73 1 0.90465 0.38585 0.499881
47 1 0.976957 0.39804 0.502582
7 1 0.0592727 0.487526 0.499282
24 1 0.185819 0.516435 0.497686
9 1 0.305915 0.47735 0.498613
6 1 0.00556894 0.623953 0.49483
71 1 0.263198 0.572013 0.498861
53 1 0.26029 0.646956 0.506932
30 1 0.147816 0.638834 0.502243
45 1 0.336295 0.688494 0.499262
4 1 0.239334 0.770516 0.503172
25 1 0.950254 0.754146 0.495854
19 1 0.0837138 0.764717 0.500416
20 1 0.160954 0.903672 0.499444
16 1 0.400584 0.795737 0.505163
1 1 0.0349247 0.991309 0.498156
35 1 0.305753 0.885771 0.501507
18 1 0.885525 0.972977 0.49885
34 1 0.978779 0.855058 0.49684
ITEM: TIMESTEP
3750
ITEM: NUMBER OF ATOMS
32
ITEM: BOX BOUNDS pp pp pp
-4.8005275365239513e+00 4.8005275365239513e+00
-4.8218440500321007e+00 4.8218440500321007e+00
-1.0000000000000001e-01 1.0000000000000001e-01
ITEM: ATOMS id type xs ys zs
23 1 0.18504 0.0468497 0.498484
77 1 0.105043 0.084482 0.499951
80 1 0.932547 0.0658512 0.494252
69 1 0.885451 0.0872136 0.505034
13 1 0.0171934 0.146672 0.503524
8 1 0.165102 0.185982 0.50448
10 1 0.880841 0.20153 0.499678
14 1 0.0428253 0.2945 0.505403
46 1 0.239061 0.277738 0.505597
43 1 0.293122 0.354471 0.501658
41 1 0.935011 0.320579 0.507055
5 1 0.175353 0.378722 0.499993
39 1 0.82085 0.328361 0.500985
73 1 0.904135 0.38652 0.500297
47 1 0.976819 0.39879 0.500721
7 1 0.0591499 0.488231 0.499516
24 1 0.18651 0.516895 0.500049
9 1 0.306291 0.477022 0.497958
6 1 0.00484932 0.624866 0.495207
71 1 0.263437 0.571696 0.498261
53 1 0.259746 0.647115 0.505842
30 1 0.147053 0.638636 0.502699
45 1 0.336365 0.688181 0.498387
4 1 0.239747 0.770814 0.502884
25 1 0.948922 0.755352 0.495839
19 1 0.0830431 0.764658 0.500823
20 1 0.160326 0.903187 0.498182
16 1 0.401646 0.795577 0.502734
1 1 0.0350116 0.991357 0.497056
35 1 0.305959 0.886591 0.501068
18 1 0.885223 0.972952 0.498538
34 1 0.978948 0.855383 0.495322
ITEM: TIMESTEP
4000
ITEM: NUMBER OF ATOMS
32
ITEM: BOX BOUNDS pp pp pp
-4.7993231326191701e+00 4.7993231326191701e+00
-4.8217685394690326e+00 4.8217685394690326e+00
-1.0000000000000001e-01 1.0000000000000001e-01
ITEM: ATOMS id type xs ys zs
23 1 0.184822 0.0466088 0.498804
77 1 0.104684 0.0848579 0.500891
80 1 0.932874 0.0657262 0.492717
69 1 0.884987 0.0861318 0.505065
13 1 0.0171629 0.146959 0.503709
8 1 0.165078 0.186155 0.505062
10 1 0.880383 0.201286 0.497962
14 1 0.0433193 0.294805 0.505132
46 1 0.23918 0.277749 0.504236
43 1 0.293063 0.355475 0.501342
41 1 0.934324 0.320893 0.506012
5 1 0.175698 0.378483 0.501677
39 1 0.820736 0.328119 0.500118
73 1 0.903533 0.387086 0.500746
47 1 0.97665 0.398921 0.499875
7 1 0.0596857 0.487839 0.501506
24 1 0.187026 0.516955 0.500635
9 1 0.307232 0.477414 0.499381
6 1 0.00610493 0.624521 0.49539
71 1 0.264886 0.571165 0.499446
53 1 0.260252 0.645965 0.504129
30 1 0.147889 0.639131 0.503485
45 1 0.336956 0.68764 0.498412
4 1 0.239638 0.7694 0.503185
25 1 0.950159 0.755057 0.497043
19 1 0.0837534 0.764763 0.501936
20 1 0.160569 0.902936 0.497754
16 1 0.401313 0.796288 0.503008
1 1 0.0345316 0.991504 0.496503
35 1 0.305409 0.885313 0.499813
18 1 0.885683 0.97201 0.499043
34 1 0.979165 0.854943 0.495782
ITEM: TIMESTEP
4250
ITEM: NUMBER OF ATOMS
32
ITEM: BOX BOUNDS pp pp pp
-4.7981187287143889e+00 4.7981187287143889e+00
-4.8272456329803521e+00 4.8272456329803521e+00
-1.0000000000000001e-01 1.0000000000000001e-01
ITEM: ATOMS id type xs ys zs
23 1 0.183859 0.0455989 0.500119
77 1 0.104298 0.0848108 0.499655
80 1 0.932601 0.0650083 0.493875
69 1 0.885076 0.0861955 0.50494
13 1 0.0169871 0.145569 0.502463
8 1 0.164854 0.185599 0.505196
10 1 0.879773 0.201333 0.499456
14 1 0.0427463 0.293657 0.505722
46 1 0.239524 0.27693 0.505843
43 1 0.293408 0.354474 0.500803
41 1 0.934461 0.319999 0.505742
5 1 0.175609 0.377265 0.502926
39 1 0.820206 0.328308 0.4988
73 1 0.903847 0.386299 0.501264
47 1 0.976703 0.398059 0.498008
7 1 0.0593766 0.48668 0.502514
24 1 0.18673 0.515848 0.500039
9 1 0.306343 0.476003 0.499009
6 1 0.00550123 0.624019 0.49473
71 1 0.264466 0.570609 0.500991
53 1 0.261108 0.645837 0.503509
30 1 0.148524 0.638297 0.501707
45 1 0.337903 0.68718 0.498025
4 1 0.239431 0.769199 0.50417
25 1 0.949766 0.754757 0.49648
19 1 0.0833129 0.764344 0.504204
20 1 0.160128 0.902159 0.497719
16 1 0.400331 0.795778 0.502234
1 1 0.034417 0.990563 0.497647
35 1 0.30541 0.885588 0.500097
18 1 0.885054 0.972404 0.496464
34 1 0.978876 0.854511 0.49402
ITEM: TIMESTEP
4500
ITEM: NUMBER OF ATOMS
32
ITEM: BOX BOUNDS pp pp pp
-4.7969143248096078e+00 4.7969143248096078e+00
-4.8238987520181542e+00 4.8238987520181542e+00
-1.0000000000000001e-01 1.0000000000000001e-01
ITEM: ATOMS id type xs ys zs
23 1 0.184992 0.0456359 0.499881
77 1 0.10446 0.0834962 0.498589
80 1 0.931218 0.065147 0.494658
69 1 0.883402 0.0854367 0.50361
13 1 0.0167141 0.145758 0.501994
8 1 0.164866 0.184868 0.50445
10 1 0.878392 0.20056 0.499522
14 1 0.0429269 0.293736 0.505584
46 1 0.238239 0.277297 0.506886
43 1 0.29325 0.354002 0.501986
41 1 0.934464 0.319578 0.505067
5 1 0.17567 0.378359 0.50229
39 1 0.820575 0.328207 0.501453
73 1 0.904175 0.386007 0.500687
47 1 0.976458 0.397841 0.499624
7 1 0.0593824 0.487094 0.50312
24 1 0.186603 0.516335 0.502623
9 1 0.306243 0.476602 0.497854
6 1 0.00510127 0.624211 0.495564
71 1 0.264198 0.570831 0.500594
53 1 0.260952 0.646185 0.503235
30 1 0.148099 0.639144 0.5017
45 1 0.337496 0.688345 0.498594
4 1 0.239513 0.769476 0.504252
25 1 0.949153 0.754564 0.495534
19 1 0.0829209 0.764808 0.503594
20 1 0.160108 0.902315 0.498097
16 1 0.400386 0.79702 0.502883
1 1 0.0337895 0.990426 0.498629
35 1 0.304919 0.886255 0.497698
18 1 0.884411 0.971935 0.497168
34 1 0.977804 0.854684 0.493835
ITEM: TIMESTEP
4750
ITEM: NUMBER OF ATOMS
32
ITEM: BOX BOUNDS pp pp pp
-4.7957099209048266e+00 4.7957099209048266e+00
-4.8232030846350691e+00 4.8232030846350691e+00
-1.0000000000000001e-01 1.0000000000000001e-01
ITEM: ATOMS id type xs ys zs
23 1 0.184463 0.0457718 0.500589
77 1 0.103748 0.0840866 0.498139
80 1 0.930435 0.0656568 0.493327
69 1 0.882519 0.0856071 0.5025
13 1 0.0162729 0.145266 0.503503
8 1 0.165129 0.184828 0.502326
10 1 0.879741 0.200232 0.498598
14 1 0.0430905 0.292773 0.505982
46 1 0.239681 0.276704 0.502997
43 1 0.293044 0.354111 0.501082
41 1 0.934605 0.319251 0.505027
5 1 0.175349 0.377205 0.500807
39 1 0.820979 0.327291 0.500591
73 1 0.904481 0.385654 0.499922
47 1 0.977359 0.397042 0.49972
7 1 0.0587266 0.486891 0.504176
24 1 0.185967 0.516096 0.502525
9 1 0.306503 0.476578 0.498472
6 1 0.00546183 0.624514 0.495536
71 1 0.263195 0.570805 0.500429
53 1 0.260917 0.645913 0.503017
30 1 0.148266 0.639074 0.501487
45 1 0.337044 0.688411 0.49791
4 1 0.238113 0.769361 0.506453
25 1 0.948395 0.754445 0.493957
19 1 0.0823889 0.764226 0.506551
20 1 0.158814 0.902587 0.498518
16 1 0.399485 0.79624 0.503037
1 1 0.0331472 0.990356 0.498726
35 1 0.303907 0.885747 0.498161
18 1 0.883136 0.972317 0.496615
34 1 0.977502 0.854564 0.494777
ITEM: TIMESTEP
5000
ITEM: NUMBER OF ATOMS
32
ITEM: BOX BOUNDS pp pp pp
-4.7945055170000455e+00 4.7945055170000455e+00
-4.8232485201892397e+00 4.8232485201892397e+00
-1.0000000000000001e-01 1.0000000000000001e-01
ITEM: ATOMS id type xs ys zs
23 1 0.184329 0.0454309 0.501433
77 1 0.103827 0.0839154 0.499306
80 1 0.929784 0.0656222 0.493618
69 1 0.882135 0.0856764 0.50432
13 1 0.0154334 0.14512 0.503627
8 1 0.164263 0.185038 0.499956
10 1 0.880948 0.200199 0.498112
14 1 0.042741 0.293067 0.506664
46 1 0.239327 0.27597 0.503249
43 1 0.292649 0.353979 0.501072
41 1 0.934058 0.319377 0.505073
5 1 0.175629 0.377587 0.501594
39 1 0.820181 0.32657 0.50152
73 1 0.903303 0.385308 0.49681
47 1 0.976516 0.397047 0.498805
7 1 0.0583863 0.487143 0.503265
24 1 0.185812 0.516318 0.50186
9 1 0.305585 0.476431 0.497163
6 1 0.00328281 0.624177 0.493945
71 1 0.263741 0.57086 0.497084
53 1 0.259611 0.645811 0.502798
30 1 0.147009 0.63882 0.501734
45 1 0.33614 0.68801 0.496728
4 1 0.238381 0.769526 0.506563
25 1 0.948568 0.75509 0.495202
19 1 0.0821861 0.763759 0.508003
20 1 0.159379 0.902236 0.498661
16 1 0.399948 0.795513 0.502558
1 1 0.0334839 0.990451 0.497666
35 1 0.304542 0.885397 0.499916
18 1 0.884105 0.971972 0.497344
34 1 0.977502 0.854684 0.496214
ITEM: TIMESTEP
5250
ITEM: NUMBER OF ATOMS
32
ITEM: BOX BOUNDS pp pp pp
-4.7933011130952643e+00 4.7933011130952643e+00
-4.8208749847228773e+00 4.8208749847228773e+00
-1.0000000000000001e-01 1.0000000000000001e-01
ITEM: ATOMS id type xs ys zs
23 1 0.185371 0.0449567 0.502423
77 1 0.105346 0.0836029 0.498952
80 1 0.930405 0.065499 0.493233
69 1 0.88242 0.0856606 0.504207
13 1 0.0166238 0.144764 0.502516
8 1 0.164229 0.185167 0.496628
10 1 0.880442 0.200005 0.499059
14 1 0.0422524 0.29354 0.506224
46 1 0.237354 0.277541 0.50226
43 1 0.291233 0.354807 0.500521
41 1 0.933811 0.319563 0.504862
5 1 0.173844 0.378394 0.501456
39 1 0.819392 0.326556 0.501567
73 1 0.902811 0.385768 0.497169
47 1 0.975473 0.397541 0.496975
7 1 0.0580402 0.487143 0.504276
24 1 0.185148 0.515588 0.503361
9 1 0.305969 0.476735 0.496398
6 1 0.003704 0.624102 0.492572
71 1 0.262388 0.570999 0.498325
53 1 0.258689 0.646289 0.502723
30 1 0.146245 0.638173 0.500614
45 1 0.335081 0.687481 0.495593
4 1 0.23813 0.769641 0.507525
25 1 0.947862 0.754381 0.496087
19 1 0.0817917 0.763653 0.508968
20 1 0.159044 0.901904 0.498927
16 1 0.399596 0.795202 0.502811
1 1 0.0344261 0.990163 0.496116
35 1 0.304122 0.886212 0.500335
18 1 0.884054 0.971715 0.497195
34 1 0.977525 0.854337 0.496522
ITEM: TIMESTEP
5500
ITEM: NUMBER OF ATOMS
32
ITEM: BOX BOUNDS pp pp pp
-4.7920967091904823e+00 4.7920967091904823e+00
-4.8280907839896967e+00 4.8280907839896967e+00
-1.0000000000000001e-01 1.0000000000000001e-01
ITEM: ATOMS id type xs ys zs
23 1 0.184777 0.0459395 0.501516
77 1 0.104293 0.0843459 0.499577
80 1 0.930216 0.065886 0.494938
69 1 0.882258 0.0860007 0.504276
13 1 0.0160799 0.145518 0.504293
8 1 0.164259 0.185859 0.496287
10 1 0.878632 0.200659 0.498776
14 1 0.0409479 0.293789 0.507263
46 1 0.237655 0.277428 0.503012
43 1 0.291495 0.354754 0.500044
41 1 0.93253 0.320018 0.505594
5 1 0.173316 0.378695 0.501499
39 1 0.818724 0.327312 0.50112
73 1 0.901992 0.386704 0.498527
47 1 0.975263 0.397745 0.497541
7 1 0.0570133 0.487933 0.505468
24 1 0.184967 0.516075 0.504761
9 1 0.305079 0.476392 0.496825
6 1 0.00268271 0.625034 0.49258
71 1 0.262768 0.570895 0.500544
53 1 0.258317 0.646024 0.504323
30 1 0.145815 0.63849 0.49995
45 1 0.334938 0.687692 0.496497
4 1 0.23781 0.77014 0.506929
25 1 0.948255 0.755773 0.497547
19 1 0.0816046 0.763927 0.509616
20 1 0.158356 0.902855 0.498134
16 1 0.399255 0.795259 0.501767
1 1 0.0331491 0.991442 0.495723
35 1 0.304207 0.885644 0.501486
18 1 0.88389 0.972135 0.497777
34 1 0.978378 0.855575 0.497018
ITEM: TIMESTEP
5750
ITEM: NUMBER OF ATOMS
32
ITEM: BOX BOUNDS pp pp pp
-4.7908923052857011e+00 4.7908923052857011e+00
-4.8268431546296080e+00 4.8268431546296080e+00
-1.0000000000000001e-01 1.0000000000000001e-01
ITEM: ATOMS id type xs ys zs
23 1 0.184354 0.0463871 0.501633
77 1 0.103607 0.0845303 0.498869
80 1 0.930192 0.0662627 0.495978
69 1 0.882168 0.0867381 0.505526
13 1 0.0153184 0.146277 0.503918
8 1 0.163541 0.18579 0.49416
10 1 0.878471 0.20079 0.498035
14 1 0.0414002 0.294199 0.506079
46 1 0.238479 0.276847 0.502291
43 1 0.291784 0.354237 0.501348
41 1 0.932806 0.320175 0.505023
5 1 0.17416 0.377742 0.500274
39 1 0.818794 0.327696 0.500096
73 1 0.901898 0.386296 0.499963
47 1 0.975007 0.398111 0.497728
7 1 0.0572626 0.487341 0.503014
24 1 0.184688 0.516099 0.503076
9 1 0.305117 0.476624 0.497917
6 1 0.00347683 0.624402 0.493479
71 1 0.262294 0.571051 0.501353
53 1 0.25889 0.646114 0.503428
30 1 0.146042 0.638707 0.499332
45 1 0.335238 0.68777 0.495953
4 1 0.237848 0.769911 0.5077
25 1 0.948178 0.755453 0.498947
19 1 0.0820383 0.764151 0.510069
20 1 0.158323 0.902979 0.496833
16 1 0.398328 0.796632 0.500117
1 1 0.0326936 0.991676 0.495691
35 1 0.30341 0.885897 0.500515
18 1 0.883041 0.972598 0.497585
34 1 0.977995 0.855408 0.49702
ITEM: TIMESTEP
6000
ITEM: NUMBER OF ATOMS
32
ITEM: BOX BOUNDS pp pp pp
-4.7896879013809199e+00 4.7896879013809199e+00
-4.8285280704618687e+00 4.8285280704618687e+00
-1.0000000000000001e-01 1.0000000000000001e-01
ITEM: ATOMS id type xs ys zs
23 1 0.184033 0.0453774 0.501849
77 1 0.103954 0.0838733 0.497796
80 1 0.930062 0.0659909 0.49661
69 1 0.882364 0.0867972 0.504355
13 1 0.0156823 0.145283 0.503795
8 1 0.16418 0.184988 0.496268
10 1 0.87896 0.201092 0.4992
14 1 0.0419385 0.293376 0.505474
46 1 0.238382 0.277068 0.504003
43 1 0.292309 0.354019 0.50106
41 1 0.932946 0.319747 0.505875
5 1 0.17408 0.377878 0.497695
39 1 0.818619 0.326945 0.499681
73 1 0.90206 0.385786 0.498583
47 1 0.975344 0.39761 0.498591
7 1 0.0578009 0.487087 0.503247
24 1 0.185727 0.515196 0.503255
9 1 0.306591 0.476152 0.499155
6 1 0.00379147 0.624483 0.493561
71 1 0.263157 0.57004 0.502976
53 1 0.259155 0.645504 0.503859
30 1 0.146547 0.638471 0.499044
45 1 0.33537 0.687558 0.495693
4 1 0.237511 0.768704 0.50865
25 1 0.947934 0.755123 0.499568
19 1 0.0817026 0.763723 0.510426