LAMMPS (23 Jun 2022 - Update 4)
  using 1 OpenMP thread(s) per MPI task
# Compute elastic constant tensor for a crystal
#
# Written by Aidan Thompson (Sandia, athomps@sandia.gov)
#
#  This script uses the following three include files.
#
#   init.mod      (must be modified for different crystal structures)
# 	       	  Define units, deformation parameters and initial
#		  configuration of the atoms and simulation cell.
#
#
#   potential.mod    (must be modified for different pair styles)
# 		     Define pair style and other attributes
#		     not stored in restart file
#
#
#   displace.mod    (displace.mod should not need to be modified)
# 		    Perform positive and negative box displacements
# 		    in direction ${dir} and size ${up}.
# 		    It uses the resultant changes
#		    in stress to compute one
# 		    row of the elastic stiffness tensor
#
#		    Inputs variables:
#		    	   dir = the Voigt deformation component
#		    		    (1,2,3,4,5,6)
#		    Global constants:
#       	    	   up = the deformation magnitude (strain units)
#       		   cfac = conversion from LAMMPS pressure units to
#               	   output units for elastic constants
#
#
#  To run this on a different system, it should only be necessary to
#  modify the files init.mod and potential.mod. In order to calculate
#  the elastic constants correctly, care must be taken to specify
#  the correct units in init.mod (units, cfac and cunits). It is also
#  important to verify that the minimization of energy w.r.t atom
#  positions in the deformed cell is fully converged.
#  One indication of this is that the elastic constants are insensitive
#  to the choice of the variable ${up} in init.mod. Another is to check
#  the final max and two-norm forces reported in the log file. If you know
#  that minimization is not required, you can set maxiter = 0.0 in
#  init.mod.
#



variable dt equal 0.01
variable strain equal 0.05
variable srate equal 1e-4
variable M equal 1000 # averaging time for properties
variable strainsteps equal ${strain}/${dt}/${srate}
variable strainsteps equal 0.05/${dt}/${srate}
variable strainsteps equal 0.05/0.01/${srate}
variable strainsteps equal 0.05/0.01/0.0001


dimension 2
include init.mod
# NOTE: This script can be modified for different atomic structures,
# units, etc. See in.elastic for more info.
#

# Define the finite deformation size. Try several values of this
# variable to verify that results do not depend on it.
variable up equal 1.0e-1

# Define the amount of random jiggle for atoms
# This prevents atoms from staying on saddle points
variable atomjiggle equal 1.0e-6

# Uncomment one of these blocks, depending on what units
# you are using in LAMMPS and for output

# metal units, elastic constants in eV/A^3
#units		metal
#variable cfac equal 6.2414e-7
#variable cunits string eV/A^3

# Choose potential
# metal units, elastic constants in GPa
units		metal
atom_style	full
#pair_style      lj/cut 1.0
#pair_style      yukawa 1.0 2.0
#pair_modify     mix arithmetic
bond_style      harmonic
angle_style     harmonic
dihedral_style  zero
special_bonds   amber
variable cfac equal 1.0e-4
variable cunits string GPa
boundary	p p p

# Need to set mass to something, just to satisfy LAMMPS
#mass 1 1.0e-20
read_data network.lmp
Reading data file ...
  orthogonal box = (-4.817616 -4.817616 -0.1) to (4.817616 4.817616 0.1)
  1 by 1 by 1 MPI processor grid
WARNING: Atom style in data file differs from currently defined atom style (src/read_data.cpp:538)
  reading atoms ...
  32 atoms
WARNING: Bond style in data file differs from currently defined bond style (src/read_data.cpp:630)
  scanning bonds ...
  4 = max bonds/atom
  reading bonds ...
  76 bonds
Finding 1-2 1-3 1-4 neighbors ...
  special bond factors lj:    0        0        0.5     
  special bond factors coul:  0        0        0.8333333333333334
     8 = max # of 1-2 neighbors
    35 = max # of 1-3 neighbors
   193 = max # of 1-4 neighbors
    25 = max # of special neighbors
  special bonds CPU = 0.000 seconds
  read_data CPU = 0.003 seconds

# real units, elastic constants in GPa
#units		real
#variable cfac equal 1.01325e-4
#variable cunits string GPa

# Define minimization parameters
variable etol equal 0.0
variable ftol equal 5.0e-10
variable maxiter equal 100000
variable maxeval equal 20000
variable dmax equal 1.0e-2


include potential.mod
# NOTE: This script can be modified for different pair styles
# See in.elastic for more info.

# Setup neighbor style
neighbor 3.0 nsq
neigh_modify once no every 1 delay 0 check yes
comm_modify cutoff 2.0

# Setup minimization style
min_style	     cg
min_modify	     dmax ${dmax} line quadratic
min_modify	     dmax 0.01 line quadratic

timestep	0.001


# Setup output
thermo		500
thermo_style custom step temp pe ebond eangle edihed press pxx pyy pzz pxy pxz pyz lx ly lz vol
thermo_modify norm no


#change_box all triclinic
comm_modify mode single cutoff 10.0 vel yes
atom_modify sort 0 0



# Compute initial state

#dump rela all atom 1 traj_relax.lmpstrj
fix 3 all box/relax x 0 y 0 # xy 0  #MS comment: relax if the network is periodic
minimize ${etol} ${ftol} ${maxiter} ${maxeval}
minimize 0 ${ftol} ${maxiter} ${maxeval}
minimize 0 5e-10 ${maxiter} ${maxeval}
minimize 0 5e-10 100000 ${maxeval}
minimize 0 5e-10 100000 20000
Neighbor list info ...
  update every 1 steps, delay 0 steps, check yes
  max neighbors/atom: 2000, page size: 100000
  master list distance cutoff = 0
  ghost atom cutoff = 10
  0 neighbor lists, perpetual/occasional/extra = 0 0 0
WARNING: Inconsistent image flags (src/domain.cpp:819)
Per MPI rank memory allocation (min/avg/max) = 8.382 | 8.382 | 8.382 Mbytes
   Step          Temp          PotEng         E_bond        E_angle        E_dihed         Press           Pxx            Pyy            Pzz            Pxy            Pxz            Pyz             Lx             Ly             Lz           Volume    
         0   0              1.9438125e-11  1.9438125e-11  0              0             -0.31048079    -0.23257339    -0.38838818     0             -0.02900686     0              0              9.635232       9.635232       0.2            92.837696    
       203   0              8.0964547e-14  8.0964547e-14  0              0             -8.1615557e-07 -9.5329693e-07 -6.7901421e-07  0             -1.2844143e-06  0              0              9.6352312      9.6352273      0.2            92.837643    
Loop time of 0.00672674 on 1 procs for 203 steps with 32 atoms

100.0% CPU use with 1 MPI tasks x 1 OpenMP threads

Minimization stats:
  Stopping criterion = force tolerance
  Energy initial, next-to-last, final = 
    1.94381248168766e-11 8.09645678282446e-14 8.09645474088394e-14
  Force two-norm initial, final = 3.0801231e-05 3.4172961e-10
  Force max component initial, final = 2.2505051e-05 1.1808084e-10
  Final line search alpha, max atom move = 1 1.1808084e-10
  Iterations, force evaluations = 203 406

MPI task timing breakdown:
Section |  min time  |  avg time  |  max time  |%varavg| %total
---------------------------------------------------------------
Pair    | 0          | 0          | 0          |   0.0 |  0.00
Bond    | 0.00095258 | 0.00095258 | 0.00095258 |   0.0 | 14.16
Neigh   | 0          | 0          | 0          |   0.0 |  0.00
Comm    | 0.001981   | 0.001981   | 0.001981   |   0.0 | 29.45
Output  | 0          | 0          | 0          |   0.0 |  0.00
Modify  | 0          | 0          | 0          |   0.0 |  0.00
Other   |            | 0.003793   |            |       | 56.39

Nlocal:             32 ave          32 max          32 min
Histogram: 1 0 0 0 0 0 0 0 0 0
Nghost:            278 ave         278 max         278 min
Histogram: 1 0 0 0 0 0 0 0 0 0
Neighs:              0 ave           0 max           0 min
Histogram: 1 0 0 0 0 0 0 0 0 0

Total # of neighbors = 0
Ave neighs/atom = 0
Ave special neighs/atom = 19.5625
Neighbor list builds = 0
Dangerous builds = 0
#dump rela all atom 1 traj_relax.lmpstrj
thermo 100
unfix 3

fix 2d all enforce2d



#dump dump0 all xyz 1000000 cfg0.xyz
#dump_modify dump0 format line "%d %20.10g %20.10g %20.10g"
#minimize ${etol} ${ftol} ${maxiter} ${maxeval}

#undump rela

#write_restart restart.equil

# These formulas define the derivatives w.r.t. strain components
# Constants uses $, variables use v_


timestep        ${dt}
timestep        0.01
variable nsteps equal round(${strainsteps})
variable nsteps equal round(50000)

fix             4 all nve
fix             5 all langevin 0.1 0.1 1 904297
#fix		6 all press/berendsen y  0.0 0.0 1 x 0.0 0.0 10
fix             6 all nph y 0.0 0.0 10 ptemp 0.1 # x 0.0 0.0 10

# For PLUMED2
# fix 22 all plumed plumedfile plumed.dat outfile plumed.out

#fix             6 all nph x 0.0 0.0 10
fix     	9 all deform 1 x erate -${srate} units box remap x
fix     	9 all deform 1 x erate -0.0001 units box remap x

#fix     8 all deform 1 xy erate ${srate} units box remap x



#fix    10 all ave/time

dump 1 all atom 250 deform_dump.lammpstrj


#To avoid flying ice cube phenomenon:
#fix 21 all momentum 100 linear 1 1 1 angular


run  ${nsteps}
run  50000
WARNING: One or more atoms are time integrated more than once (src/modify.cpp:292)
WARNING: Inconsistent image flags (src/domain.cpp:819)
Per MPI rank memory allocation (min/avg/max) = 7.257 | 7.257 | 7.257 Mbytes
   Step          Temp          PotEng         E_bond        E_angle        E_dihed         Press           Pxx            Pyy            Pzz            Pxy            Pxz            Pyz             Lx             Ly             Lz           Volume    
       203   0              8.0964547e-14  8.0964547e-14  0              0             -8.1615557e-07 -9.5329693e-07 -6.7901421e-07  0             -1.2844143e-06  0              0              9.6352312      9.6352273      0.2            92.837643    
       300   0.22571697     0.00040345463  0.00040345463  0              0              325.34184      597.66892      52.905179      0             -216.0302       0              0              9.6342966      9.6381204      0.2            92.856511    
       400   0.21665556     0.00043387543  0.00043387543  0              0              313.2233       544.06346      82.292568      0             -304.53498      0              0              9.6333331      9.6439191      0.2            92.903085    
       500   0.19642283     0.00051971744  0.00051971744  0              0             -138.61389     -139.53757     -137.77242      0             -177.48331      0              0              9.6323696      9.6429077      0.2            92.884051    
       600   0.19355057     0.00058770919  0.00058770919  0              0             -150.25991     -307.69562      7.0892428      0             -25.157473      0              0              9.6314061      9.6400565      0.2            92.847299    
       700   0.19732232     0.00051771751  0.00051771751  0              0             -245.89163     -623.66246      131.79755      0             -136.23121      0              0              9.6304425      9.6445528      0.2            92.881311    
       800   0.2566804      0.00052846262  0.00052846262  0              0             -20.053823      167.21144     -207.43146      0             -732.8186       0              0              9.629479       9.6437589      0.2            92.864374    
       900   0.15833639     0.00081462237  0.00081462237  0              0             -162.77596     -527.53522      201.86736      0             -966.4008       0              0              9.6285155      9.6329786      0.2            92.751283    
      1000   0.21783381     0.00054584173  0.00054584173  0              0              8.0188309      30.157767     -14.2099        0             -54.954131      0              0              9.627552       9.6318521      0.2            92.731157    
      1100   0.23175369     0.00062009338  0.00062009338  0              0             -232.58005     -233.28118     -231.97624      0             -744.64544      0              0              9.6265884      9.6359589      0.2            92.761411    
      1200   0.18603945     0.00047313376  0.00047313376  0              0             -137.31979     -518.83497      244.09895      0             -478.39865      0              0              9.6256249      9.6371165      0.2            92.763269    
      1300   0.20174001     0.00046781647  0.00046781647  0              0             -60.387981     -15.410973     -105.47574      0             -280.11699      0              0              9.6246614      9.6433188      0.2            92.813678    
      1400   0.22011169     0.00046070349  0.00046070349  0              0              51.277627      83.222841      19.211148      0              118.14988      0              0              9.6236979      9.6458532      0.2            92.828777    
      1500   0.18884581     0.00074679775  0.00074679775  0              0              561.81706      978.34204      145.19686      0              305.89468      0              0              9.6227343      9.6459159      0.2            92.820086    
      1600   0.331241       0.00057929188  0.00057929188  0              0             -165.01573     -151.09888     -179.03604      0             -361.91457      0              0              9.6217708      9.6460183      0.2            92.811777    
      1700   0.25379172     0.00064203783  0.00064203783  0              0             -417.37218     -893.09823      58.240298      0             -197.40323      0              0              9.6208073      9.6526169      0.2            92.865967    
      1800   0.13718283     0.00048899256  0.00048899256  0              0              321.20704      528.55681      113.76706      0             -386.65166      0              0              9.6198438      9.6529682      0.2            92.860046    
      1900   0.19999255     0.00067384881  0.00067384881  0              0             -130.78614      17.065873     -278.74662      0             -330.06443      0              0              9.6188803      9.6532172      0.2            92.85314     
      2000   0.16877841     0.0005837606   0.0005837606   0              0             -72.682693     -466.18976      320.7007       0              85.432751      0              0              9.6179167      9.6538968      0.2            92.850376    
      2100   0.2034217      0.00049710857  0.00049710857  0              0             -13.498998      75.963294     -103.06603      0              119.10297      0              0              9.6169532      9.658877       0.2            92.888968    
      2200   0.19055726     0.00062359639  0.00062359639  0              0             -376.42871     -364.62306     -388.34045      0             -237.53246      0              0              9.6159897      9.6575881      0.2            92.867267    
      2300   0.16648828     0.0004216594   0.0004216594   0              0              620.13427      720.73602      519.42462      0              360.48067      0              0              9.6150262      9.6505453      0.2            92.790245    
      2400   0.2100427      0.00041481143  0.00041481143  0              0              289.70654      726.87632     -147.55579      0              255.3085       0              0              9.6140626      9.655521       0.2            92.828783    
      2500   0.13724146     0.00041420782  0.00041420782  0              0             -342.29637     -365.31859     -319.36691      0              284.37568      0              0              9.6130991      9.6528065      0.2            92.793385    
      2600   0.17891825     0.0006189009   0.0006189009   0              0              326.65013      129.31282      523.87312      0              197.22324      0              0              9.6121356      9.6470202      0.2            92.728466    
      2700   0.20062955     0.00051164373  0.00051164373  0              0              111.64649      445.68727     -222.49261      0             -727.99655      0              0              9.6111721      9.6525054      0.2            92.771891    
      2800   0.2052259      0.00058083873  0.00058083873  0              0              102.46799      565.45159     -360.63164      0             -143.75279      0              0              9.6102085      9.6633661      0.2            92.866963    
      2900   0.21481453     0.00047397827  0.00047397827  0              0              635.01735      702.87204      567.06406      0             -736.31804      0              0              9.609245       9.6492524      0.2            92.72203     
      3000   0.21360996     0.00058311238  0.00058311238  0              0             -333.8246      -413.06976     -254.67187      0             -345.75426      0              0              9.6082815      9.6607006      0.2            92.822731    
      3100   0.18011941     0.00059629723  0.00059629723  0              0             -823.52327     -1253.9872     -393.16372      0              54.139075      0              0              9.607318       9.6584928      0.2            92.792211    
      3200   0.17689981     0.00066063281  0.00066063281  0              0              467.7325       348.17724      587.16735      0              353.19268      0              0              9.6063545      9.6528984      0.2            92.729163    
      3300   0.18937458     0.00051973701  0.00051973701  0              0              71.469298      421.28508     -278.44638      0             -576.24332      0              0              9.6053909      9.6516723      0.2            92.708086    
      3400   0.18942961     0.00045880277  0.00045880277  0              0             -114.54556      79.930982     -309.13174      0              403.67178      0              0              9.6044274      9.6534603      0.2            92.715958    
      3500   0.2214188      0.00061850923  0.00061850923  0              0              498.60987      449.8591       547.27393      0              105.3943       0              0              9.6034639      9.6469902      0.2            92.644522    
      3600   0.26124135     0.00071036351  0.00071036351  0              0              375.22459      982.68865     -232.31768      0              76.098863      0              0              9.6025004      9.6556427      0.2            92.718313    
      3700   0.24715811     0.00032286075  0.00032286075  0              0             -177.15872     -3.719165      -350.73502      0              183.25974      0              0              9.6015368      9.6547254      0.2            92.700201    
      3800   0.25397779     0.00066091976  0.00066091976  0              0              78.334028     -333.79708      490.38361      0              250.09401      0              0              9.6005733      9.6406363      0.2            92.555635    
      3900   0.15941256     0.0003623749   0.0003623749   0              0             -146.47186     -124.07072     -168.99537      0              60.370827      0              0              9.5996098      9.643295       0.2            92.571869    
      4000   0.16473775     0.00055416531  0.00055416531  0              0             -18.606268      258.85505     -296.19043      0             -501.14936      0              0              9.5986463      9.6435371      0.2            92.564901    
      4100   0.1959626      0.00054122017  0.00054122017  0              0              557.48901      617.62848      497.25959      0              362.86474      0              0              9.5976827      9.6432183      0.2            92.55255     
      4200   0.26144594     0.00048039161  0.00048039161  0              0              243.29966      678.19913     -191.698        0              10.062272      0              0              9.5967192      9.6486363      0.2            92.595253    
      4300   0.22178849     0.00053253363  0.00053253363  0              0             -121.07417      244.7119      -486.95067      0              126.42638      0              0              9.5957557      9.6503932      0.2            92.602815    
      4400   0.22549891     0.00049037484  0.00049037484  0              0              391.90055      127.56094      656.16193      0             -213.07801      0              0              9.5947922      9.6362251      0.2            92.457577    
      4500   0.18268867     0.00043040009  0.00043040009  0              0              14.336017      283.80195     -255.23439      0             -398.26256      0              0              9.5938286      9.6477975      0.2            92.559316    
      4600   0.24052862     0.00045607085  0.00045607085  0              0             -389.22332     -313.78925     -464.75974      0              18.411841      0              0              9.5928651      9.6477264      0.2            92.549338    
      4700   0.3491184      0.00045635019  0.00045635019  0              0              560.24013      282.83015      837.54609      0             -316.66182      0              0              9.5919016      9.6388884      0.2            92.455269    
      4800   0.27004276     0.00056577264  0.00056577264  0              0              6.8440852      357.33127     -343.7254       0              143.89419      0              0              9.5909381      9.650587       0.2            92.558182    
      4900   0.27587471     0.00060072194  0.00060072194  0              0              130.5999       718.58821     -457.48754      0             -283.35192      0              0              9.5899746      9.6532441      0.2            92.574365    
      5000   0.14913796     0.00050169532  0.00050169532  0              0              521.61852      209.66371      833.47195      0              0.21594495     0              0              9.589011       9.646497       0.2            92.500367    
      5100   0.21167946     0.00061671     0.00061671     0              0             -510.69224     -551.5084      -469.97995      0              107.70577      0              0              9.5880475      9.6573633      0.2            92.595258    
      5200   0.22899078     0.00068454715  0.00068454715  0              0             -249.36651     -210.76326     -288.07665      0              174.08777      0              0              9.587084       9.6548692      0.2            92.562042    
      5300   0.21508475     0.00053966936  0.00053966936  0              0              606.862        420.19298      793.41971      0             -148.97317      0              0              9.5861205      9.6476146      0.2            92.483196    
      5400   0.22434604     0.000526752    0.000526752    0              0             -135.91079      308.86493     -580.74936      0              160.24464      0              0              9.5851569      9.658506       0.2            92.578296    
      5500   0.26629108     0.00050580652  0.00050580652  0              0             -45.453452      179.60832     -270.59488      0             -112.03415      0              0              9.5841934      9.6561816      0.2            92.546712    
      5600   0.22263696     0.00056502575  0.00056502575  0              0              185.08849     -473.67822      843.76704      0              446.33567      0              0              9.5832299      9.6407869      0.2            92.389877    
      5700   0.17545819     0.00050127937  0.00050127937  0              0              136.7015       760.39464     -487.07366      0              344.78043      0              0              9.5822664      9.6566649      0.2            92.532736    
      5800   0.14994563     0.00043313697  0.00043313697  0              0             -4.0347475      303.38065     -311.54041      0              82.577328      0              0              9.5813028      9.6497913      0.2            92.457573    
      5900   0.18922612     0.00061979278  0.00061979278  0              0              420.63165      20.705307      820.48406      0              198.62272      0              0              9.5803393      9.6458767      0.2            92.410772    
      6000   0.25343489     0.00049230485  0.00049230485  0              0             -418.76253     -196.7409      -640.86897      0              330.82808      0              0              9.5793758      9.6570561      0.2            92.50857     
      6100   0.21165013     0.00052706224  0.00052706224  0              0             -102.16179     -172.43807     -31.965875      0              211.53154      0              0              9.5784123      9.6524891      0.2            92.455521    
      6200   0.18611194     0.00060386303  0.00060386303  0              0              793.46779      1014.1816      572.68386      0              456.4279       0              0              9.5774488      9.6455681      0.2            92.379935    
      6300   0.19115503     0.0005502125   0.0005502125   0              0             -239.05144      44.109986     -522.30255      0              173.92576      0              0              9.5764852      9.651719       0.2            92.429544    
      6400   0.22686406     0.00057174613  0.00057174613  0              0              26.959817      64.899674     -11.075618      0              105.90294      0              0              9.5755217      9.6444198      0.2            92.350352    
      6500   0.22623294     0.00053393303  0.00053393303  0              0              321.75188      149.561        493.81111      0             -261.8566       0              0              9.5745582      9.6362171      0.2            92.262521    
      6600   0.15935996     0.00054261744  0.00054261744  0              0             -300.3677      -65.331305     -535.49366      0             -181.74788      0              0              9.5735947      9.6403812      0.2            92.293102    
      6700   0.22892861     0.00047630653  0.00047630653  0              0             -104.79643     -299.75259      90.091563      0             -108.57275      0              0              9.5726311      9.6402332      0.2            92.282397    
      6800   0.27335005     0.00056698893  0.00056698893  0              0              358.22201      347.99691      368.3394       0             -525.324        0              0              9.5716676      9.6432025      0.2            92.301529    
      6900   0.1740783      0.00055665887  0.00055665887  0              0             -319.0634      -75.638805     -562.57936      0             -347.31102      0              0              9.5707041      9.6405083      0.2            92.266453    
      7000   0.17094648     0.00047854586  0.00047854586  0              0              412.97527      514.33824      311.49875      0             -139.02709      0              0              9.5697406      9.638218       0.2            92.235246    
      7100   0.19025326     0.00048917713  0.00048917713  0              0              131.02646      4.9033721      257.0734       0              503.03201      0              0              9.568777       9.6389528      0.2            92.23299     
      7200   0.15251293     0.0005952192   0.0005952192   0              0             -142.10259      286.76087     -571.06909      0              289.92125      0              0              9.5678135      9.6443422      0.2            92.275268    
      7300   0.22515657     0.000510298    0.000510298    0              0              163.40497     -93.658825      420.36         0              363.75241      0              0              9.56685        9.6392858      0.2            92.217601    
      7400   0.18195749     0.00050736466  0.00050736466  0              0              81.436185      110.74458      52.032056      0             -307.22825      0              0              9.5658865      9.6422139      0.2            92.236324    
      7500   0.22469742     0.00064972255  0.00064972255  0              0             -490.44818     -596.27094     -384.71577      0             -60.462486      0              0              9.564923       9.6484998      0.2            92.287157    
      7600   0.17784006     0.00042070008  0.00042070008  0              0              294.77975      184.93221      404.53938      0              3.7863992      0              0              9.5639594      9.6392218      0.2            92.189126    
      7700   0.17753842     0.00057390313  0.00057390313  0              0              142.79098      324.70801     -39.204695      0              618.91783      0              0              9.5629959      9.6390694      0.2            92.178382    
      7800   0.18162385     0.00056145839  0.00056145839  0              0             -216.89158     -146.14019     -287.7207       0              437.3874       0              0              9.5620324      9.6384088      0.2            92.162778    
      7900   0.18796566     0.00045323184  0.00045323184  0              0              50.815022     -301.26067      402.78634      0              367.07809      0              0              9.5610689      9.6290517      0.2            92.064026    
      8000   0.22481739     0.00050262055  0.00050262055  0              0              147.56475      379.89616     -84.884789      0             -321.80522      0              0              9.5601053      9.6276291      0.2            92.041148    
      8100   0.15999522     0.00052526675  0.00052526675  0              0             -230.80336     -131.66547     -330.06383      0             -229.7083       0              0              9.5591418      9.6336092      0.2            92.089037    
      8200   0.19485142     0.00081710219  0.00081710219  0              0              23.534374     -404.81866      451.7949       0              311.64296      0              0              9.5581783      9.6268207      0.2            92.014869    
      8300   0.23324445     0.00059277231  0.00059277231  0              0             -665.17208     -1152.6166     -177.81829      0              117.32065      0              0              9.5572148      9.6374104      0.2            92.106801    
      8400   0.19973156     0.0007056946   0.0007056946   0              0             -138.48342     -165.82918     -111.24301      0             -6.1871582      0              0              9.5562512      9.6245687      0.2            91.974797    
      8500   0.27129257     0.00067481315  0.00067481315  0              0              953.25587      1462.6761      443.72961      0              387.75424      0              0              9.5552877      9.6236425      0.2            91.956673    
      8600   0.20907225     0.00048238843  0.00048238843  0              0             -217.52524     -41.86385      -393.28569      0              560.31899      0              0              9.5543242      9.6340484      0.2            92.046822    
      8700   0.19913624     0.00053071262  0.00053071262  0              0              108.89808      173.16471      44.542702      0              719.36962      0              0              9.5533607      9.6190002      0.2            91.893778    
      8800   0.20781813     0.00048384733  0.00048384733  0              0              484.20578      679.87593      288.41283      0              241.36536      0              0              9.5523972      9.6184289      0.2            91.879053    
      8900   0.18464456     0.0005943404   0.0005943404   0              0             -12.792597      490.30356     -515.984        0              232.59831      0              0              9.5514336      9.6308788      0.2            91.988699    
      9000   0.2408112      0.00043366801  0.00043366801  0              0              100.65757     -32.692478      233.94282      0              388.13484      0              0              9.5504701      9.6266424      0.2            91.93896     
      9100   0.24523851     0.00053940182  0.00053940182  0              0              100.08497      16.481991      183.57024      0              318.47583      0              0              9.5495066      9.6326321      0.2            91.986884    
      9200   0.17305829     0.00034330113  0.00034330113  0              0             -629.28062     -716.83724     -541.8284       0             -23.718285      0              0              9.5485431      9.6371065      0.2            92.020326    
      9300   0.18129178     0.00047847225  0.00047847225  0              0              305.04393      232.68059      377.31645      0             -580.09422      0              0              9.5475795      9.6306878      0.2            91.949757    
      9400   0.21275803     0.00055378641  0.00055378641  0              0             -273.03899     -633.08571      86.89836       0             -563.16103      0              0              9.546616       9.6336993      0.2            91.969228    
      9500   0.2151526      0.00063377136  0.00063377136  0              0             -300.56692     -175.12167     -426.08344      0              162.34676      0              0              9.5456525      9.6437575      0.2            92.055958    
      9600   0.1637144      0.0005520842   0.0005520842   0              0              377.80901      348.28862      407.22429      0              136.38214      0              0              9.544689       9.6314196      0.2            91.928905    
      9700   0.26261493     0.00039089947  0.00039089947  0              0              16.221755      74.153455     -41.825278      0              139.0863       0              0              9.5437254      9.6349081      0.2            91.952917    
      9800   0.14895624     0.00044115287  0.00044115287  0              0              82.424732      502.4743      -337.72078      0             -239.00719      0              0              9.5427619      9.628966       0.2            91.88693     
      9900   0.17931095     0.00053144025  0.00053144025  0              0              85.536863     -288.37042      459.34709      0              262.37926      0              0              9.5417984      9.6199838      0.2            91.791946    
     10000   0.23103752     0.00054324793  0.00054324793  0              0             -595.78348     -976.42187     -215.24775      0              431.19816      0              0              9.5408349      9.6277298      0.2            91.85658     
     10100   0.26883682     0.00040092857  0.00040092857  0              0             -659.89635     -1054.3842     -265.49671      0              20.701013      0              0              9.5398714      9.6367739      0.2            91.933583    
     10200   0.21815082     0.0003901972   0.0003901972   0              0              299.2979      -16.282887      614.80427      0             -452.45526      0              0              9.5389078      9.6264793      0.2            91.826099    
     10300   0.35458444     0.00041637481  0.00041637481  0              0             -397.81079     -407.43195     -388.30503      0             -282.75775      0              0              9.5379443      9.6348328      0.2            91.896499    
     10400   0.18812286     0.00057503284  0.00057503284  0              0             -130.26674     -192.8859      -67.747036      0              40.900154      0              0              9.5369808      9.6292453      0.2            91.833927    
     10500   0.16973133     0.00046229556  0.00046229556  0              0              497.54853      359.83018      635.14904      0             -177.27098      0              0              9.5360173      9.6328543      0.2            91.859064    
     10600   0.1765311      0.0006225626   0.0006225626   0              0             -0.35955986     612.30385     -613.11247      0              200.18026      0              0              9.5350537      9.6381523      0.2            91.9003      
     10700   0.16321736     0.00052547266  0.00052547266  0              0             -83.793402     -30.342424     -137.31058      0              445.98498      0              0              9.5340902      9.6422983      0.2            91.930541    
     10800   0.18418254     0.000625889    0.000625889    0              0              797.82515      669.89889      925.66588      0             -116.05505      0              0              9.5331267      9.6297314      0.2            91.80145     
     10900   0.1665426      0.00045072195  0.00045072195  0              0             -200.15947      492.74601     -893.15893      0             -51.808677      0              0              9.5321632      9.6462439      0.2            91.94957     
     11000   0.24843585     0.00054271196  0.00054271196  0              0             -184.92023     -278.15494     -91.764431      0             -43.797263      0              0              9.5311996      9.6464242      0.2            91.941995    
     11100   0.15125443     0.000487516    0.000487516    0              0              710.42047      355.88874      1064.8581      0              666.45964      0              0              9.5302361      9.6259967      0.2            91.738021    
     11200   0.18270477     0.00053982008  0.00053982008  0              0             -366.27641      421.13237     -1153.7649      0              233.82987      0              0              9.5292726      9.6498731      0.2            91.956271    
     11300   0.26156596     0.00048932301  0.00048932301  0              0             -140.97183     -389.86668      107.82066      0             -205.52196      0              0              9.5283091      9.6402399      0.2            91.855185    
     11400   0.16930975     0.00069920024  0.00069920024  0              0              711.85386      372.5653       1051.0432      0             -59.593627      0              0              9.5273456      9.6345976      0.2            91.792141    
     11500   0.19620687     0.0004750186   0.0004750186   0              0             -974.94754     -794.39517     -1155.5751      0             -76.388758      0              0              9.526382       9.6699459      0.2            92.119598    
     11600   0.1661368      0.00039209916  0.00039209916  0              0              117.52083      176.88379      58.073813      0              83.065256      0              0              9.5254185      9.6594605      0.2            92.010403    
     11700   0.19320466     0.00048950368  0.00048950368  0              0              657.2725       303.94244      1010.524       0              249.73217      0              0              9.524455       9.6494199      0.2            91.905465    
     11800   0.20892395     0.00063560053  0.00063560053  0              0             -575.9252      -234.46094     -917.46449      0             -170.87108      0              0              9.5234915      9.6677154      0.2            92.070405    
     11900   0.19559481     0.00055477672  0.00055477672  0              0              135.1118       222.5618       47.58821       0             -492.20469      0              0              9.5225279      9.6639362      0.2            92.025102    
     12000   0.1851165      0.00043332966  0.00043332966  0              0              625.04494      527.90813      722.0659       0             -298.99199      0              0              9.5215644      9.6541228      0.2            91.922352    
     12100   0.26466358     0.00050730782  0.00050730782  0              0             -247.39155      249.19252     -744.07534      0             -437.12804      0              0              9.5206009      9.6739512      0.2            92.101829    
     12200   0.22188787     0.00057482942  0.00057482942  0              0              261.39942      606.75838     -84.039691      0             -78.045886      0              0              9.5196374      9.6585842      0.2            91.946219    
     12300   0.17264542     0.00061099625  0.00061099625  0              0              548.56847      494.23219      602.81209      0             -115.03896      0              0              9.5186738      9.6561289      0.2            91.913541    
     12400   0.15272344     0.00059278825  0.00059278825  0              0             -630.79913     -694.73713     -566.95433      0             -133.6783       0              0              9.5177103      9.6692729      0.2            92.029339    
     12500   0.22837081     0.00043141159  0.00043141159  0              0              466.36893      979.92234     -47.269943      0             -98.091892      0              0              9.5167468      9.6656393      0.2            91.985442    
     12600   0.16991865     0.00079815228  0.00079815228  0              0              174.61699     -61.837742      410.98019      0             -179.46589      0              0              9.5157833      9.6719069      0.2            92.03577     
     12700   0.23258964     0.00064691836  0.00064691836  0              0              265.77919      831.35173     -299.88249      0              438.88378      0              0              9.5148198      9.6744955      0.2            92.051081    
     12800   0.22151429     0.00052784842  0.00052784842  0              0             -162.8763      -334.51133      8.6367956      0             -324.72851      0              0              9.5138562      9.6681539      0.2            91.981426    
     12900   0.20465227     0.00058304338  0.00058304338  0              0              516.97249      827.05713      206.80439      0              217.31035      0              0              9.5128927      9.6723372      0.2            92.011906    
     13000   0.22123826     0.00045334706  0.00045334706  0              0             -28.228355      237.70404     -294.28159      0              49.32005       0              0              9.5119292      9.679547       0.2            92.071166    
     13100   0.1753855      0.00063352409  0.00063352409  0              0             -48.723823     -215.80778      118.26989      0             -403.55648      0              0              9.5109657      9.6638787      0.2            91.912819    
     13200   0.24097154     0.0004502501   0.0004502501   0              0             -84.001737     -345.06016      176.9167       0              429.09966      0              0              9.5100021      9.6676191      0.2            91.939078    
     13300   0.24082918     0.00038478104  0.00038478104  0              0             -489.01235     -723.11516     -255.00074      0              555.24386      0              0              9.5090386      9.6762463      0.2            92.0118      
     13400   0.22020497     0.00053120841  0.00053120841  0              0             -341.96108     -723.70617      39.689903      0              320.72134      0              0              9.5080751      9.6658302      0.2            91.903439    
     13500   0.2302547      0.00056763556  0.00056763556  0              0              6.1203646     -221.01134      233.18014      0              210.87919      0              0              9.5071116      9.6651233      0.2            91.887406    
     13600   0.20117602     0.00061161528  0.00061161528  0              0             -146.6205      -7.1333853     -286.18685      0             -302.50158      0              0              9.506148       9.6710937      0.2            91.934849    
     13700   0.18821816     0.00066270879  0.00066270879  0              0              396.6662       780.39316      12.85011       0             -572.5053       0              0              9.5051845      9.66227        0.2            91.841659    
     13800   0.34189677     0.00061062642  0.00061062642  0              0             -168.89979     -600.98195      263.09268      0             -162.67485      0              0              9.504221       9.6670449      0.2            91.877732    
     13900   0.24423761     0.00049964333  0.00049964333  0              0             -46.615421      80.97164      -174.30259      0             -178.02828      0              0              9.5032575      9.6710464      0.2            91.906444    
     14000   0.20595626     0.00062470784  0.00062470784  0              0             -177.6775      -364.47538      9.0222437      0              90.563277      0              0              9.502294       9.6746777      0.2            91.931631    
     14100   0.25228485     0.00044980366  0.00044980366  0              0              279.9574       377.59126      182.19559      0             -227.69824      0              0              9.5013304      9.6767188      0.2            91.941702    
     14200   0.21580599     0.00047813075  0.00047813075  0              0             -6.8559399      44.074683     -57.870709      0             -264.93685      0              0              9.5003669      9.6720692      0.2            91.888207    
     14300   0.16396813     0.00060435964  0.00060435964  0              0              168.91175      459.59571     -121.86548      0             -518.73114      0              0              9.4994034      9.6748584      0.2            91.905382    
     14400   0.22201548     0.00052728339  0.00052728339  0              0              470.13469      677.61018      262.57398      0             -469.82947      0              0              9.4984399      9.6761641      0.2            91.908463    
     14500   0.24314332     0.00039246719  0.00039246719  0              0             -77.281334     -50.369944     -104.2941       0             -398.20821      0              0              9.4974763      9.6724023      0.2            91.863412    
     14600   0.19405388     0.00058257909  0.00058257909  0              0             -220.66871     -221.62762     -219.77921      0             -521.47087      0              0              9.4965128      9.6743363      0.2            91.872459    
     14700   0.16607048     0.00037625948  0.00037625948  0              0             -70.006397     -358.94022      218.8488       0             -463.7708       0              0              9.4955493      9.6758853      0.2            91.877846    
     14800   0.20268578     0.00070187311  0.00070187311  0              0              271.75248      506.89093      36.51241       0             -1039.7915      0              0              9.4945858      9.6852435      0.2            91.957375    
     14900   0.21346459     0.00058397952  0.00058397952  0              0              172.97722      560.32217     -214.47434      0             -575.61897      0              0              9.4936222      9.6892704      0.2            91.986273    
     15000   0.1933007      0.00055373177  0.00055373177  0              0              543.91978      803.59495      284.16604      0             -218.72575      0              0              9.4926587      9.6920897      0.2            92.0037      
     15100   0.2197232      0.00054051197  0.00054051197  0              0              184.94046      450.85134     -81.051259      0              189.48869      0              0              9.4916952      9.6803905      0.2            91.883316    
     15200   0.21572104     0.0006563374   0.0006563374   0              0              9.6825681      176.56105     -157.30156      0             -129.78202      0              0              9.4907317      9.6829826      0.2            91.89859     
     15300   0.28862066     0.00040563014  0.00040563014  0              0              99.406352      21.692721      177.02272      0             -66.168533      0              0              9.4897682      9.6817009      0.2            91.877097    
     15400   0.24215311     0.00055773301  0.00055773301  0              0              64.111005      139.10395     -10.982666      0              139.67976      0              0              9.4888046      9.6832111      0.2            91.882099    
     15500   0.20690682     0.00044749836  0.00044749836  0              0             -24.315998      46.919721     -95.624818      0              342.39396      0              0              9.4878411      9.6880433      0.2            91.918616    
     15600   0.18158689     0.00041560503  0.00041560503  0              0             -114.34137     -271.71813      42.901536      0              322.92634      0              0              9.4868776      9.6883852      0.2            91.912525    
     15700   0.19587245     0.00038410517  0.00038410517  0              0             -85.461852     -314.09918      143.07289      0              49.32326       0              0              9.4859141      9.692218       0.2            91.939547    
     15800   0.24501086     0.00056094473  0.00056094473  0              0              216.85164      448.15826     -14.595017      0              418.46434      0              0              9.4849505      9.7022571      0.2            92.025429    
     15900   0.14025351     0.0004214695   0.0004214695   0              0             -156.0733      -287.21571     -25.029571      0              517.22382      0              0              9.483987       9.7026371      0.2            92.019684    
     16000   0.21652347     0.00048825648  0.00048825648  0              0              72.865848      72.514531      73.111475      0              214.14349      0              0              9.4830235      9.7019007      0.2            92.003352    
     16100   0.19828648     0.00060644054  0.00060644054  0              0              354.93145      788.65807     -78.907262      0              461.82694      0              0              9.48206        9.7038293      0.2            92.012291    
     16200   0.17687995     0.00048737454  0.00048737454  0              0              290.44971      695.78768     -114.99501      0              323.81062      0              0              9.4810964      9.7082963      0.2            92.045294    
     16300   0.25520312     0.00053921529  0.00053921529  0              0              190.2522       206.50122      173.88283      0              229.4858       0              0              9.4801329      9.7048482      0.2            92.003251    
     16400   0.23889343     0.00069070548  0.00069070548  0              0             -51.377141     -8.894548      -93.940744      0             -587.7364       0              0              9.4791694      9.7035813      0.2            91.981891    
     16500   0.23971156     0.00075756802  0.00075756802  0              0             -388.39776     -670.54944     -106.32416      0             -538.07975      0              0              9.4782059      9.7012891      0.2            91.950815    
     16600   0.17333353     0.000508222    0.000508222    0              0              530.85939      927.59591      134.02246      0             -458.51969      0              0              9.4772424      9.7014926      0.2            91.943397    
     16700   0.22217266     0.00048138687  0.00048138687  0              0              350.73874      602.72034      98.653743      0             -149.54162      0              0              9.4762788      9.7027995      0.2            91.946434    
     16800   0.19073563     0.00037554107  0.00037554107  0              0             -267.93541     -378.89215     -157.07052      0             -110.37887      0              0              9.4753153      9.7079026      0.2            91.985438    
     16900   0.20124787     0.00046339105  0.00046339105  0              0              24.848093      39.362935      10.240639      0              86.152713      0              0              9.4743518      9.7077428      0.2            91.97457     
     17000   0.14978855     0.00046520669  0.00046520669  0              0              451.88515      726.75752      176.91895      0              271.81015      0              0              9.4733883      9.7112514      0.2            91.998455    
     17100   0.22933813     0.0005881072   0.0005881072   0              0              138.15226      432.42576     -156.19585      0             -33.690267      0              0              9.4724247      9.7056815      0.2            91.936337    
     17200   0.17122161     0.00057403201  0.00057403201  0              0             -186.62857     -310.19627     -63.157041      0              293.67234      0              0              9.4714612      9.6965663      0.2            91.840652    
     17300   0.1628488      0.00046277877  0.00046277877  0              0              209.33244      82.818872      335.71562      0              65.036422      0              0              9.4704977      9.6884195      0.2            91.754154    
     17400   0.2218549      0.00041269557  0.00041269557  0              0              162.97657      356.66384     -30.801628      0             -183.11267      0              0              9.4695342      9.6942222      0.2            91.799768    
     17500   0.20866887     0.00052066966  0.00052066966  0              0             -25.26669       199.05512     -249.7044       0              576.69017      0              0              9.4685706      9.6913151      0.2            91.762901    
     17600   0.24450811     0.00057439094  0.00057439094  0              0              93.352784     -82.284476      268.88661      0              55.140895      0              0              9.4676071      9.6811386      0.2            91.657217    
     17700   0.25503723     0.00066980763  0.00066980763  0              0             -111.08036     -359.45588      137.17416      0              370.48175      0              0              9.4666436      9.686487       0.2            91.69852     
     17800   0.27436898     0.00069833206  0.00069833206  0              0             -233.75981     -134.87018     -332.76109      0              818.62852      0              0              9.4656801      9.6887422      0.2            91.710534    
     17900   0.1547232      0.00057759248  0.00057759248  0              0             -108.28263     -471.79792      255.1168       0             -246.73292      0              0              9.4647166      9.6819543      0.2            91.636953    
     18000   0.15194866     0.00054601681  0.00054601681  0              0              558.25352      852.25456      264.16183      0              83.281722      0              0              9.463753       9.6852931      0.2            91.659222    
     18100   0.15045948     0.00036158597  0.00036158597  0              0             -99.322133      391.56697     -590.30599      0             -246.22817      0              0              9.4627895      9.6824964      0.2            91.623425    
     18200   0.15957875     0.00042232746  0.00042232746  0              0             -4.6976781     -123.06432      113.56265      0              3.9366581      0              0              9.461826       9.6781567      0.2            91.573034    
     18300   0.18399207     0.00037905401  0.00037905401  0              0              335.3329       97.145867      573.43794      0             -204.23596      0              0              9.4608625      9.6782646      0.2            91.56473     
     18400   0.29272737     0.00059153118  0.00059153118  0              0             -83.70631       457.47805     -624.99772      0             -459.05243      0              0              9.4598989      9.688381       0.2            91.651105    
     18500   0.26939345     0.00055466571  0.00055466571  0              0              157.84132      532.21404     -216.63668      0              134.69353      0              0              9.4589354      9.6876664      0.2            91.635011    
     18600   0.23383838     0.00053976297  0.00053976297  0              0              579.52074      300.11533      858.83732      0              487.65156      0              0              9.4579719      9.6775076      0.2            91.529595    
     18700   0.20706751     0.00043780307  0.00043780307  0              0             -215.59651      172.36064     -603.6574       0              245.2581       0              0              9.4570084      9.6797689      0.2            91.541655    
     18800   0.21658471     0.00056942324  0.00056942324  0              0             -187.08222      44.547692     -418.8043       0              120.43324      0              0              9.4560448      9.6793406      0.2            91.528278    
     18900   0.21698259     0.00030218491  0.00030218491  0              0              759.93202      487.38553      1032.3646      0             -133.11125      0              0              9.4550813      9.6667348      0.2            91.399763    
     19000   0.27900826     0.00066691973  0.00066691973  0              0             -209.69101      146.16609     -565.65349      0             -84.251048      0              0              9.4541178      9.6760647      0.2            91.478655    
     19100   0.17980104     0.00063519437  0.00063519437  0              0             -106.58137      309.7365      -522.9822       0             -289.95815      0              0              9.4531543      9.6703917      0.2            91.415704    
     19200   0.1953913      0.00054830724  0.00054830724  0              0              664.92629      222.70721      1107.045       0              174.91889      0              0              9.4521908      9.6594478      0.2            91.302943    
     19300   0.18279812     0.00057976801  0.00057976801  0              0             -361.63243     -314.35798     -409.00694      0              203.77358      0              0              9.4512272      9.6696839      0.2            91.390379    
     19400   0.23715923     0.00051075812  0.00051075812  0              0             -232.91919      197.17117     -663.12141      0              319.6834       0              0              9.4502637      9.6811448      0.2            91.489372    
     19500   0.2153791      0.00056855508  0.00056855508  0              0              604.19378      249.67668      958.61295      0              261.69745      0              0              9.4493002      9.6732799      0.2            91.405725    
     19600   0.23027607     0.00049499182  0.00049499182  0              0              153.2203       459.5403      -153.1765       0             -89.23269       0              0              9.4483367      9.6818441      0.2            91.477322    
     19700   0.23037917     0.00042213143  0.00042213143  0              0             -601.39123     -468.85249     -734.03402      0             -255.05199      0              0              9.4473731      9.6848182      0.2            91.496092    
     19800   0.25527865     0.00037782813  0.00037782813  0              0              599.06148      572.78587      625.26922      0             -150.40409      0              0              9.4464096      9.6653806      0.2            91.303144    
     19900   0.18354248     0.00048614332  0.00048614332  0              0              557.32925      915.0653       199.48069      0             -536.21524      0              0              9.4454461      9.6735403      0.2            91.370904    
     20000   0.20199731     0.00060474036  0.00060474036  0              0             -503.4186      -328.29072     -678.6291       0              51.327787      0              0              9.4444826      9.6842495      0.2            91.462726    
     20100   0.28146132     0.00051745969  0.00051745969  0              0              332.9003       343.63106      322.0391       0              45.775607      0              0              9.443519       9.6791472      0.2            91.405211    
     20200   0.26772368     0.00058039879  0.00058039879  0              0              91.278806     -142.6078       325.06507      0              399.94712      0              0              9.4425555      9.6739096      0.2            91.346429    
     20300   0.24316951     0.00068569591  0.00068569591  0              0             -246.9245       61.216971     -555.17187      0             -272.1973       0              0              9.441592       9.6839766      0.2            91.432156    
     20400   0.22030433     0.00057650304  0.00057650304  0              0              151.20819      268.62777      33.659662      0             -5.8150759      0              0              9.4406285      9.6878638      0.2            91.459523    
     20500   0.15983688     0.00060460673  0.00060460673  0              0              886.54756      1334.1083      438.90143      0              349.1681       0              0              9.4396649      9.6779382      0.2            91.356494    
     20600   0.18096284     0.00048169766  0.00048169766  0              0             -244.19341     -245.21906     -243.24752      0              302.77429      0              0              9.4387014      9.6834329      0.2            91.399032    
     20700   0.1946583      0.0005798766   0.0005798766   0              0             -173.7175      -111.68217     -235.85094      0             -10.926635      0              0              9.4377379      9.6683154      0.2            91.247027    
     20800   0.24347457     0.00054590902  0.00054590902  0              0              176.46429     -71.599631      424.4378       0              84.798387      0              0              9.4367744      9.6620585      0.2            91.178666    
     20900   0.20760978     0.00043863356  0.00043863356  0              0              88.335497      346.03405     -169.44827      0             -18.177187      0              0              9.4358109      9.6701503      0.2            91.245709    
     21000   0.22723779     0.00048592121  0.00048592121  0              0              203.36934      510.39636     -103.76606      0             -278.89139      0              0              9.4348473      9.672266       0.2            91.256353    
     21100   0.18101851     0.0003848838   0.0003848838   0              0              256.68278      257.34958      255.9126       0             -310.85086      0              0              9.4338838      9.6780055      0.2            91.301179    
     21200   0.19363949     0.00049011197  0.00049011197  0              0             -363.41159     -580.33778     -146.58673      0              34.834342      0              0              9.4329203      9.6781513      0.2            91.29323     
     21300   0.16100023     0.00073074115  0.00073074115  0              0              248.45405      696.25538     -199.44842      0             -462.58966      0              0              9.4319568      9.6827581      0.2            91.327356    
     21400   0.24504955     0.0006161798   0.0006161798   0              0              509.57026      767.24754      251.78374      0              569.84733      0              0              9.4309932      9.6744559      0.2            91.239729    
     21500   0.19464339     0.00080227535  0.00080227535  0              0              771.64609      1582.7083     -39.505015      0             -29.878239      0              0              9.4300297      9.6680638      0.2            91.170129    
     21600   0.20811554     0.0005486126   0.0005486126   0              0              87.077661      411.77006     -237.71471      0             -7.1602561      0              0              9.4290662      9.6625269      0.2            91.108605    
     21700   0.18479354     0.00044929219  0.00044929219  0              0              182.38826     -2.5233276      367.20784      0              227.04866      0              0              9.4281027      9.6484661      0.2            90.966729    
     21800   0.21127805     0.00042741873  0.00042741873  0              0             -705.49378     -1259.1228     -151.96017      0              69.781361      0              0              9.4271391      9.6511431      0.2            90.982669    
     21900   0.20073594     0.00054181313  0.00054181313  0              0             -454.25278     -643.20231     -265.40667      0             -58.216519      0              0              9.4261756      9.6537265      0.2            90.997722    
     22000   0.27178425     0.00067432822  0.00067432822  0              0              20.776979     -384.93042      426.35629      0              555.08439      0              0              9.4252121      9.6577035      0.2            91.025904    
     22100   0.23411446     0.00059950428  0.00059950428  0              0             -156.51257     -15.422251     -297.6833       0             -469.12         0              0              9.4242486      9.6586208      0.2            91.025243    
     22200   0.20406212     0.00060967448  0.00060967448  0              0             -271.90161     -293.15846     -250.73845      0              71.404591      0              0              9.4232851      9.6549605      0.2            90.981445    
     22300   0.22111927     0.00071494711  0.00071494711  0              0              593.6471       624.8357       562.35851      0              257.78562      0              0              9.4223215      9.6463062      0.2            90.890598    
     22400   0.21614668     0.00045379205  0.00045379205  0              0             -293.9836      -261.47923     -326.5861       0             -155.90648      0              0              9.421358       9.6510959      0.2            90.926429    
     22500   0.2191021      0.00042092359  0.00042092359  0              0              11.874445      288.63473     -264.98337      0             -189.8694       0              0              9.4203945      9.6521987      0.2            90.927519    
     22600   0.1355545      0.0006292302   0.0006292302   0              0              845.55812      1152.4175      538.63543      0              118.1662       0              0              9.419431       9.6507129      0.2            90.904224    
     22700   0.15186547     0.00053443063  0.00053443063  0              0              147.47016      581.16986     -286.31737      0             -378.67653      0              0              9.4184674      9.6583366      0.2            90.966729    
     22800   0.28557915     0.00039707739  0.00039707739  0              0              90.788554      356.326       -174.83786      0              45.137513      0              0              9.4175039      9.6631954      0.2            91.003181    
     22900   0.26270664     0.00049358032  0.00049358032  0              0              408.25152      326.31881      490.09085      0             -63.255932      0              0              9.4165404      9.6548842      0.2            90.915607    
     23000   0.19036836     0.00061265262  0.00061265262  0              0             -280.89549     -174.64141     -387.24036      0              280.21139      0              0              9.4155769      9.6684363      0.2            91.033905    
     23100   0.14946824     0.00077261994  0.00077261994  0              0              183.12324      519.71489     -153.57205      0              551.50231      0              0              9.4146133      9.6583887      0.2            90.929995    
     23200   0.24820994     0.00057727225  0.00057727225  0              0              290.76561      42.985912      538.43743      0              204.07825      0              0              9.4136498      9.6514395      0.2            90.855271    
     23300   0.24298251     0.00039078258  0.00039078258  0              0             -668.84687     -885.56475     -452.20656      0             -261.80813      0              0              9.4126863      9.6663088      0.2            90.985932    
     23400   0.13679381     0.00040880689  0.00040880689  0              0             -405.89792     -777.09849     -34.788566      0              150.05032      0              0              9.4117228      9.6627757      0.2            90.943366    
     23500   0.19359063     0.00053783629  0.00053783629  0              0              259.47339     -104.62777      623.47443      0              72.295249      0              0              9.4107593      9.6571028      0.2            90.880669    
     23600   0.24118093     0.00044666888  0.00044666888  0              0             -512.47793     -477.32607     -547.73306      0              238.0894       0              0              9.4097957      9.6733521      0.2            91.024267    
     23700   0.19420211     0.0004243808   0.0004243808   0              0             -16.620013      25.272447     -58.609707      0             -34.017221      0              0              9.4088322      9.6805061      0.2            91.082257    
     23800   0.19196909     0.00057037212  0.00057037212  0              0              756.02175      820.60543      691.32177      0              324.54018      0              0              9.4078687      9.6644442      0.2            90.921822    
     23900   0.22290453     0.0005652573   0.0005652573   0              0             -482.90809     -248.94428     -716.97735      0             -315.01348      0              0              9.4069052      9.6722006      0.2            90.985474    
     24000   0.22684811     0.00047193502  0.00047193502  0              0             -70.261389      96.349024     -236.98581      0             -298.40888      0              0              9.4059416      9.6780406      0.2            91.031085    
     24100   0.20180477     0.00057241106  0.00057241106  0              0              973.05249      982.62234      963.36091      0              295.21242      0              0              9.4049781      9.6622979      0.2            90.8737      
     24200   0.15459081     0.00055639419  0.00055639419  0              0             -465.47125     -275.77875     -655.27421      0              392.51504      0              0              9.4040146      9.6762626      0.2            90.995715    
     24300   0.20542646     0.00045528257  0.00045528257  0              0             -44.819752      223.5572      -313.26687      0              201.2739       0              0              9.4030511      9.6835542      0.2            91.054955    
     24400   0.22569417     0.00053106886  0.00053106886  0              0              720.82594      302.71345      1138.8552      0              460.32458      0              0              9.4020875      9.671767       0.2            90.9348      
     24500   0.19374842     0.00045585262  0.00045585262  0              0             -380.48297     -77.084704     -683.96961      0             -388.98389      0              0              9.401124       9.6897743      0.2            91.09477     
     24600   0.27301008     0.00059752127  0.00059752127  0              0             -632.54299     -601.20094     -663.96713      0             -8.6102702      0              0              9.4001605      9.6848711      0.2            91.039343    
     24700   0.24457238     0.00063245732  0.00063245732  0              0              894.6051       495.54394      1293.5859      0             -83.404427      0              0              9.399197       9.6632136      0.2            90.826448    
     24800   0.20474161     0.00046061339  0.00046061339  0              0             -61.168289      412.66477     -535.10258      0              275.06016      0              0              9.3982335      9.6800133      0.2            90.975025    
     24900   0.20121473     0.00055311852  0.00055311852  0              0             -596.40983     -314.0231      -878.88848      0              697.09968      0              0              9.3972699      9.6748617      0.2            90.917287    
     25000   0.17008885     0.00061026879  0.00061026879  0              0              815.64336      318.9495       1312.2292      0              215.13491      0              0              9.3963064      9.6572102      0.2            90.742106    
     25100   0.17463966     0.00034931473  0.00034931473  0              0             -578.52749     -713.16255     -443.97404      0              133.27911      0              0              9.3953429      9.6704513      0.2            90.857206    
     25200   0.23114579     0.00040197154  0.00040197154  0              0             -329.98676      155.44187     -815.53295      0              371.00194      0              0              9.3943794      9.6725206      0.2            90.867328    
     25300   0.19306324     0.00057349604  0.00057349604  0              0              1083.5372      1116.5608      1050.4148      0             -226.8972       0              0              9.3934158      9.6594496      0.2            90.735227    
     25400   0.15320862     0.00057160284  0.00057160284  0              0              129.52423      567.79172     -308.87178      0             -495.74802      0              0              9.3924523      9.6784893      0.2            90.90475     
     25500   0.23227197     0.00037918773  0.00037918773  0              0             -487.20544     -313.63155     -660.8745       0              114.20368      0              0              9.3914888      9.6813504      0.2            90.922294    
     25600   0.21526698     0.00060807956  0.00060807956  0              0              639.79616      558.99527      720.52296      0             -72.353683      0              0              9.3905253      9.6676908      0.2            90.784694    
     25700   0.19883632     0.00056711073  0.00056711073  0              0              85.087721      173.81433     -3.7451659      0              98.374969      0              0              9.3895617      9.6744822      0.2            90.839148    
     25800   0.14947949     0.00040941619  0.00040941619  0              0              108.23394      690.69108     -474.30965      0              104.75442      0              0              9.3885982      9.6722724      0.2            90.80908     
     25900   0.19973318     0.0004718073   0.0004718073   0              0              413.02715      347.42632      478.53198      0             -39.888393      0              0              9.3876347      9.665297       0.2            90.734278    
     26000   0.18969805     0.00060929223  0.00060929223  0              0              110.93369      261.71001     -39.924571      0             -155.69101      0              0              9.3866712      9.6561932      0.2            90.639511    
     26100   0.22633578     0.00061635557  0.00061635557  0              0             -214.37045     -3.6501826     -425.19457      0             -135.90223      0              0              9.3857077      9.6624721      0.2            90.689139    
     26200   0.15693787     0.00050879122  0.00050879122  0              0              757.14334      1050.2577      463.90732      0             -613.22634      0              0              9.3847441      9.6472762      0.2            90.537219    
     26300   0.26950543     0.0005033126   0.0005033126   0              0             -238.5482      -416.16143     -61.019546      0             -28.67078       0              0              9.3837806      9.645646       0.2            90.512626    
     26400   0.14405307     0.00060688427  0.00060688427  0              0             -351.68417     -360.09076     -343.39236      0              262.19088      0              0              9.3828171      9.6459317      0.2            90.506012    
     26500   0.2152016      0.0004207144   0.0004207144   0              0              416.71532      255.21166      578.13042      0             -356.58274      0              0              9.3818536      9.6282846      0.2            90.331157    
     26600   0.20304516     0.0006546257   0.0006546257   0              0             -361.77927     -431.0857      -292.55154      0             -476.86379      0              0              9.38089        9.6367086      0.2            90.400903    
     26700   0.23688042     0.00054632821  0.00054632821  0              0             -121.1795      -17.49989      -224.97393      0             -50.323734      0              0              9.3799265      9.6398523      0.2            90.421106    
     26800   0.1819825      0.00043958441  0.00043958441  0              0              562.28485      661.9581       462.50706      0             -72.895119      0              0              9.378963       9.6315444      0.2            90.333898    
     26900   0.18363993     0.0004259649   0.0004259649   0              0             -267.10132     -266.81817     -267.49692      0              61.694957      0              0              9.3779995      9.6406724      0.2            90.410221    
     27000   0.26039719     0.00055295628  0.00055295628  0              0             -90.659489     -94.895046     -86.498774      0             -66.632136      0              0              9.3770359      9.6266748      0.2            90.269676    
     27100   0.21446814     0.00059829936  0.00059829936  0              0              400.74171      374.65335      426.7259       0             -469.06933      0              0              9.3760724      9.6199208      0.2            90.197074    
     27200   0.20385508     0.00052539129  0.00052539129  0              0             -172.60426      54.999256     -400.28205      0              331.83928      0              0              9.3751089      9.6251734      0.2            90.237049    
     27300   0.2822276      0.0005555745   0.0005555745   0              0              81.351691      142.2858       20.31477       0              803.38733      0              0              9.3741454      9.6374577      0.2            90.34293     
     27400   0.19429906     0.00083588735  0.00083588735  0              0              77.692494     -52.419853      207.6925       0              184.87013      0              0              9.3731819      9.6305249      0.2            90.268662    
     27500   0.2006066      0.00042254456  0.00042254456  0              0             -231.95647     -113.7806      -350.21698      0              502.06107      0              0              9.3722183      9.6345631      0.2            90.297229    
     27600   0.16903884     0.00042044987  0.00042044987  0              0              69.861206     -74.455048      214.07104      0              330.67773      0              0              9.3712548      9.6296625      0.2            90.242021    
     27700   0.17441954     0.00058828004  0.00058828004  0              0              328.69714      537.11029      120.20516      0              432.31828      0              0              9.3702913      9.6300895      0.2            90.236743    
     27800   0.21819464     0.00049729444  0.00049729444  0              0              299.89568      894.03778     -294.35552      0              940.32619      0              0              9.3693278      9.640804       0.2            90.327853    
     27900   0.21127009     0.00056876777  0.00056876777  0              0              487.05608      654.76186      319.25215      0              6.9768753      0              0              9.3683642      9.6394786      0.2            90.306146    
     28000   0.24049379     0.00043329234  0.00043329234  0              0             -132.83981     -175.07223     -90.708681      0              469.28562      0              0              9.3674007      9.6310988      0.2            90.218361    
[...]
     43000   0.22687968     0.00062378968  0.00062378968  0              0              459.09322      453.94813      464.15383      0             -236.0823       0              0              9.2228722      9.6378783      0.2            88.88892     
     43100   0.17233937     0.00053602741  0.00053602741  0              0             -562.59492     -702.83235     -422.45926      0              398.72761      0              0              9.2219087      9.6531721      0.2            89.020672    
     43200   0.18699132     0.00051172041  0.00051172041  0              0              220.26527      446.66537     -6.2523499      0              773.52493      0              0              9.2209452      9.6571283      0.2            89.04785     
     43300   0.1651641      0.00061043629  0.00061043629  0              0              480.06172      524.17377      435.87475      0              573.13884      0              0              9.2199817      9.6581333      0.2            89.047812    
     43400   0.21027159     0.00040764493  0.00040764493  0              0             -216.13756      78.237653     -510.59346      0             -98.491552      0              0              9.2190182      9.6553822      0.2            89.013144    
     43500   0.2308778      0.00053748832  0.00053748832  0              0              28.795909     -92.685045      150.18903      0             -280.04428      0              0              9.2180546      9.6507977      0.2            88.96158     
     43600   0.30825124     0.00053401867  0.00053401867  0              0              425.42918      587.72835      263.05122      0             -15.295125      0              0              9.2170911      9.6501893      0.2            88.946674    
     43700   0.17631996     0.0006895055   0.0006895055   0              0              33.717347      589.07221     -521.73299      0             -76.893344      0              0              9.2161276      9.6514887      0.2            88.949351    
     43800   0.1805579      0.00055741908  0.00055741908  0              0              505.33837      575.26937      435.34431      0             -528.45415      0              0              9.2151641      9.6472607      0.2            88.90109     
     43900   0.21056432     0.0005600823   0.0005600823   0              0              120.86045      243.53316     -1.8844027      0             -599.97432      0              0              9.2142005      9.6543262      0.2            88.956897    
     44000   0.24986061     0.00059428828  0.00059428828  0              0              178.53688      715.82693     -358.88002      0             -418.30142      0              0              9.213237       9.6609549      0.2            89.008667    
     44100   0.30903145     0.00055388163  0.00055388163  0              0              410.49448      361.93863      458.9619       0             -114.67867      0              0              9.2122735      9.6511443      0.2            88.90898     
     44200   0.20074914     0.00059931926  0.00059931926  0              0             -182.58158     -151.45473     -213.78589      0             -203.44625      0              0              9.21131        9.6456645      0.2            88.849205    
     44300   0.1860222      0.00050378423  0.00050378423  0              0              89.95813       437.68606     -257.88292      0              22.186403      0              0              9.2103464      9.6580248      0.2            88.953755    
     44400   0.16620099     0.00042236381  0.00042236381  0              0              336.39644      157.61621      515.06096      0             -207.24852      0              0              9.2093829      9.6448439      0.2            88.82306     
     44500   0.23868707     0.00061608925  0.00061608925  0              0             -50.260276      211.25501     -311.86764      0             -93.908454      0              0              9.2084194      9.6551123      0.2            88.908324    
     44600   0.26633429     0.00061729703  0.00061729703  0              0             -174.9774      -345.91467     -4.1159089      0              309.77176      0              0              9.2074559      9.6523924      0.2            88.873977    
     44700   0.26995714     0.00046436819  0.00046436819  0              0              322.84002      393.91095      251.68491      0             -260.50301      0              0              9.2064924      9.644264       0.2            88.789843    
     44800   0.2048612      0.000457051    0.000457051    0              0             -79.600417      206.94176     -366.25317      0              254.37667      0              0              9.2055288      9.6543194      0.2            88.873116    
     44900   0.19453617     0.00056197928  0.00056197928  0              0              626.57542      1043.5692      209.48842      0              179.97908      0              0              9.2045653      9.6527286      0.2            88.849171    
     45000   0.19149044     0.00041318394  0.00041318394  0              0             -19.412757     -167.28186      128.36767      0             -136.37316      0              0              9.2036018      9.6545855      0.2            88.85696     
     45100   0.21047118     0.0006425881   0.0006425881   0              0              441.43402      1202.0341     -319.24875      0              387.50347      0              0              9.2026383      9.6652209      0.2            88.945531    
     45200   0.20898958     0.00039866269  0.00039866269  0              0              237.15789      236.43978      237.79259      0             -172.94753      0              0              9.2016747      9.6577848      0.2            88.867794    
     45300   0.24150876     0.00048002396  0.00048002396  0              0             -102.80844     -220.09493      14.371382      0              389.44623      0              0              9.2007112      9.6546731      0.2            88.829859    
     45400   0.18881232     0.0004406389   0.0004406389   0              0              101.10896      624.10387     -421.98234      0             -393.14724      0              0              9.1997477      9.6642639      0.2            88.908789    
     45500   0.23409544     0.00061769545  0.00061769545  0              0              138.11438     -377.00214      653.14715      0             -586.36015      0              0              9.1987842      9.6459955      0.2            88.73143     
     45600   0.25321738     0.00059553189  0.00059553189  0              0             -439.34672     -568.47339     -310.3153       0             -193.48848      0              0              9.1978206      9.6574333      0.2            88.827339    
     45700   0.25083002     0.00056675413  0.00056675413  0              0             -535.28499     -718.70293     -351.94435      0             -38.969701      0              0              9.1968571      9.6489224      0.2            88.739761    
     45800   0.22309142     0.00054808548  0.00054808548  0              0              818.74938      758.20312      879.21415      0              85.21646       0              0              9.1958936      9.6401043      0.2            88.649374    
     45900   0.20311241     0.00037779662  0.00037779662  0              0             -581.69143     -323.13594     -840.3473       0             -203.36023      0              0              9.1949301      9.6557442      0.2            88.783893    
     46000   0.22713556     0.00072982024  0.00072982024  0              0             -106.12931     -360.44822      148.09436      0              10.506461      0              0              9.1939666      9.6426365      0.2            88.654077    
     46100   0.18037042     0.00058427063  0.00058427063  0              0              430.52587      89.587946      771.3822       0             -29.733302      0              0              9.193003       9.6433053      0.2            88.650935    
     46200   0.24046981     0.00058975869  0.00058975869  0              0             -973.03091     -731.11852     -1215.0639      0              290.00001      0              0              9.1920395      9.6586424      0.2            88.782623    
     46300   0.22048088     0.00052267788  0.00052267788  0              0             -172.86351     -1052.5475      706.72111      0             -17.780076      0              0              9.191076       9.6429706      0.2            88.629275    
     46400   0.17079634     0.00051161847  0.00051161847  0              0             -219.29552     -910.12629      471.4607       0              196.565        0              0              9.1901125      9.6507966      0.2            88.691906    
     46500   0.23425829     0.00061561054  0.00061561054  0              0             -900.84219     -481.59298     -1320.1922      0             -242.42337      0              0              9.1891489      9.6598834      0.2            88.766107    
     46600   0.2995294      0.00051205666  0.00051205666  0              0              526.44686     -56.87358       1109.6858      0             -344.35396      0              0              9.1881854      9.64823        0.2            88.649727    
     46700   0.1887908      0.00047034639  0.00047034639  0              0              118.69663      211.51333      25.781422      0             -179.16924      0              0              9.1872219      9.6618822      0.2            88.765855    
     46800   0.1690195      0.00066005794  0.00066005794  0              0             -588.65795     -64.297297     -1113.1198      0             -257.56622      0              0              9.1862584      9.6708734      0.2            88.839142    
     46900   0.19152427     0.00060567555  0.00060567555  0              0              764.57593      363.48001      1165.5644      0              546.66469      0              0              9.1852948      9.6599599      0.2            88.72958     
     47000   0.1422341      0.00055637191  0.00055637191  0              0             -54.381783      175.46543     -284.2938       0              703.80882      0              0              9.1843313      9.6652184      0.2            88.768568    
     47100   0.19600245     0.00061899898  0.00061899898  0              0             -194.55197      377.85038     -767.04209      0              831.18837      0              0              9.1833678      9.6719122      0.2            88.820727    
     47200   0.20977526     0.00064638034  0.00064638034  0              0              855.59038      701.18746      1009.8655      0              808.25915      0              0              9.1824043      9.6541         0.2            88.647849    
     47300   0.19050197     0.00090356048  0.00090356048  0              0              420.50394      1216.5315     -375.63205      0             -439.29175      0              0              9.1814408      9.6639814      0.2            88.729273    
     47400   0.17810283     0.00048365986  0.00048365986  0              0             -123.86172      157.20035     -405.04094      0             -140.70529      0              0              9.1804772      9.6629492      0.2            88.710485    
     47500   0.17713175     0.0006068633   0.0006068633   0              0              197.51158     -243.82617      638.76029      0             -438.28441      0              0              9.1795137      9.6511808      0.2            88.593146    
     47600   0.21987229     0.00049158409  0.00049158409  0              0             -183.615       -9.2705228     -358.0603       0              55.224507      0              0              9.1785502      9.6524629      0.2            88.595615    
     47700   0.2227333      0.0004038139   0.0004038139   0              0              2.6266797      101.16168     -96.00668       0             -74.383539      0              0              9.1775867      9.6565215      0.2            88.623563    
     47800   0.21350731     0.00039824013  0.00039824013  0              0              548.91261      695.18725      402.53433      0             -16.820455      0              0              9.1766231      9.6452995      0.2            88.511278    
     47900   0.26188041     0.00061032569  0.00061032569  0              0             -79.112998      254.855       -413.16914      0              145.24843      0              0              9.1756596      9.646758       0.2            88.515368    
     48000   0.1384177      0.00062986453  0.00062986453  0              0              299.17166      428.83808      169.39377      0             -205.216        0              0              9.1746961      9.6404808      0.2            88.448481    
     48100   0.22534308     0.00039103237  0.00039103237  0              0              26.087932     -140.37559      192.44443      0             -101.37743      0              0              9.1737326      9.6436631      0.2            88.468387    
     48200   0.18377369     0.00055238453  0.00055238453  0              0             -178.83945     -110.39462     -247.36702      0             -15.991533      0              0              9.172769       9.6488723      0.2            88.506877    
     48300   0.21504315     0.00054919504  0.00054919504  0              0              127.45794      95.224607      159.60835      0             -144.22863      0              0              9.1718055      9.6470663      0.2            88.481016    
     48400   0.18023695     0.00047050201  0.00047050201  0              0             -80.035256     -211.754        51.571642      0             -99.954313      0              0              9.170842       9.6557324      0.2            88.551196    
     48500   0.15028289     0.00056444907  0.00056444907  0              0             -229.72402     -174.01634     -285.5153       0              434.69754      0              0              9.1698785      9.6603579      0.2            88.584308    
     48600   0.1865405      0.0005059323   0.0005059323   0              0              19.636699     -233.35269      272.53347      0              338.41678      0              0              9.168915       9.6583393      0.2            88.556491    
     48700   0.19210071     0.00046788671  0.00046788671  0              0             -73.151098     -47.273067     -99.138803      0              331.08473      0              0              9.1679514      9.6630233      0.2            88.590128    
     48800   0.16100343     0.0005647044   0.0005647044   0              0             -343.44307     -548.18532     -138.81118      0              220.71813      0              0              9.1669879      9.6649574      0.2            88.598547    
     48900   0.2293678      0.00060901042  0.00060901042  0              0              56.781699     -99.676803      213.15305      0              219.91725      0              0              9.1660244      9.6629892      0.2            88.571194    
     49000   0.27170048     0.00052835813  0.00052835813  0              0              331.38196      723.39397     -60.71297       0              320.81433      0              0              9.1650609      9.6536268      0.2            88.476077    
     49100   0.33740814     0.00041130696  0.00041130696  0              0              179.82865      441.57237     -82.008366      0              500.49905      0              0              9.1640973      9.6522754      0.2            88.454391    
     49200   0.19499328     0.00056561465  0.00056561465  0              0             -46.656388     -370.36173      276.93956      0              560.66469      0              0              9.1631338      9.640139       0.2            88.333884    
     49300   0.24330787     0.00050570231  0.00050570231  0              0             -241.87801     -275.48223     -208.38174      0              178.0731       0              0              9.1621703      9.6592854      0.2            88.500017    
     49400   0.16151064     0.00051304414  0.00051304414  0              0              381.49057      733.29912      29.585198      0             -261.56637      0              0              9.1612068      9.6571371      0.2            88.47103     
     49500   0.20763627     0.00055150115  0.00055150115  0              0             -363.29733     -897.34398      170.66823      0             -228.49757      0              0              9.1602432      9.656205       0.2            88.453187    
     49600   0.2233673      0.00044145764  0.00044145764  0              0             -42.832014      66.557414     -152.31395      0             -281.67523      0              0              9.1592797      9.6704517      0.2            88.574372    
     49700   0.2144519      0.00059474865  0.00059474865  0              0             -403.05052     -766.94089     -39.250107      0             -115.98533      0              0              9.1583162      9.6716781      0.2            88.576287    
     49800   0.21332983     0.00048258681  0.00048258681  0              0             -120.61793     -462.6235       221.27242      0             -36.689562      0              0              9.1573527      9.6629375      0.2            88.486926    
     49900   0.28136985     0.00079689662  0.00079689662  0              0              147.29332      411.12998     -116.64204      0             -731.88358      0              0              9.1563892      9.6641921      0.2            88.489103    
     50000   0.18750366     0.00053570218  0.00053570218  0              0              39.136187      262.93505     -184.74104      0             -104.49186      0              0              9.1554256      9.6651838      0.2            88.488871    
     50100   0.2009462      0.00056524482  0.00056524482  0              0              519.89874      743.10768      296.58832      0              178.69388      0              0              9.1544621      9.6639803      0.2            88.468541    
     50200   0.20879979     0.00061401189  0.00061401189  0              0              45.470526      142.01945     -51.154843      0              825.0571       0              0              9.1534986      9.6731443      0.2            88.543112    
     50203   0.20909188     0.00062989005  0.00062989005  0              0              283.32932      263.69413      302.86178      0              839.67571      0              0              9.1534697      9.6701193      0.2            88.515144    
Loop time of 0.687395 on 1 procs for 50000 steps with 32 atoms

Performance: 62845.981 ns/day, 0.000 hours/ns, 72738.404 timesteps/s
99.4% CPU use with 1 MPI tasks x 1 OpenMP threads

MPI task timing breakdown:
Section |  min time  |  avg time  |  max time  |%varavg| %total
---------------------------------------------------------------
Pair    | 0          | 0          | 0          |   0.0 |  0.00
Bond    | 0.099798   | 0.099798   | 0.099798   |   0.0 | 14.52
Neigh   | 0          | 0          | 0          |   0.0 |  0.00
Comm    | 0.2155     | 0.2155     | 0.2155     |   0.0 | 31.35
Output  | 0.0050742  | 0.0050742  | 0.0050742  |   0.0 |  0.74
Modify  | 0.34695    | 0.34695    | 0.34695    |   0.0 | 50.47
Other   |            | 0.02008    |            |       |  2.92

Nlocal:             32 ave          32 max          32 min
Histogram: 1 0 0 0 0 0 0 0 0 0
Nghost:            278 ave         278 max         278 min
Histogram: 1 0 0 0 0 0 0 0 0 0
Neighs:              0 ave           0 max           0 min
Histogram: 1 0 0 0 0 0 0 0 0 0

Total # of neighbors = 0
Ave neighs/atom = 0
Ave special neighs/atom = 19.5625
Neighbor list builds = 0
Dangerous builds = 0


Total wall time: 0:00:00
