LAMMPS data file via write_data, version 23 Jun 2022, timestep = 10000

80 atoms
4 atom types

-4.794839515922776 4.794839515922776 xlo xhi
-4.794839515922776 4.794839515922776 ylo yhi
-0.1 0.1 zlo zhi

Atoms # sphere

66 4 0.7 2.915451895043732 -3.2966357910891047 -4.626964059988169 0 1 0 0
60 3 1 1 -4.1219199999527945 -4.601516960686435 0 1 0 0
52 3 1 1 -3.040770247679918 -3.9596870656906447 0 1 1 0
24 2 1.3 0.4551661356395083 -2.384788782200477 4.613976731051951 0 1 -1 0
33 2 1.3 0.4551661356395083 -1.9994640652288256 -3.665871726747546 0 0 0 0
30 2 1.3 0.4551661356395083 -0.6676808742354208 -4.084817657399097 0 0 1 0
19 1 1.6 0.2441406249999999 0.8322592504374038 -4.336365225494147 0 0 1 0
72 4 0.7 2.915451895043732 3.6882971272290668 -3.9211652677136213 0 0 1 0
75 4 0.7 2.915451895043732 3.212638039696337 -4.277797890414058 0 0 0 0
64 4 0.7 2.915451895043732 4.591488396446104 -4.494830100685587 0 -1 1 0
65 4 0.7 2.915451895043732 -4.000400962507516 -3.8580738924543514 0 0 1 0
40 2 1.3 0.4551661356395083 -2.970125361535626 -2.509965652267435 0 1 1 0
79 4 0.7 2.915451895043732 -3.4470618141948908 -3.374151432465491 0 1 0 0
48 3 1 1 -1.9226287538540676 -2.5668534057752117 0 1 0 0
21 2 1.3 0.4551661356395083 -0.9778757811665257 -3.0174029371573168 0 0 0 0
28 2 1.3 0.4551661356395083 0.18479237942147808 -3.308309720315977 0 0 1 0
59 3 1 1 1.2733534138148288 -3.326210629670575 0 -1 0 0
47 3 1 1 1.7619684407991638 -2.542430233334078 0 0 0 0
3 1 1.6 0.2441406249999999 2.4964334094812024 -3.469600621481503 0 0 0 0
56 3 1 1 3.556889934225884 -2.890229408418817 0 0 0 0
29 2 1.3 0.4551661356395083 4.623965147999758 -3.6014520789546616 0 0 0 0
38 2 1.3 0.4551661356395083 -4.188491664392744 -2.719544522680636 0 1 0 0
43 3 1 1 -4.661992760461042 -1.8566167845937955 0 1 0 0
32 2 1.3 0.4551661356395083 -2.2312599481098663 -1.4961763514689936 0 1 0 0
17 1 1.6 0.2441406249999999 -0.9961975207536731 -1.59980692482665 0 0 0 0
77 4 0.7 2.915451895043732 -0.18949559803384908 -2.4482231431538493 0 0 0 0
44 3 1 1 0.058737282651728506 -1.5037753999775787 0 0 0 0
36 2 1.3 0.4551661356395083 0.7349549083061166 -2.2212104130466668 0 0 0 0
67 4 0.7 2.915451895043732 1.6351953281523377 -1.8588275712536246 0 0 0 0
55 3 1 1 2.7957763569159697 -2.3380812177003256 0 0 0 0
73 4 0.7 2.915451895043732 4.276487833679651 -2.5339523017998737 0 0 0 0
1 1 1.6 0.2441406249999999 -3.548654832080601 -1.2128304310413927 0 0 0 0
62 4 0.7 2.915451895043732 -2.5480808777596566 -0.8918181245882333 0 0 0 0
31 2 1.3 0.4551661356395083 1.0189347391701737 -0.852907277556954 0 0 0 0
7 1 1.6 0.2441406249999999 2.382936256363185 -1.0415773656485579 0 0 0 0
16 1 1.6 0.2441406249999999 3.7898416522675724 -1.6015443507630556 0 0 0 0
74 4 0.7 2.915451895043732 -2.792769405463178 -0.40982871930857634 0 0 0 0
70 4 0.7 2.915451895043732 -2.5548815088676617 0.35969036733508375 0 0 0 0
20 1 1.6 0.2441406249999999 -1.6714102819726113 -0.11208518053652838 0 0 0 0
4 1 1.6 0.2441406249999999 -0.14442296091062357 -0.25120698654715135 0 0 0 0
53 3 1 1 0.6422231349260352 0.3966078270857416 0 0 0 0
49 3 1 1 1.6390350189419962 -0.1441510342098704 0 0 0 0
39 2 1.3 0.4551661356395083 2.5218868783238086 0.2338301452245366 0 -1 0 0
50 3 1 1 3.427966928178952 -0.4115669778171487 0 0 0 0
13 1 1.6 0.2441406249999999 -4.746777373203083 -0.534017189921129 0 1 -1 0
9 1 1.6 0.2441406249999999 -3.6508043097944536 0.4407132447216684 0 1 0 0
69 4 0.7 2.915451895043732 -2.1125045865872574 0.8253911154293414 0 0 1 0
8 1 1.6 0.2441406249999999 -1.0495635250801616 1.0789757421695887 0 0 0 0
34 2 1.3 0.4551661356395083 0.25248124207760725 1.5466140788850193 0 0 0 0
14 1 1.6 0.2441406249999999 1.5807316719213338 1.0755664799577387 0 0 0 0
54 3 1 1 3.6771106499425716 0.32952344048390003 0 0 0 0
26 2 1.3 0.4551661356395083 2.90611309339928 1.3110814167801976 0 -1 0 0
27 2 1.3 0.4551661356395083 4.593882664484539 0.8710828696000785 0 0 0 0
12 1 1.6 0.2441406249999999 -4.166688291602254 1.780003511975221 0 0 0 0
18 1 1.6 0.2441406249999999 -2.6797295203304374 1.7200706580365956 0 0 0 0
22 2 1.3 0.4551661356395083 -1.4395329140191815 2.2376246524111645 0 0 0 0
37 2 1.3 0.4551661356395083 -0.41314907836374903 2.534325514674559 0 0 0 0
5 1 1.6 0.2441406249999999 1.1438731817113066 2.515018718839473 0 0 0 0
68 4 0.7 2.915451895043732 2.1942615951132245 1.8691446260563316 0 0 0 0
23 2 1.3 0.4551661356395083 2.8353546209875082 2.577929715648769 0 0 0 0
15 1 1.6 0.2441406249999999 3.9735539910994575 2.0420705733825164 0 -1 0 0
45 3 1 1 -4.746255307184523 2.768731121562003 0 0 0 0
6 1 1.6 0.2441406249999999 -3.55270321746589 3.0467199456142238 0 1 0 0
61 4 0.7 2.915451895043732 -1.0684103150268034 3.2569924403159938 0 0 -1 0
57 3 1 1 -1.44201735108983 4.160930802505183 0 1 0 0
42 3 1 1 0.40044229014180477 3.250278001111031 0 0 -1 0
51 3 1 1 -0.5262051134649708 3.8351235926300777 0 0 0 0
58 3 1 1 2.140127799919185 3.3100880199589966 0 -1 0 0
41 3 1 1 3.1463479478632417 3.609861780328913 0 -1 0 0
63 4 0.7 2.915451895043732 3.788273471020789 3.1915214037145176 0 -1 0 0
2 1 1.6 0.2441406249999999 4.6984431608970425 3.878548870905517 0 0 0 0
46 3 1 1 -3.5271979228610566 4.233271730889477 0 0 0 0
11 1 1.6 0.2441406249999999 -2.1757352574491082 3.2942308623573187 0 0 -1 0
76 4 0.7 2.915451895043732 -1.526267360423481 -4.4746405251890495 0 1 0 0
78 4 0.7 2.915451895043732 -0.6767983208655179 4.5076900783342975 0 0 -1 0
80 4 0.7 2.915451895043732 -0.10464921649710046 4.480185930512073 0 0 -1 0
71 4 0.7 2.915451895043732 0.2395726629403665 3.9888079996743073 0 -1 0 0
25 2 1.3 0.4551661356395083 1.2359744242201414 3.893044556965666 0 0 0 0
10 1 1.6 0.2441406249999999 2.3404409113719877 4.609838215349816 0 0 0 0
35 2 1.3 0.4551661356395083 3.72092095965845 4.647583364347488 0 -1 0 0

Velocities

66 -0.12392833430618552 -0.1175564471179471 0 0 0 0
60 -0.10290349812439391 -0.21901780500807738 0 0 0 0
52 0.0665011051300792 -0.05095542689565333 0 0 0 0
24 -0.07472907753509041 -0.007124579300504147 0 0 0 0
33 -0.026491904373228473 -0.1285038255785311 0 0 0 0
30 -0.14104499559521677 -0.11562347741476783 0 0 0 0
19 0.10406138212808215 -0.0006477383928867081 0 0 0 0
72 0.07517735631054787 0.14718451235490182 0 0 0 0
75 0.15551237302144078 -0.0956634869132546 0 0 0 0
64 0.15104189482429503 0.011604644066998304 0 0 0 0
65 -0.08865130338232148 0.12734216049996555 0 0 0 0
40 0.03965342233719948 0.054184915174638616 0 0 0 0
79 0.15937908513357313 0.1427808184939706 0 0 0 0
48 0.018213190228854825 -0.006620830849471558 0 0 0 0
21 -0.06427389328797595 0.16733520875817404 0 0 0 0
28 0.09683848370513606 0.17824519305927683 0 0 0 0
59 -0.09026279109721826 0.025740812901643203 0 0 0 0
47 -0.0009337663107960672 -0.03314724913118612 0 0 0 0
3 -0.20942967308757163 -0.04269888769067858 0 0 0 0
56 0.02239025022299911 -0.13500617587665822 0 0 0 0
29 0.09774348219420298 -0.20580002947634327 0 0 0 0
38 -0.17937585274433457 -0.06766635817571579 0 0 0 0
43 0.11129583525700348 0.04356770936365154 0 0 0 0
32 0.07790926919469857 0.07132251304825686 0 0 0 0
17 -0.12273046676032114 0.015929576548099195 0 0 0 0
77 -0.13262835294996447 -0.02587530363034836 0 0 0 0
44 0.09647069174650487 0.13226250777230822 0 0 0 0
36 0.004079481378604507 -0.0727389943096125 0 0 0 0
67 -0.16229178722204302 -0.00816066675801407 0 0 0 0
55 0.021021717372792653 -0.17840316730553393 0 0 0 0
73 0.08440860452661446 -0.11045968593802077 0 0 0 0
1 -0.15050826063612438 -0.04360282315665893 0 0 0 0
62 -0.03177359790639817 -0.014494982266190155 0 0 0 0
31 0.0643336613589488 0.07473819450504976 0 0 0 0
7 -0.052575209674509536 -0.17596505787419164 0 0 0 0
16 -0.06391316535108137 0.10523999343101384 0 0 0 0
74 -0.13301151163346475 0.05360835221980443 0 0 0 0
70 0.12576180680844012 0.1850151129134728 0 0 0 0
20 -0.12468523866292944 0.06085701334639436 0 0 0 0
4 0.1620566219132916 -0.00971511705586431 0 0 0 0
53 0.00992626058195737 0.0340225931903216 0 0 0 0
49 -0.02567563463783116 0.16791209097500595 0 0 0 0
39 0.1076501566663202 0.057152063755318214 0 0 0 0
50 0.21234661190742643 -0.11319191949744947 0 0 0 0
13 -0.1302893667376026 0.19502899993977682 0 0 0 0
9 -0.12754126955550382 -0.05732808164617811 0 0 0 0
69 0.20432398575677088 -0.036036807420264834 0 0 0 0
8 0.054962880381756736 -0.12919803589605025 0 0 0 0
34 0.029792419256036165 0.025562935022636773 0 0 0 0
14 -0.21283651195301373 -0.004786474332097973 0 0 0 0
54 -0.01847664509079868 -0.04209305894288339 0 0 0 0
26 -0.17738719124130894 -0.11924108000043104 0 0 0 0
27 0.03521250083041193 -0.08840760577230732 0 0 0 0
12 0.16079292363091713 -0.08216907222907921 0 0 0 0
18 -0.0270369662401849 0.09134865749872459 0 0 0 0
22 0.1419290304303811 -0.0808787507586353 0 0 0 0
37 0.13519493645236472 -0.006057327602433361 0 0 0 0
5 -0.14360886968904313 0.01943133040008569 0 0 0 0
68 0.07470632127491267 0.07072656024870212 0 0 0 0
23 0.16349835006823465 0.0724539608266334 0 0 0 0
15 -0.03952766639079175 -0.04934020397243537 0 0 0 0
45 0.013090127375918123 0.08867286018133684 0 0 0 0
6 -0.05936786368905699 0.052588964616034364 0 0 0 0
61 -0.16377081716037872 -0.07396616654299967 0 0 0 0
57 0.10034912691647907 0.12601558420176723 0 0 0 0
42 0.07540542252151834 0.1010432764080191 0 0 0 0
51 0.05155752688064691 0.1071389423837185 0 0 0 0
58 -0.16924957115522238 0.059600317920453144 0 0 0 0
41 0.09110490790085204 0.08301086775088105 0 0 0 0
63 -0.010115052570270075 -0.09768038990009104 0 0 0 0
2 0.2070592823937492 -0.1994465240137498 0 0 0 0
46 0.09759330336126619 -0.09396773884456601 0 0 0 0
11 -0.06222888037222734 -0.08838689924934914 0 0 0 0
76 -0.12710561598964826 0.22215381882147422 0 0 0 0
78 0.0011736796366160112 0.05170870627887264 0 0 0 0
80 0.00698889833409614 -0.08047976393207038 0 0 0 0
71 -0.0922556929179239 0.1371074693763603 0 0 0 0
25 0.07080040789826422 -0.12533626232019676 0 0 0 0
10 -0.061248706094546766 -0.0028510857648686265 0 0 0 0
35 -0.055443773123668015 0.07665212650050979 0 0 0 0
