ITEM: TIMESTEP
0
ITEM: NUMBER OF ATOMS
80
ITEM: BOX BOUNDS pp pp pp
-1.0000000000000000e+01 1.0000000000000000e+01
-1.0000000000000000e+01 1.0000000000000000e+01
-1.0000000000000001e-01 1.0000000000000001e-01
ITEM: ATOMS id type xs ys zs
11 1 0.187483 0.021024 0.5
80 4 0.281372 0.0126164 0.5
17 1 0.485394 0.0228094 0.5
67 4 0.556199 0.0372428 0.5
42 3 0.390914 0.0879714 0.5
22 2 0.438692 0.101789 0.5
61 4 0.595113 0.0608521 0.5
70 4 0.391391 0.108395 0.5
21 2 0.66122 0.117519 0.5
49 3 0.206889 0.18742 0.5
48 3 0.743095 0.191328 0.5
26 2 0.205346 0.255857 0.5
59 3 0.19999 0.230893 0.5
4 1 0.219566 0.249938 0.5
38 2 0.762255 0.228141 0.5
73 4 0.777192 0.261189 0.5
31 2 0.392116 0.297433 0.5
56 3 0.536757 0.274399 0.5
47 3 0.656886 0.283488 0.5
20 1 0.0313169 0.343697 0.5
8 1 0.277643 0.342667 0.5
25 2 0.508798 0.366705 0.5
78 4 0.550325 0.316744 0.5
66 4 0.759883 0.348673 0.5
60 3 0.933561 0.363139 0.5
32 2 0.966106 0.34678 0.5
33 2 0.0433994 0.413717 0.5
3 1 0.703123 0.383289 0.5
75 4 0.873171 0.393117 0.5
1 1 0.0184115 0.44204 0.5
37 2 0.20738 0.43693 0.5
36 2 0.734362 0.424623 0.5
58 3 0.730614 0.428056 0.5
77 4 0.746084 0.429184 0.5
12 1 0.820161 0.454134 0.5
13 1 0.844078 0.426179 0.5
23 2 0.850267 0.441397 0.5
24 2 0.870082 0.460641 0.5
79 4 0.84771 0.461896 0.5
62 4 0.539089 0.47536 0.5
53 3 0.813618 0.485772 0.5
9 1 0.998782 0.522015 0.5
44 3 0.720565 0.535524 0.5
51 3 0.687486 0.578927 0.5
7 1 0.888709 0.531651 0.5
29 2 0.485488 0.592826 0.5
43 3 0.50179 0.592574 0.5
72 4 0.999918 0.622997 0.5
46 3 0.143907 0.650176 0.5
45 3 0.216972 0.654893 0.5
55 3 0.812974 0.660534 0.5
76 4 0.805833 0.633144 0.5
27 2 0.943573 0.634375 0.5
54 3 0.928284 0.670622 0.5
39 2 0.121182 0.709362 0.5
63 4 0.302001 0.722434 0.5
41 3 0.480616 0.707207 0.5
68 4 0.684579 0.714107 0.5
50 3 0.882711 0.718185 0.5
57 3 0.940425 0.723501 0.5
15 1 0.410946 0.763421 0.5
74 4 0.444921 0.782045 0.5
16 1 0.50085 0.787518 0.5
52 3 0.666138 0.777135 0.5
40 2 0.911452 0.779187 0.5
35 2 0.124103 0.802971 0.5
18 1 0.460632 0.840143 0.5
30 2 0.421896 0.808508 0.5
2 1 0.915023 0.789541 0.5
6 1 0.976428 0.827161 0.5
69 4 0.453612 0.851006 0.5
14 1 0.653826 0.845231 0.5
34 2 0.737127 0.8875 0.5
19 1 0.865584 0.865153 0.5
5 1 0.0912079 0.931076 0.5
28 2 0.515792 0.923436 0.5
65 4 0.0957329 0.983561 0.5
71 4 0.0579493 0.954518 0.5
64 4 0.290829 0.960134 0.5
10 1 0.71708 0.959767 0.5
ITEM: TIMESTEP
10
ITEM: NUMBER OF ATOMS
80
ITEM: BOX BOUNDS pp pp pp
-9.2874941074233615e+00 9.2874941074233615e+00
-9.2874941074233615e+00 9.2874941074233615e+00
-1.0000000000000001e-01 1.0000000000000001e-01
ITEM: ATOMS id type xs ys zs
11 1 0.187483 0.021024 0.5
80 4 0.281372 0.0126164 0.5
17 1 0.485394 0.0228094 0.5
67 4 0.556199 0.0372428 0.5
42 3 0.390882 0.087881 0.5
22 2 0.438732 0.101796 0.5
61 4 0.595113 0.0608521 0.5
70 4 0.391383 0.108479 0.5
21 2 0.66122 0.117519 0.5
49 3 0.206892 0.187389 0.5
48 3 0.743067 0.191274 0.5
26 2 0.205177 0.256054 0.5
59 3 0.199861 0.230704 0.5
4 1 0.219862 0.249962 0.5
38 2 0.762262 0.228147 0.5
73 4 0.777213 0.261236 0.5
31 2 0.392116 0.297433 0.5
56 3 0.536757 0.274399 0.5
47 3 0.656886 0.283488 0.5
20 1 0.031345 0.343687 0.5
8 1 0.277643 0.342667 0.5
25 2 0.508798 0.366705 0.5
78 4 0.550325 0.316744 0.5
66 4 0.759883 0.348673 0.5
60 3 0.933491 0.363175 0.5
32 2 0.966147 0.346746 0.5
33 2 0.0434863 0.413629 0.5
3 1 0.70305 0.383185 0.5
75 4 0.873206 0.393078 0.5
1 1 0.0183262 0.442136 0.5
37 2 0.20738 0.43693 0.5
36 2 0.734423 0.424505 0.5
58 3 0.730398 0.42822 0.5
77 4 0.746311 0.429241 0.5
12 1 0.81976 0.454154 0.5
13 1 0.843997 0.425737 0.5
23 2 0.850397 0.441325 0.5
24 2 0.870431 0.460828 0.5
79 4 0.84771 0.462116 0.5
62 4 0.539089 0.47536 0.5
53 3 0.813588 0.485897 0.5
9 1 0.998781 0.522016 0.5
44 3 0.720565 0.535524 0.5
51 3 0.687486 0.578927 0.5
7 1 0.888709 0.531653 0.5
29 2 0.485336 0.592828 0.5
43 3 0.501942 0.592571 0.5
72 4 0.999918 0.622997 0.5
46 3 0.143907 0.650176 0.5
45 3 0.216972 0.654893 0.5
55 3 0.812988 0.660586 0.5
76 4 0.805819 0.633092 0.5
27 2 0.9436 0.634312 0.5
54 3 0.928257 0.670685 0.5
39 2 0.121182 0.709362 0.5
63 4 0.302001 0.722434 0.5
41 3 0.480616 0.707207 0.5
68 4 0.684579 0.714107 0.5
50 3 0.882711 0.718185 0.5
57 3 0.940425 0.723501 0.5
15 1 0.410861 0.763292 0.5
74 4 0.445012 0.782035 0.5
16 1 0.50089 0.787476 0.5
52 3 0.666138 0.777135 0.5
40 2 0.911379 0.778974 0.5
35 2 0.124103 0.802971 0.5
18 1 0.460754 0.840102 0.5
30 2 0.421816 0.808592 0.5
2 1 0.915069 0.789737 0.5
6 1 0.976456 0.827178 0.5
69 4 0.453523 0.851143 0.5
14 1 0.653826 0.845231 0.5
34 2 0.737127 0.887499 0.5
19 1 0.865584 0.865153 0.5
5 1 0.0912581 0.931019 0.5
28 2 0.515792 0.923436 0.5
65 4 0.0957347 0.983581 0.5
71 4 0.0578974 0.954555 0.5
64 4 0.290829 0.960134 0.5
10 1 0.71708 0.959768 0.5
ITEM: TIMESTEP
20
ITEM: NUMBER OF ATOMS
80
ITEM: BOX BOUNDS pp pp pp
-8.3857345011134683e+00 8.3857345011134683e+00
-8.3857345011134683e+00 8.3857345011134683e+00
-1.0000000000000001e-01 1.0000000000000001e-01
ITEM: ATOMS id type xs ys zs
11 1 0.187483 0.021024 0.5
80 4 0.281372 0.0126164 0.5
17 1 0.485394 0.0228094 0.5
67 4 0.556199 0.0372428 0.5
42 3 0.39075 0.0875504 0.5
22 2 0.438916 0.101824 0.5
61 4 0.595113 0.0608521 0.5
70 4 0.391331 0.108781 0.5
21 2 0.66122 0.117519 0.5
49 3 0.206897 0.187229 0.5
48 3 0.74296 0.191069 0.5
26 2 0.204584 0.256749 0.5
59 3 0.1994 0.230051 0.5
4 1 0.22091 0.250078 0.5
38 2 0.762287 0.228171 0.5
73 4 0.777295 0.261418 0.5
31 2 0.392116 0.297433 0.5
56 3 0.536753 0.274387 0.5
47 3 0.656886 0.283488 0.5
20 1 0.0314687 0.343616 0.5
8 1 0.277643 0.342667 0.5
25 2 0.508798 0.366705 0.5
78 4 0.550329 0.316755 0.5
66 4 0.759883 0.348673 0.5
60 3 0.93323 0.363306 0.5
32 2 0.966273 0.346621 0.5
33 2 0.0438064 0.413344 0.5
3 1 0.702768 0.382781 0.5
75 4 0.873345 0.392918 0.5
1 1 0.0180251 0.442454 0.5
37 2 0.20738 0.43693 0.5
36 2 0.734645 0.424109 0.5
58 3 0.729654 0.428816 0.5
77 4 0.747116 0.429446 0.5
12 1 0.818313 0.454216 0.5
13 1 0.843699 0.424156 0.5
23 2 0.85087 0.441047 0.5
24 2 0.871689 0.461466 0.5
79 4 0.847728 0.462895 0.5
62 4 0.539089 0.47536 0.5
53 3 0.813434 0.486398 0.5
9 1 0.998774 0.522048 0.5
44 3 0.720568 0.53552 0.5
51 3 0.687483 0.578931 0.5
7 1 0.888719 0.531692 0.5
29 2 0.484801 0.592837 0.5
43 3 0.502477 0.592563 0.5
72 4 0.999919 0.622997 0.5
46 3 0.143909 0.650172 0.5
45 3 0.216972 0.654893 0.5
55 3 0.813038 0.660778 0.5
76 4 0.805769 0.632899 0.5
27 2 0.943699 0.634076 0.5
54 3 0.928156 0.670915 0.5
39 2 0.121181 0.709366 0.5
63 4 0.302001 0.722434 0.5
41 3 0.480616 0.707207 0.5
68 4 0.684579 0.714107 0.5
50 3 0.88271 0.718185 0.5
57 3 0.940432 0.723496 0.5
15 1 0.410544 0.762812 0.5
74 4 0.445324 0.781981 0.5
16 1 0.501079 0.787306 0.5
52 3 0.66614 0.777122 0.5
40 2 0.911117 0.77823 0.5
35 2 0.124103 0.802971 0.5
18 1 0.461189 0.840012 0.5
30 2 0.421506 0.808895 0.5
2 1 0.915196 0.790411 0.5
6 1 0.976586 0.827258 0.5
69 4 0.453213 0.851634 0.5
14 1 0.653823 0.845244 0.5
34 2 0.737134 0.887474 0.5
19 1 0.865582 0.865155 0.5
5 1 0.0914464 0.930785 0.5
28 2 0.515792 0.923436 0.5
65 4 0.0957427 0.983676 0.5
71 4 0.057701 0.954693 0.5
64 4 0.290829 0.960134 0.5
10 1 0.717073 0.959793 0.5
ITEM: TIMESTEP
30
ITEM: NUMBER OF ATOMS
80
ITEM: BOX BOUNDS pp pp pp
-7.7375995102883506e+00 7.7375995102883506e+00
-7.7375995102883506e+00 7.7375995102883506e+00
-1.0000000000000001e-01 1.0000000000000001e-01
ITEM: ATOMS id type xs ys zs
11 1 0.187483 0.021024 0.5
80 4 0.281372 0.0126164 0.5
17 1 0.485394 0.0228091 0.5
67 4 0.556199 0.0372428 0.5
42 3 0.390455 0.0868975 0.5
22 2 0.439351 0.101884 0.5
61 4 0.595113 0.0608521 0.5
70 4 0.391191 0.109374 0.5
21 2 0.66122 0.117519 0.5
49 3 0.206904 0.186824 0.5
48 3 0.74274 0.190648 0.5
26 2 0.203459 0.258079 0.5
59 3 0.198508 0.228844 0.5
4 1 0.222921 0.250362 0.5
38 2 0.762338 0.228219 0.5
73 4 0.777464 0.261791 0.5
31 2 0.392116 0.297433 0.5
56 3 0.536735 0.27433 0.5
47 3 0.656886 0.283488 0.5
20 1 0.0317532 0.34341 0.5
8 1 0.277643 0.342667 0.5
25 2 0.508798 0.366705 0.5
78 4 0.550347 0.316813 0.5
66 4 0.759898 0.348664 0.5
60 3 0.932708 0.363569 0.5
32 2 0.966477 0.346373 0.5
33 2 0.0444441 0.412851 0.5
3 1 0.702149 0.381928 0.5
75 4 0.873663 0.392546 0.5
1 1 0.0174536 0.443004 0.5
37 2 0.20738 0.43693 0.5
36 2 0.735081 0.423385 0.5
58 3 0.728274 0.42999 0.5
77 4 0.748659 0.429856 0.5
12 1 0.815505 0.454309 0.5
13 1 0.843108 0.42111 0.5
23 2 0.851796 0.440499 0.5
24 2 0.87414 0.462616 0.5
79 4 0.847793 0.464378 0.5
62 4 0.539089 0.47536 0.5
53 3 0.81304 0.487489 0.5
9 1 0.998741 0.522182 0.5
44 3 0.720594 0.535486 0.5
51 3 0.687457 0.578965 0.5
7 1 0.888756 0.531841 0.5
29 2 0.483782 0.592852 0.5
43 3 0.503496 0.592547 0.5
72 4 0.999937 0.622994 0.5
46 3 0.143924 0.650132 0.5
45 3 0.216972 0.654893 0.5
55 3 0.813139 0.661166 0.5
76 4 0.805668 0.632512 0.5
27 2 0.943883 0.633601 0.5
54 3 0.927943 0.671346 0.5
39 2 0.121165 0.709406 0.5
63 4 0.302001 0.722434 0.5
41 3 0.480616 0.707207 0.5
68 4 0.684579 0.714107 0.5
50 3 0.882688 0.718164 0.5
57 3 0.940501 0.723449 0.5
15 1 0.409883 0.761829 0.5
74 4 0.445894 0.781819 0.5
16 1 0.50157 0.786935 0.5
52 3 0.666154 0.777047 0.5
40 2 0.910588 0.776859 0.5
35 2 0.124103 0.802971 0.5
18 1 0.462049 0.839988 0.5
30 2 0.420818 0.809476 0.5
2 1 0.915381 0.791653 0.5
6 1 0.97692 0.827464 0.5
69 4 0.452642 0.852593 0.5
14 1 0.65381 0.845319 0.5
34 2 0.737165 0.887363 0.5
19 1 0.865557 0.865193 0.5
5 1 0.0918272 0.930275 0.5
28 2 0.515792 0.923436 0.5
65 4 0.0957616 0.983903 0.5
71 4 0.0573013 0.954976 0.5
64 4 0.290829 0.960134 0.5
10 1 0.717042 0.959904 0.5
ITEM: TIMESTEP
40
ITEM: NUMBER OF ATOMS
80
ITEM: BOX BOUNDS pp pp pp
-7.2912706373178020e+00 7.2912706373178020e+00
-7.2912706373178020e+00 7.2912706373178020e+00
-1.0000000000000001e-01 1.0000000000000001e-01
ITEM: ATOMS id type xs ys zs
11 1 0.187483 0.021024 0.5
80 4 0.281372 0.0126164 0.5
17 1 0.485387 0.0227904 0.5
67 4 0.556213 0.0372447 0.5
42 3 0.389946 0.0858586 0.5
22 2 0.440118 0.102001 0.5
61 4 0.595115 0.0608535 0.5
70 4 0.390924 0.110312 0.5
21 2 0.66122 0.117519 0.5
49 3 0.206911 0.186051 0.5
48 3 0.74238 0.189956 0.5
26 2 0.201721 0.260149 0.5
59 3 0.197111 0.227037 0.5
4 1 0.226048 0.25087 0.5
38 2 0.76242 0.228295 0.5
73 4 0.777742 0.262407 0.5
31 2 0.392116 0.297433 0.5
56 3 0.536691 0.274192 0.5
47 3 0.656886 0.283488 0.5
20 1 0.0322602 0.342978 0.5
8 1 0.277644 0.342669 0.5
25 2 0.508795 0.366709 0.5
78 4 0.550394 0.316947 0.5
66 4 0.759962 0.348627 0.5
60 3 0.93187 0.363993 0.5
32 2 0.966742 0.345976 0.5
33 2 0.045469 0.412159 0.5
3 1 0.701064 0.380514 0.5
75 4 0.87424 0.391877 0.5
1 1 0.0165689 0.44379 0.5
37 2 0.20738 0.43693 0.5
36 2 0.735731 0.422276 0.5
58 3 0.726192 0.431862 0.5
77 4 0.75103 0.430512 0.5
12 1 0.811185 0.454435 0.5
13 1 0.842144 0.416398 0.5
23 2 0.853257 0.439651 0.5
24 2 0.877969 0.464288 0.5
79 4 0.847927 0.466655 0.5
62 4 0.539089 0.47536 0.5
53 3 0.812331 0.489339 0.5
9 1 0.998667 0.522494 0.5
44 3 0.720668 0.535389 0.5
51 3 0.687384 0.579062 0.5
7 1 0.888832 0.532177 0.5
29 2 0.482209 0.592877 0.5
43 3 0.505069 0.592523 0.5
72 4 1.14133e-05 0.622979 0.5
46 3 0.14397 0.650013 0.5
45 3 0.216972 0.654893 0.5
55 3 0.813302 0.661791 0.5
76 4 0.805505 0.631886 0.5
27 2 0.944135 0.632839 0.5
54 3 0.927587 0.671986 0.5
39 2 0.12112 0.709524 0.5
63 4 0.302001 0.722434 0.5
41 3 0.480612 0.707193 0.5
68 4 0.684579 0.714107 0.5
50 3 0.882573 0.718057 0.5
57 3 0.940722 0.723317 0.5
15 1 0.408743 0.760189 0.5
74 4 0.446734 0.781494 0.5
16 1 0.502561 0.786311 0.5
52 3 0.666188 0.776857 0.5
40 2 0.909727 0.774834 0.5
35 2 0.124103 0.802971 0.5
18 1 0.463447 0.840171 0.5
30 2 0.419601 0.810383 0.5
2 1 0.915608 0.793524 0.5
6 1 0.977566 0.827864 0.5
69 4 0.451773 0.854106 0.5
14 1 0.653767 0.845505 0.5
34 2 0.737244 0.88711 0.5
19 1 0.865469 0.865323 0.5
5 1 0.0924443 0.929403 0.5
28 2 0.515792 0.923436 0.5
65 4 0.0957942 0.984315 0.5
71 4 0.0566516 0.955437 0.5
64 4 0.290829 0.960134 0.5
10 1 0.716971 0.960161 0.5
ITEM: TIMESTEP
50
ITEM: NUMBER OF ATOMS
80
ITEM: BOX BOUNDS pp pp pp
-7.0252416848059944e+00 7.0252416848059944e+00
-7.0252416848059944e+00 7.0252416848059944e+00
-1.0000000000000001e-01 1.0000000000000001e-01
ITEM: ATOMS id type xs ys zs
11 1 0.187483 0.021024 0.5
80 4 0.281372 0.0126164 0.5
17 1 0.485363 0.0227107 0.5
67 4 0.556258 0.037247 0.5
42 3 0.389199 0.0844171 0.5
22 2 0.441241 0.102214 0.5
61 4 0.595132 0.0608639 0.5
70 4 0.390509 0.111608 0.5
21 2 0.66122 0.117519 0.5
49 3 0.206921 0.184839 0.5
48 3 0.741865 0.188969 0.5
26 2 0.199361 0.262966 0.5
59 3 0.195201 0.224677 0.5
4 1 0.230292 0.251595 0.5
38 2 0.762538 0.228402 0.5
73 4 0.778139 0.263288 0.5
31 2 0.392116 0.297433 0.5
56 3 0.536613 0.273951 0.5
47 3 0.656886 0.283488 0.5
20 1 0.0330285 0.342236 0.5
8 1 0.27766 0.342697 0.5
25 2 0.508776 0.366732 0.5
78 4 0.550491 0.317165 0.5
66 4 0.760107 0.348546 0.5
60 3 0.930696 0.364589 0.5
32 2 0.967044 0.34542 0.5
33 2 0.0469083 0.411302 0.5
3 1 0.699451 0.378505 0.5
75 4 0.875139 0.39087 0.5
1 1 0.0153601 0.444806 0.5
37 2 0.20738 0.43693 0.5
36 2 0.736546 0.42075 0.5
58 3 0.72342 0.434468 0.5
77 4 0.754145 0.431397 0.5
12 1 0.8055 0.454619 0.5
13 1 0.840745 0.410076 0.5
23 2 0.855259 0.438524 0.5
24 2 0.883146 0.4664 0.5
79 4 0.848127 0.469687 0.5
62 4 0.539089 0.47536 0.5
53 3 0.811309 0.491984 0.5
9 1 0.998543 0.523037 0.5
44 3 0.720807 0.535206 0.5
51 3 0.687244 0.579245 0.5
7 1 0.888965 0.532784 0.5
29 2 0.480078 0.59291 0.5
43 3 0.507201 0.59249 0.5
72 4 0.000176037 0.622949 0.5
46 3 0.144058 0.649783 0.5
45 3 0.216972 0.654893 0.5
55 3 0.813531 0.662669 0.5
76 4 0.805276 0.631009 0.5
27 2 0.944432 0.631776 0.5
54 3 0.927087 0.672802 0.5
39 2 0.121031 0.709755 0.5
63 4 0.302001 0.722434 0.5
41 3 0.480598 0.707129 0.5
68 4 0.684579 0.714107 0.5
50 3 0.882287 0.717807 0.5
57 3 0.941167 0.723075 0.5
15 1 0.40706 0.757831 0.5
74 4 0.447824 0.780973 0.5
16 1 0.504177 0.785435 0.5
52 3 0.66625 0.776512 0.5
40 2 0.908513 0.77222 0.5
35 2 0.124103 0.802971 0.5
18 1 0.465438 0.840661 0.5
30 2 0.417771 0.811625 0.5
2 1 0.915861 0.796003 0.5
6 1 0.978594 0.828496 0.5
69 4 0.450599 0.856185 0.5
14 1 0.653658 0.845827 0.5
34 2 0.737414 0.88669 0.5
19 1 0.865282 0.865595 0.5
5 1 0.0933126 0.928128 0.5
28 2 0.515798 0.923446 0.5
65 4 0.0958404 0.984937 0.5
71 4 0.0557371 0.956089 0.5
64 4 0.290829 0.960134 0.5
10 1 0.716847 0.960605 0.5
ITEM: TIMESTEP
60
ITEM: NUMBER OF ATOMS
80
ITEM: BOX BOUNDS pp pp pp
-6.8855052194266433e+00 6.8855052194266433e+00
-6.8855052194266433e+00 6.8855052194266433e+00
-1.0000000000000001e-01 1.0000000000000001e-01
ITEM: ATOMS id type xs ys zs
11 1 0.187483 0.021024 0.5
80 4 0.281372 0.0126164 0.5
17 1 0.485315 0.0225398 0.5
67 4 0.556345 0.037247 0.5
42 3 0.38822 0.0825973 0.5
22 2 0.442702 0.10255 0.5
61 4 0.595176 0.0608905 0.5
70 4 0.389946 0.113237 0.5
21 2 0.66122 0.117519 0.5
49 3 0.206943 0.183193 0.5
48 3 0.741199 0.187692 0.5
26 2 0.196431 0.266443 0.5
59 3 0.192819 0.221869 0.5
4 1 0.23553 0.252473 0.5
38 2 0.76269 0.228535 0.5
73 4 0.778653 0.264431 0.5
31 2 0.392116 0.297433 0.5
56 3 0.536499 0.273595 0.5
47 3 0.656886 0.283488 0.5
20 1 0.0340679 0.341146 0.5
8 1 0.277712 0.342797 0.5
25 2 0.508727 0.36679 0.5
78 4 0.550654 0.317463 0.5
66 4 0.760349 0.348417 0.5
60 3 0.929204 0.365352 0.5
32 2 0.967357 0.34471 0.5
33 2 0.0487522 0.410327 0.5
3 1 0.697321 0.375945 0.5
75 4 0.876401 0.389534 0.5
1 1 0.0138437 0.446008 0.5
37 2 0.20738 0.43693 0.5
36 2 0.737461 0.418798 0.5
58 3 0.720009 0.437755 0.5
77 4 0.757819 0.432449 0.5
12 1 0.798805 0.454918 0.5
13 1 0.838885 0.402401 0.5
23 2 0.857738 0.437176 0.5
24 2 0.889461 0.468817 0.5
79 4 0.848367 0.473321 0.5
62 4 0.539089 0.47536 0.5
53 3 0.810047 0.495326 0.5
9 1 0.998389 0.523841 0.5
44 3 0.721022 0.534924 0.5
51 3 0.687029 0.579527 0.5
7 1 0.889161 0.533757 0.5
29 2 0.477437 0.592951 0.5
43 3 0.509841 0.592449 0.5
72 4 0.000451935 0.622902 0.5
46 3 0.144196 0.649424 0.5
45 3 0.216972 0.654893 0.5
55 3 0.813822 0.663786 0.5
76 4 0.804985 0.629891 0.5
27 2 0.944746 0.630427 0.5
54 3 0.926457 0.673741 0.5
39 2 0.120894 0.710113 0.5
63 4 0.302001 0.722434 0.5
41 3 0.480579 0.706977 0.5
68 4 0.684579 0.714107 0.5
50 3 0.881778 0.717391 0.5
57 3 0.941881 0.72272 0.5
15 1 0.404846 0.754799 0.5
74 4 0.449113 0.780256 0.5
16 1 0.506444 0.784325 0.5
52 3 0.666344 0.775995 0.5
40 2 0.906971 0.769136 0.5
35 2 0.124103 0.802972 0.5
18 1 0.468 0.841477 0.5
30 2 0.415327 0.813178 0.5
2 1 0.916122 0.799004 0.5
6 1 0.980022 0.829361 0.5
69 4 0.449129 0.85878 0.5
14 1 0.653453 0.846289 0.5
34 2 0.737706 0.886096 0.5
19 1 0.864969 0.866042 0.5
5 1 0.0944208 0.926458 0.5
28 2 0.515827 0.923491 0.5
65 4 0.0958991 0.985772 0.5
71 4 0.0545703 0.956925 0.5
64 4 0.290829 0.960134 0.5
10 1 0.716667 0.961253 0.5
ITEM: TIMESTEP
70
ITEM: NUMBER OF ATOMS
80
ITEM: BOX BOUNDS pp pp pp
-6.8438013464323868e+00 6.8438013464323868e+00
-6.8438013464323868e+00 6.8438013464323868e+00
-1.0000000000000001e-01 1.0000000000000001e-01
ITEM: ATOMS id type xs ys zs
11 1 0.187483 0.021024 0.5
80 4 0.281372 0.0126164 0.5
17 1 0.485235 0.0222706 0.5
67 4 0.556476 0.0372432 0.5
42 3 0.387038 0.0804553 0.5
22 2 0.444445 0.103018 0.5
61 4 0.595252 0.060937 0.5
70 4 0.389254 0.115149 0.5
21 2 0.66122 0.117519 0.5
49 3 0.20699 0.181171 0.5
48 3 0.740395 0.186153 0.5
26 2 0.193031 0.27043 0.5
59 3 0.190043 0.218757 0.5
4 1 0.241557 0.253415 0.5
38 2 0.762872 0.22869 0.5
73 4 0.779275 0.265814 0.5
31 2 0.392116 0.297433 0.5
56 3 0.536349 0.273126 0.5
47 3 0.656886 0.283488 0.5
20 1 0.0353625 0.339718 0.5
8 1 0.277814 0.343002 0.5
25 2 0.508642 0.366891 0.5
78 4 0.55089 0.31783 0.5
66 4 0.76069 0.348244 0.5
60 3 0.927451 0.366257 0.5
32 2 0.967657 0.343865 0.5
33 2 0.0509618 0.409286 0.5
3 1 0.694749 0.372932 0.5
75 4 0.878013 0.387939 0.5
1 1 0.0120571 0.447328 0.5
37 2 0.20738 0.43693 0.5
36 2 0.738395 0.416434 0.5
58 3 0.716052 0.441609 0.5
77 4 0.761812 0.433575 0.5
12 1 0.791566 0.455416 0.5
13 1 0.836602 0.393741 0.5
23 2 0.860581 0.435696 0.5
24 2 0.89659 0.471369 0.5
79 4 0.848611 0.477345 0.5
62 4 0.539089 0.47536 0.5
53 3 0.808662 0.499194 0.5
9 1 0.998225 0.524912 0.5
44 3 0.721311 0.534545 0.5
51 3 0.68674 0.579906 0.5
7 1 0.889405 0.535141 0.5
29 2 0.474375 0.592998 0.5
43 3 0.512903 0.592402 0.5
72 4 0.000847124 0.622837 0.5
46 3 0.144383 0.648937 0.5
45 3 0.216972 0.654893 0.5
55 3 0.814168 0.665111 0.5
76 4 0.804639 0.628567 0.5
27 2 0.945055 0.628824 0.5
54 3 0.925718 0.674747 0.5
39 2 0.120706 0.710589 0.5
63 4 0.302001 0.722434 0.5
41 3 0.480559 0.706721 0.5
68 4 0.684579 0.714107 0.5
50 3 0.881027 0.716808 0.5
57 3 0.942878 0.722273 0.5
15 1 0.402192 0.751212 0.5
74 4 0.450537 0.779369 0.5
16 1 0.50929 0.78301 0.5
52 3 0.666469 0.775309 0.5
40 2 0.905156 0.765736 0.5
35 2 0.124104 0.802983 0.5
18 1 0.471057 0.842579 0.5
30 2 0.412346 0.814989 0.5
2 1 0.916375 0.802391 0.5
6 1 0.981827 0.83043 0.5
69 4 0.447391 0.861803 0.5
14 1 0.653138 0.846883 0.5
34 2 0.738131 0.885342 0.5
19 1 0.864514 0.866676 0.5
5 1 0.0957367 0.924438 0.5
28 2 0.515896 0.92359 0.5
65 4 0.0959656 0.986796 0.5
71 4 0.0531878 0.95792 0.5
64 4 0.290829 0.960134 0.5
10 1 0.716432 0.962099 0.5
ITEM: TIMESTEP
80
ITEM: NUMBER OF ATOMS
80
ITEM: BOX BOUNDS pp pp pp
-6.8749864359111728e+00 6.8749864359111728e+00
-6.8749864359111728e+00 6.8749864359111728e+00
-1.0000000000000001e-01 1.0000000000000001e-01
ITEM: ATOMS id type xs ys zs
11 1 0.187483 0.021024 0.5
80 4 0.281372 0.0126164 0.5
17 1 0.485122 0.0219079 0.5
67 4 0.556649 0.037235 0.5
42 3 0.385701 0.0780697 0.5
22 2 0.446394 0.103612 0.5
61 4 0.595362 0.0610037 0.5
70 4 0.388463 0.117273 0.5
21 2 0.66122 0.117519 0.5
49 3 0.207084 0.178859 0.5
48 3 0.739475 0.184397 0.5
26 2 0.189289 0.274764 0.5
59 3 0.186976 0.215494 0.5
4 1 0.248119 0.254323 0.5
38 2 0.76308 0.228859 0.5
73 4 0.779987 0.267402 0.5
31 2 0.392116 0.297433 0.5
56 3 0.536167 0.27256 0.5
47 3 0.656886 0.283487 0.5
20 1 0.0368759 0.337997 0.5
8 1 0.277967 0.343335 0.5
25 2 0.50852 0.367035 0.5
78 4 0.551194 0.318253 0.5
66 4 0.761121 0.348029 0.5
60 3 0.925522 0.367266 0.5
32 2 0.967924 0.342908 0.5
33 2 0.0534766 0.40823 0.5
3 1 0.691826 0.369585 0.5
75 4 0.87991 0.386181 0.5
1 1 0.0100534 0.448684 0.5
37 2 0.20738 0.43693 0.5
36 2 0.739274 0.413702 0.5
58 3 0.711683 0.445869 0.5
77 4 0.7659 0.434667 0.5
12 1 0.784251 0.456214 0.5
13 1 0.833997 0.384486 0.5
23 2 0.863639 0.4342 0.5
24 2 0.904188 0.473878 0.5
79 4 0.848827 0.481528 0.5
62 4 0.539089 0.47536 0.5
53 3 0.807243 0.503421 0.5
9 1 0.998066 0.526236 0.5
44 3 0.721667 0.534078 0.5
51 3 0.686384 0.580373 0.5
7 1 0.889664 0.53692 0.5
29 2 0.470999 0.59305 0.5
43 3 0.516279 0.59235 0.5
72 4 0.00135757 0.622761 0.5
46 3 0.144613 0.648335 0.5
45 3 0.216974 0.654893 0.5
55 3 0.814555 0.666598 0.5
76 4 0.804252 0.62708 0.5
27 2 0.945339 0.627017 0.5
54 3 0.924894 0.675771 0.5
39 2 0.120474 0.711164 0.5
63 4 0.302001 0.722434 0.5
41 3 0.480536 0.706362 0.5
68 4 0.684579 0.714107 0.5
50 3 0.880049 0.716077 0.5
57 3 0.944144 0.721773 0.5
15 1 0.399254 0.747237 0.5
74 4 0.452024 0.778356 0.5
16 1 0.51257 0.781528 0.5
52 3 0.666621 0.774474 0.5
40 2 0.903146 0.762184 0.5
35 2 0.124105 0.80301 0.5
18 1 0.474488 0.843884 0.5
30 2 0.408965 0.816987 0.5
2 1 0.916608 0.806 0.5
6 1 0.983949 0.831647 0.5
69 4 0.445427 0.865138 0.5
14 1 0.652717 0.84759 0.5
34 2 0.738683 0.884451 0.5
19 1 0.863911 0.867493 0.5
5 1 0.0972134 0.922142 0.5
28 2 0.516014 0.923751 0.5
65 4 0.096033 0.987969 0.5
71 4 0.0516438 0.959043 0.5
64 4 0.290829 0.960134 0.5
10 1 0.716148 0.963118 0.5
ITEM: TIMESTEP
90
ITEM: NUMBER OF ATOMS
80
ITEM: BOX BOUNDS pp pp pp
-6.9513132224204206e+00 6.9513132224204206e+00
-6.9513132224204206e+00 6.9513132224204206e+00
-1.0000000000000001e-01 1.0000000000000001e-01
ITEM: ATOMS id type xs ys zs
11 1 0.187483 0.021024 0.5
80 4 0.281372 0.0126164 0.5
17 1 0.484981 0.0214606 0.5
67 4 0.556857 0.0372223 0.5
42 3 0.384265 0.0755245 0.5
22 2 0.448465 0.104314 0.5
61 4 0.595501 0.0610887 0.5
70 4 0.387608 0.119534 0.5
21 2 0.66122 0.117519 0.5
49 3 0.207249 0.17635 0.5
48 3 0.738465 0.182469 0.5
26 2 0.18534 0.279287 0.5
59 3 0.183727 0.212224 0.5
4 1 0.254954 0.255108 0.5
38 2 0.763306 0.229035 0.5
73 4 0.78077 0.269154 0.5
31 2 0.392116 0.297433 0.5
56 3 0.535958 0.271915 0.5
47 3 0.656881 0.283476 0.5
20 1 0.0385621 0.33605 0.5
8 1 0.278165 0.343807 0.5
25 2 0.508364 0.367217 0.5
78 4 0.551558 0.318717 0.5
66 4 0.761608 0.347766 0.5
60 3 0.923508 0.368343 0.5
32 2 0.968145 0.341867 0.5
33 2 0.0562309 0.407197 0.5
3 1 0.688656 0.366036 0.5
75 4 0.882001 0.384351 0.5
1 1 0.00789096 0.449993 0.5
37 2 0.20738 0.43693 0.5
36 2 0.740054 0.41066 0.5
58 3 0.707046 0.450362 0.5
77 4 0.769936 0.435608 0.5
12 1 0.77717 0.457422 0.5
13 1 0.831174 0.37493 0.5
23 2 0.866777 0.432774 0.5
24 2 0.912016 0.476242 0.5
79 4 0.848999 0.485716 0.5
62 4 0.539089 0.47536 0.5
53 3 0.805848 0.507867 0.5
9 1 0.997923 0.527787 0.5
44 3 0.722076 0.533541 0.5
51 3 0.685975 0.58091 0.5
7 1 0.8899 0.539039 0.5
29 2 0.467418 0.593106 0.5
43 3 0.51986 0.592294 0.5
72 4 0.00197147 0.622677 0.5
46 3 0.144878 0.647639 0.5
45 3 0.216976 0.654893 0.5
55 3 0.814973 0.668198 0.5
76 4 0.803835 0.62548 0.5
27 2 0.945589 0.625057 0.5
54 3 0.924005 0.676772 0.5
39 2 0.120205 0.711814 0.5
63 4 0.302001 0.722434 0.5
41 3 0.480499 0.705919 0.5
68 4 0.684579 0.714107 0.5
50 3 0.87887 0.715214 0.5
57 3 0.945643 0.721267 0.5
15 1 0.396176 0.743026 0.5
74 4 0.453504 0.777269 0.5
16 1 0.516144 0.779907 0.5
52 3 0.666796 0.773519 0.5
40 2 0.901018 0.758619 0.5
35 2 0.124106 0.803055 0.5
18 1 0.47817 0.845316 0.5
30 2 0.405329 0.819099 0.5
2 1 0.916819 0.809687 0.5
6 1 0.986321 0.832954 0.5
69 4 0.443285 0.868677 0.5
14 1 0.652204 0.848389 0.5
34 2 0.739345 0.883452 0.5
19 1 0.863162 0.868478 0.5
5 1 0.0987996 0.919658 0.5
28 2 0.516183 0.923987 0.5
65 4 0.0960971 0.989244 0.5
71 4 0.0499935 0.960254 0.5
64 4 0.290829 0.960134 0.5
10 1 0.715824 0.964274 0.5
ITEM: TIMESTEP
100
ITEM: NUMBER OF ATOMS
80
ITEM: BOX BOUNDS pp pp pp
-7.0398325982169849e+00 7.0398325982169849e+00
-7.0398325982169849e+00 7.0398325982169849e+00
-1.0000000000000001e-01 1.0000000000000001e-01
ITEM: ATOMS id type xs ys zs
11 1 0.187483 0.021024 0.5
80 4 0.281372 0.0126164 0.5
17 1 0.484816 0.0209386 0.5
67 4 0.557091 0.0372056 0.5
42 3 0.38278 0.0728939 0.5
22 2 0.450584 0.105103 0.5
61 4 0.595666 0.0611891 0.5
70 4 0.386723 0.121869 0.5
21 2 0.66122 0.117519 0.5
49 3 0.20751 0.173726 0.5
48 3 0.737385 0.180411 0.5
26 2 0.181296 0.283871 0.5
59 3 0.180388 0.209057 0.5
4 1 0.261842 0.2557 0.5
38 2 0.763546 0.22921 0.5
73 4 0.781611 0.271037 0.5
31 2 0.392116 0.297433 0.5
56 3 0.53573 0.271209 0.5
47 3 0.656865 0.283433 0.5
20 1 0.0403831 0.333929 0.5
8 1 0.278399 0.344421 0.5
25 2 0.508181 0.367429 0.5
78 4 0.551969 0.319209 0.5
66 4 0.762093 0.347443 0.5
60 3 0.921476 0.369457 0.5
32 2 0.968313 0.340764 0.5
33 2 0.0591685 0.406215 0.5
3 1 0.685332 0.362412 0.5
75 4 0.884183 0.382507 0.5
1 1 0.00564487 0.451193 0.5
37 2 0.20738 0.43693 0.5
36 2 0.740723 0.407365 0.5
58 3 0.702242 0.454937 0.5
77 4 0.773925 0.436292 0.5
12 1 0.770441 0.459114 0.5
13 1 0.828233 0.365278 0.5
23 2 0.869881 0.431461 0.5
24 2 0.919882 0.478437 0.5
79 4 0.849126 0.489802 0.5
62 4 0.539089 0.47536 0.5
53 3 0.804505 0.512442 0.5
9 1 0.997819 0.529557 0.5
44 3 0.722524 0.532953 0.5
51 3 0.685525 0.581501 0.5
7 1 0.890085 0.541433 0.5
29 2 0.463722 0.593163 0.5
43 3 0.523556 0.592237 0.5
72 4 0.0026749 0.622591 0.5
46 3 0.14517 0.646873 0.5
45 3 0.216977 0.654894 0.5
55 3 0.815408 0.669869 0.5
76 4 0.803399 0.623808 0.5
27 2 0.945804 0.622994 0.5
54 3 0.923068 0.677722 0.5
39 2 0.119909 0.712523 0.5
63 4 0.302001 0.722434 0.5
41 3 0.480439 0.705413 0.5
68 4 0.684579 0.714107 0.5
50 3 0.877518 0.714219 0.5
57 3 0.947333 0.7208 0.5
15 1 0.393051 0.738682 0.5
74 4 0.454922 0.776158 0.5
16 1 0.519932 0.778171 0.5
52 3 0.66699 0.772473 0.5
40 2 0.89882 0.755125 0.5
35 2 0.124109 0.803113 0.5
18 1 0.482 0.846815 0.5
30 2 0.401555 0.821268 0.5
2 1 0.917017 0.81335 0.5
6 1 0.988903 0.834318 0.5
69 4 0.441007 0.872332 0.5
14 1 0.651616 0.849255 0.5
34 2 0.740093 0.882374 0.5
19 1 0.86227 0.869616 0.5
5 1 0.10045 0.917063 0.5
28 2 0.516402 0.924307 0.5
65 4 0.0961564 0.990574 0.5
71 4 0.0482841 0.961517 0.5
64 4 0.290829 0.960134 0.5
10 1 0.715471 0.965531 0.5
ITEM: TIMESTEP
110
ITEM: NUMBER OF ATOMS
80
ITEM: BOX BOUNDS pp pp pp
-7.1058109421836191e+00 7.1058109421836191e+00
-7.1058109421836191e+00 7.1058109421836191e+00
-1.0000000000000001e-01 1.0000000000000001e-01
ITEM: ATOMS id type xs ys zs
11 1 0.187483 0.021024 0.5
80 4 0.281372 0.0126164 0.5
17 1 0.484633 0.0203497 0.5
67 4 0.557346 0.0371852 0.5
42 3 0.381282 0.0702292 0.5
22 2 0.452696 0.105961 0.5
61 4 0.595851 0.0613026 0.5
70 4 0.385832 0.124235 0.5
21 2 0.66122 0.117519 0.5
49 3 0.207875 0.171021 0.5
48 3 0.736245 0.178242 0.5
26 2 0.177233 0.288435 0.5
59 3 0.177009 0.206056 0.5
4 1 0.268661 0.256087 0.5
38 2 0.763797 0.229379 0.5
73 4 0.7825 0.273036 0.5
31 2 0.392116 0.297433 0.5
56 3 0.535485 0.270458 0.5
47 3 0.656829 0.283338 0.5
20 1 0.0423205 0.331652 0.5
8 1 0.278656 0.345176 0.5
25 2 0.507976 0.367666 0.5
78 4 0.552419 0.319723 0.5
66 4 0.762521 0.347052 0.5
60 3 0.919476 0.370588 0.5
32 2 0.968425 0.339612 0.5
33 2 0.0622583 0.405297 0.5
3 1 0.681913 0.358789 0.5
75 4 0.886368 0.380667 0.5
1 1 0.00338681 0.452247 0.5
37 2 0.20738 0.43693 0.5
36 2 0.741294 0.403865 0.5
58 3 0.697301 0.459509 0.5
77 4 0.778014 0.436694 0.5
12 1 0.764004 0.461252 0.5
13 1 0.825257 0.355643 0.5
23 2 0.872874 0.430288 0.5
24 2 0.927646 0.480477 0.5
79 4 0.849219 0.493738 0.5
62 4 0.539089 0.47536 0.5
53 3 0.803225 0.517105 0.5
9 1 0.997785 0.531554 0.5
44 3 0.722987 0.532351 0.5
51 3 0.685044 0.582132 0.5
7 1 0.890196 0.544044 0.5
29 2 0.459964 0.593221 0.5
43 3 0.527315 0.592179 0.5
72 4 0.00345823 0.622506 0.5
46 3 0.145484 0.646052 0.5
45 3 0.216979 0.654894 0.5
55 3 0.815856 0.671586 0.5
76 4 0.802951 0.622092 0.5
27 2 0.945992 0.620863 0.5
54 3 0.922091 0.678604 0.5
39 2 0.119591 0.713275 0.5
63 4 0.302001 0.722434 0.5
41 3 0.48035 0.704862 0.5
68 4 0.684579 0.714107 0.5
50 3 0.87601 0.713086 0.5
57 3 0.949187 0.720384 0.5
15 1 0.389929 0.734271 0.5
74 4 0.456244 0.775055 0.5
16 1 0.523891 0.776326 0.5
52 3 0.667197 0.771358 0.5
40 2 0.896574 0.751748 0.5
35 2 0.124111 0.803181 0.5
18 1 0.485902 0.848331 0.5
30 2 0.397727 0.823455 0.5
2 1 0.91721 0.816956 0.5
6 1 0.991677 0.835725 0.5
69 4 0.438616 0.876057 0.5
14 1 0.650969 0.850175 0.5
34 2 0.74091 0.881235 0.5
19 1 0.861231 0.8709 0.5
5 1 0.102133 0.914416 0.5
28 2 0.516669 0.924724 0.5
65 4 0.0962111 0.991929 0.5
71 4 0.0465465 0.962809 0.5
64 4 0.290829 0.960134 0.5
10 1 0.715094 0.966866 0.5
ITEM: TIMESTEP
120
ITEM: NUMBER OF ATOMS
80
ITEM: BOX BOUNDS pp pp pp
-7.1300150157153883e+00 7.1300150157153883e+00
-7.1300150157153883e+00 7.1300150157153883e+00
-1.0000000000000001e-01 1.0000000000000001e-01
ITEM: ATOMS id type xs ys zs
11 1 0.187483 0.021024 0.5
80 4 0.281372 0.0126164 0.5
17 1 0.484433 0.019699 0.5
67 4 0.557617 0.0371609 0.5
42 3 0.379793 0.0675589 0.5
22 2 0.454771 0.106877 0.5
61 4 0.596056 0.0614286 0.5
70 4 0.384948 0.126608 0.5
21 2 0.66122 0.117519 0.5
49 3 0.208341 0.168233 0.5
48 3 0.735047 0.175967 0.5
26 2 0.173192 0.292952 0.5
59 3 0.173572 0.203213 0.5
4 1 0.275402 0.256301 0.5
38 2 0.764056 0.22954 0.5
73 4 0.783439 0.275151 0.5
31 2 0.392116 0.297433 0.5
56 3 0.535227 0.269667 0.5
47 3 0.656769 0.283165 0.5
20 1 0.0443733 0.329216 0.5
8 1 0.278928 0.346076 0.5
25 2 0.507749 0.367926 0.5
78 4 0.552903 0.320255 0.5
66 4 0.762851 0.346589 0.5
60 3 0.917557 0.371709 0.5
32 2 0.96848 0.338412 0.5
33 2 0.0654937 0.404448 0.5
3 1 0.678415 0.355183 0.5
75 4 0.888487 0.378814 0.5
1 1 0.00116919 0.453123 0.5
37 2 0.20738 0.43693 0.5
36 2 0.741786 0.400204 0.5
58 3 0.692217 0.464066 0.5
77 4 0.782324 0.436874 0.5
12 1 0.757699 0.463745 0.5
13 1 0.822329 0.346025 0.5
23 2 0.875738 0.429264 0.5
24 2 0.935266 0.482391 0.5
79 4 0.849285 0.497526 0.5
62 4 0.539089 0.47536 0.5
53 3 0.802 0.521857 0.5
9 1 0.997849 0.533806 0.5