ITEM: TIMESTEP
3250
ITEM: NUMBER OF ATOMS
64
ITEM: BOX BOUNDS pp pp pp
-4.8062468666684248e+00 4.8062468666684248e+00
-4.8055419851182810e+00 4.8055419851182810e+00
-1.0000000000000001e-01 1.0000000000000001e-01
ITEM: ATOMS id type xs ys zs
19 1 0.118682 0.0520953 0.499728
2 1 0.259241 0.086985 0.500139
24 1 0.674123 0.062572 0.500723
26 1 0.791947 0.12082 0.499622
69 1 0.880419 0.0720444 0.500625
22 1 0.0435561 0.147398 0.500983
41 1 0.160645 0.176274 0.499668
15 1 0.395326 0.162408 0.499532
9 1 0.547633 0.131937 0.501369
21 1 0.695133 0.205479 0.499929
11 1 0.908395 0.183932 0.499853
17 1 0.0884337 0.283064 0.499769
68 1 0.179531 0.325769 0.500389
18 1 0.275266 0.263474 0.49986
27 1 0.47965 0.266945 0.499658
48 1 0.588882 0.239863 0.498841
72 1 0.543187 0.336882 0.499849
55 1 0.789805 0.24431 0.498958
35 1 0.956085 0.313546 0.500436
58 1 0.0270746 0.39221 0.499685
38 1 0.146254 0.410832 0.500643
34 1 0.260477 0.40086 0.499186
46 1 0.475849 0.366002 0.500704
51 1 0.574986 0.429454 0.499352
1 1 0.658193 0.352521 0.498962
74 1 0.771536 0.326092 0.499019
56 1 0.848509 0.322202 0.500195
12 1 0.0531346 0.50619 0.500096
43 1 0.184263 0.524412 0.499997
78 1 0.245034 0.488385 0.502481
37 1 0.378982 0.585811 0.500851
63 1 0.489511 0.443311 0.499149
6 1 0.513357 0.538675 0.500349
5 1 0.664275 0.505022 0.499552
7 1 0.796096 0.437916 0.499594
50 1 0.136632 0.609376 0.500667
67 1 0.204469 0.624777 0.501279
80 1 0.230485 0.582759 0.501617
77 1 0.284969 0.546708 0.499599
4 1 0.612593 0.65043 0.50049
40 1 0.740652 0.605565 0.499132
25 1 0.0245654 0.642511 0.500095
28 1 0.15318 0.70448 0.500104
13 1 0.294448 0.697042 0.500182
20 1 0.456273 0.715378 0.499269
31 1 0.581121 0.794048 0.50171
79 1 0.688785 0.738291 0.500925
71 1 0.720808 0.683233 0.500162
76 1 0.758778 0.741969 0.499691
52 1 0.804641 0.70123 0.498476
10 1 0.930196 0.726665 0.499248
33 1 0.0716724 0.776818 0.500095
16 1 0.205039 0.834321 0.500346
36 1 0.354597 0.818022 0.50021
39 1 0.689206 0.837898 0.498608
3 1 0.832213 0.835747 0.500111
29 1 0.9697 0.850025 0.499246
32 1 0.0887951 0.908186 0.499998
75 1 0.173401 0.940163 0.500599
44 1 0.2348 0.957256 0.500087
62 1 0.28774 0.89582 0.501748
47 1 0.690983 0.956271 0.499897
66 1 0.772682 0.932312 0.500161
8 1 0.877652 0.980086 0.499931
ITEM: TIMESTEP
3500
ITEM: NUMBER OF ATOMS
64
ITEM: BOX BOUNDS pp pp pp
-4.8050451379114607e+00 4.8050451379114607e+00
-4.8094605078274224e+00 4.8094605078274224e+00
-1.0000000000000001e-01 1.0000000000000001e-01
ITEM: ATOMS id type xs ys zs
19 1 0.117973 0.0523567 0.498277
2 1 0.258712 0.0875213 0.500504
24 1 0.674026 0.0626928 0.500606
26 1 0.792154 0.120101 0.500503
69 1 0.880584 0.0715398 0.501076
22 1 0.0434409 0.148566 0.501181
41 1 0.160367 0.175416 0.499273
15 1 0.394593 0.162881 0.499998
9 1 0.547072 0.132527 0.501562
21 1 0.69602 0.204842 0.500471
11 1 0.907828 0.184222 0.499579
17 1 0.0897865 0.284238 0.501056
68 1 0.180903 0.328045 0.502369
18 1 0.274832 0.263895 0.50057
27 1 0.47944 0.26715 0.497418
48 1 0.589593 0.240602 0.499705
72 1 0.543343 0.336364 0.50029
55 1 0.790592 0.24464 0.501739
35 1 0.957564 0.313496 0.501562
58 1 0.0278525 0.392883 0.499937
38 1 0.145629 0.411888 0.502372
34 1 0.259813 0.401659 0.497177
46 1 0.476961 0.366472 0.499875
51 1 0.575217 0.429022 0.499147
1 1 0.658427 0.35251 0.496202
74 1 0.772491 0.326219 0.498743
56 1 0.849476 0.32229 0.500604
12 1 0.0521382 0.507266 0.501939
43 1 0.183557 0.524866 0.500848
78 1 0.245023 0.489258 0.503624
37 1 0.379824 0.585546 0.500082
63 1 0.48992 0.443464 0.499852
6 1 0.514698 0.538747 0.501214
5 1 0.66456 0.50572 0.498933
7 1 0.796186 0.438077 0.498176
50 1 0.135982 0.609149 0.501378
67 1 0.204108 0.62462 0.503277
80 1 0.229738 0.58247 0.50191
77 1 0.284784 0.547328 0.499694
4 1 0.613138 0.650928 0.50135
40 1 0.741335 0.6061 0.498385
25 1 0.0244712 0.643542 0.499891
28 1 0.152966 0.704071 0.499847
13 1 0.293895 0.696642 0.498965
20 1 0.456285 0.716329 0.499498
31 1 0.58204 0.793646 0.501249
79 1 0.688927 0.738636 0.501368
71 1 0.721557 0.683657 0.500537
76 1 0.75902 0.742491 0.497676
52 1 0.805113 0.701834 0.496149
10 1 0.929299 0.727328 0.499184
33 1 0.0714278 0.776286 0.499077
16 1 0.204788 0.83422 0.501723
36 1 0.353968 0.817152 0.500776
39 1 0.689109 0.837551 0.498695
3 1 0.832228 0.836578 0.501083
29 1 0.969701 0.849994 0.497932
32 1 0.0893996 0.908297 0.501893
75 1 0.174288 0.940296 0.499958
44 1 0.235835 0.957254 0.501688
62 1 0.288033 0.895212 0.50141
47 1 0.690472 0.956229 0.500677
66 1 0.77289 0.933309 0.499969
8 1 0.879068 0.979446 0.500025
ITEM: TIMESTEP
3750
ITEM: NUMBER OF ATOMS
64
ITEM: BOX BOUNDS pp pp pp
-4.8038434091544966e+00 4.8038434091544966e+00
-4.8089177732642723e+00 4.8089177732642723e+00
-1.0000000000000001e-01 1.0000000000000001e-01
ITEM: ATOMS id type xs ys zs
19 1 0.118433 0.0525319 0.498422
2 1 0.259431 0.0864695 0.498785
24 1 0.674414 0.0623336 0.499585
26 1 0.792052 0.120722 0.50231
69 1 0.880178 0.0721349 0.501121
22 1 0.0442033 0.148237 0.500914
41 1 0.160917 0.175755 0.496391
15 1 0.394566 0.163197 0.49973
9 1 0.54653 0.131536 0.50302
21 1 0.695897 0.205277 0.499759
11 1 0.908869 0.183905 0.501419
17 1 0.0903116 0.283801 0.502596
68 1 0.181328 0.32806 0.499628
18 1 0.275335 0.264191 0.499552
27 1 0.479736 0.266944 0.499036
48 1 0.5896 0.239869 0.500696
72 1 0.544274 0.336065 0.500633
55 1 0.790531 0.244311 0.501531
35 1 0.957475 0.313154 0.500038
58 1 0.0280371 0.393098 0.500973
38 1 0.146323 0.412166 0.503632
34 1 0.261053 0.4012 0.496801
46 1 0.477499 0.366094 0.498746
51 1 0.575624 0.43031 0.497823
1 1 0.658312 0.352915 0.49467
74 1 0.772322 0.326167 0.500128
56 1 0.849094 0.321864 0.500252
12 1 0.0518289 0.507371 0.502996
43 1 0.183669 0.524906 0.499864
78 1 0.244675 0.488153 0.503086
37 1 0.378793 0.58482 0.499825
63 1 0.490264 0.443507 0.499629
6 1 0.514004 0.5391 0.502512
5 1 0.664601 0.505587 0.499149
7 1 0.796478 0.438163 0.500322
50 1 0.136854 0.609688 0.501057
67 1 0.205343 0.625481 0.503389
80 1 0.229829 0.582679 0.502087
77 1 0.2841 0.546506 0.499918
4 1 0.612603 0.650922 0.502891
40 1 0.740335 0.605523 0.496781
25 1 0.025039 0.643788 0.500175
28 1 0.153609 0.704962 0.501106
13 1 0.295243 0.697204 0.497441
20 1 0.457876 0.714942 0.500932
31 1 0.581963 0.795647 0.500223
79 1 0.688459 0.73898 0.501358
71 1 0.720784 0.683708 0.500961
76 1 0.758957 0.741866 0.498577
52 1 0.8049 0.701252 0.498112
10 1 0.930016 0.727231 0.498044
33 1 0.0721221 0.776716 0.497611
16 1 0.205543 0.834274 0.501678
36 1 0.355013 0.817247 0.50195
39 1 0.688579 0.838498 0.498498
3 1 0.831952 0.8357 0.498982
29 1 0.970337 0.850442 0.498783
32 1 0.0900311 0.908701 0.503895
75 1 0.174917 0.940495 0.500826
44 1 0.236821 0.956905 0.501874
62 1 0.289539 0.895502 0.500172
47 1 0.69152 0.956471 0.499007
66 1 0.773579 0.932984 0.496662
8 1 0.879513 0.980094 0.501047
ITEM: TIMESTEP
4000
ITEM: NUMBER OF ATOMS
64
ITEM: BOX BOUNDS pp pp pp
-4.8026416803975316e+00 4.8026416803975316e+00
-4.8060126743990921e+00 4.8060126743990921e+00
-1.0000000000000001e-01 1.0000000000000001e-01
ITEM: ATOMS id type xs ys zs
19 1 0.119302 0.0523176 0.498756
2 1 0.259253 0.0868395 0.500661
24 1 0.675578 0.062791 0.498992
26 1 0.792537 0.121012 0.502409
69 1 0.880461 0.0716979 0.501489
22 1 0.0449283 0.147855 0.501631
41 1 0.162198 0.176726 0.495977
15 1 0.395913 0.162046 0.500515
9 1 0.547839 0.13174 0.505351
21 1 0.696472 0.205966 0.501216
11 1 0.909183 0.183424 0.501299
17 1 0.0893594 0.283835 0.502624
68 1 0.180914 0.327078 0.497705
18 1 0.275208 0.263343 0.500224
27 1 0.479249 0.266552 0.498288
48 1 0.588997 0.240863 0.499729
72 1 0.543321 0.335653 0.50069
55 1 0.791046 0.245582 0.500506
35 1 0.956628 0.312643 0.499823
58 1 0.0267231 0.392433 0.500793
38 1 0.147241 0.412154 0.504621
34 1 0.261076 0.400422 0.496719
46 1 0.476621 0.365902 0.498687
51 1 0.574541 0.42966 0.498208
1 1 0.658062 0.352746 0.495671
74 1 0.772399 0.32738 0.499713
56 1 0.848983 0.323597 0.499005
12 1 0.0535989 0.507306 0.502392
43 1 0.184041 0.525685 0.50049
78 1 0.244317 0.487914 0.502929
37 1 0.37816 0.584089 0.499601
63 1 0.489816 0.443426 0.497001
6 1 0.51347 0.539091 0.502404
5 1 0.664086 0.505774 0.499549
7 1 0.795708 0.439053 0.499696
50 1 0.136023 0.61034 0.500294
67 1 0.204151 0.625681 0.503557
80 1 0.230531 0.583705 0.501589
77 1 0.283861 0.546311 0.500223
4 1 0.612489 0.650729 0.505501
40 1 0.741261 0.605686 0.498153
25 1 0.0237697 0.642358 0.500599
28 1 0.154115 0.705224 0.503053
13 1 0.294992 0.696673 0.495652
20 1 0.458015 0.714151 0.501505
31 1 0.581527 0.794904 0.499083
79 1 0.688984 0.73836 0.500742
71 1 0.721355 0.683358 0.500863
76 1 0.759029 0.742275 0.498942
52 1 0.80512 0.700905 0.497012
10 1 0.930363 0.7284 0.499053
33 1 0.0727099 0.776582 0.499781
16 1 0.205898 0.834408 0.503486
36 1 0.356227 0.816538 0.504321
39 1 0.689193 0.837801 0.496934
3 1 0.832878 0.836039 0.501454
29 1 0.97059 0.850379 0.496826
32 1 0.0905899 0.908625 0.500501
75 1 0.175573 0.940923 0.500894
44 1 0.237645 0.956739 0.502718
62 1 0.290161 0.894936 0.500132
47 1 0.69141 0.956067 0.497785
66 1 0.774077 0.933197 0.49595
8 1 0.879624 0.979927 0.501152
ITEM: TIMESTEP
4250
ITEM: NUMBER OF ATOMS
64
ITEM: BOX BOUNDS pp pp pp
-4.8014399516405675e+00 4.8014399516405675e+00
-4.8088683398650316e+00 4.8088683398650316e+00
-1.0000000000000001e-01 1.0000000000000001e-01
ITEM: ATOMS id type xs ys zs
19 1 0.118338 0.0519962 0.498099
2 1 0.259214 0.0858265 0.500362
24 1 0.674127 0.0623204 0.497586
26 1 0.792391 0.121179 0.501304
69 1 0.880822 0.0715176 0.501726
22 1 0.0445416 0.148289 0.503091
41 1 0.160843 0.175218 0.496918
15 1 0.395287 0.162837 0.500923
9 1 0.547867 0.132113 0.507248
21 1 0.696589 0.207153 0.501214
11 1 0.909126 0.183809 0.502393
17 1 0.0899015 0.283447 0.504003
68 1 0.180741 0.326853 0.495756
18 1 0.274374 0.262397 0.501415
27 1 0.479244 0.267682 0.498381
48 1 0.589053 0.240872 0.499255
72 1 0.544075 0.335875 0.501985
55 1 0.791485 0.24558 0.501126
35 1 0.957116 0.313247 0.500572
58 1 0.0279122 0.392055 0.499237
38 1 0.146329 0.411281 0.503775
34 1 0.260089 0.399552 0.496197
46 1 0.477501 0.366733 0.498522
51 1 0.574942 0.429652 0.500144
1 1 0.658238 0.353472 0.49701
74 1 0.772678 0.327131 0.499666
56 1 0.849564 0.323251 0.497593
12 1 0.052678 0.50636 0.502858
43 1 0.183842 0.524588 0.500825
78 1 0.243781 0.487236 0.505849
37 1 0.378595 0.583903 0.499681
63 1 0.489863 0.444158 0.497549
6 1 0.514124 0.539085 0.503091
5 1 0.664198 0.50619 0.499535
7 1 0.796159 0.438882 0.4999
50 1 0.135455 0.6095 0.50022
67 1 0.204023 0.624507 0.502635
80 1 0.230524 0.582542 0.500575
77 1 0.284061 0.545572 0.500358
4 1 0.61317 0.6506 0.504854
40 1 0.741562 0.605873 0.497791
25 1 0.0232514 0.642075 0.499924
28 1 0.153804 0.704438 0.504924
13 1 0.295032 0.695905 0.494895
20 1 0.457971 0.71559 0.499827
31 1 0.581741 0.794856 0.498995
79 1 0.689137 0.738067 0.500893
71 1 0.721344 0.683253 0.50109
76 1 0.759046 0.742063 0.498447
52 1 0.805159 0.701786 0.497904
10 1 0.929639 0.72758 0.499181
33 1 0.0718992 0.776357 0.50014
16 1 0.205326 0.833615 0.504802
36 1 0.35562 0.816632 0.50487
39 1 0.689087 0.837551 0.497508
3 1 0.832472 0.836572 0.502436
29 1 0.97007 0.850471 0.496762
32 1 0.089716 0.907953 0.501573
75 1 0.17441 0.940249 0.501161
44 1 0.235963 0.956721 0.501467
62 1 0.288616 0.895428 0.501282
47 1 0.690719 0.955651 0.497399
66 1 0.773024 0.933428 0.496581
8 1 0.879168 0.97972 0.500006
ITEM: TIMESTEP
4500
ITEM: NUMBER OF ATOMS
64
ITEM: BOX BOUNDS pp pp pp
-4.8002382228836034e+00 4.8002382228836034e+00
-4.8102133280838126e+00 4.8102133280838126e+00
-1.0000000000000001e-01 1.0000000000000001e-01
ITEM: ATOMS id type xs ys zs
19 1 0.119329 0.0514487 0.497758
2 1 0.260095 0.0869666 0.501558
24 1 0.673672 0.0630707 0.498739
26 1 0.79215 0.120615 0.500909
69 1 0.881133 0.0723388 0.50232
22 1 0.0446125 0.147592 0.504355
41 1 0.160135 0.174903 0.496715
15 1 0.395068 0.163306 0.500769
9 1 0.547675 0.132325 0.506856
21 1 0.697168 0.206369 0.502103
11 1 0.909228 0.184029 0.50323
17 1 0.08973 0.283017 0.504279
68 1 0.180331 0.326811 0.496252
18 1 0.273703 0.261525 0.501296
27 1 0.479784 0.267767 0.499442
48 1 0.590144 0.240736 0.499557
72 1 0.543925 0.336588 0.502445
55 1 0.791253 0.246257 0.501449
35 1 0.957657 0.313006 0.499817
58 1 0.0284065 0.392243 0.497879
38 1 0.145219 0.411212 0.504998
34 1 0.259603 0.399038 0.496001
46 1 0.476761 0.366584 0.499773
51 1 0.575206 0.429869 0.499839
1 1 0.659072 0.35363 0.498112
74 1 0.772862 0.327833 0.500373
56 1 0.849518 0.323828 0.499289
12 1 0.0519379 0.506993 0.504053
43 1 0.183465 0.524687 0.499678
78 1 0.243181 0.48629 0.507088
37 1 0.377658 0.584111 0.501122
63 1 0.489933 0.44378 0.499255
6 1 0.513202 0.539023 0.501482
5 1 0.664027 0.506718 0.499613
7 1 0.797065 0.439209 0.499395
50 1 0.135592 0.609328 0.500812
67 1 0.204105 0.624944 0.503889
80 1 0.230244 0.582614 0.500658
77 1 0.283465 0.544463 0.502548
4 1 0.611977 0.65082 0.505236
40 1 0.740878 0.606338 0.498171
25 1 0.0231862 0.64251 0.500705
28 1 0.152886 0.703912 0.505083
13 1 0.29456 0.696825 0.49609
20 1 0.456956 0.714415 0.500756
31 1 0.582316 0.794268 0.497119
79 1 0.687924 0.738786 0.501748
71 1 0.720322 0.684039 0.501346
76 1 0.758052 0.742713 0.496056
52 1 0.804419 0.702362 0.497454
10 1 0.929356 0.727799 0.49776
33 1 0.0721749 0.776369 0.49984
16 1 0.20545 0.833977 0.502696
36 1 0.355334 0.81647 0.504739
39 1 0.688559 0.83864 0.496893
3 1 0.83196 0.836259 0.503238
29 1 0.969633 0.85002 0.497304
32 1 0.0889724 0.908324 0.501634
75 1 0.17408 0.940513 0.501916
44 1 0.236378 0.957197 0.502179
62 1 0.288924 0.89524 0.49996
47 1 0.691637 0.95649 0.496876
66 1 0.774317 0.934415 0.4958
8 1 0.880557 0.980333 0.500261
ITEM: TIMESTEP
4750
ITEM: NUMBER OF ATOMS
64
ITEM: BOX BOUNDS pp pp pp
-4.7990364941266392e+00 4.7990364941266392e+00
-4.8108499848571409e+00 4.8108499848571409e+00
-1.0000000000000001e-01 1.0000000000000001e-01
ITEM: ATOMS id type xs ys zs
19 1 0.119125 0.0522731 0.498387
2 1 0.258939 0.0862237 0.499357
24 1 0.675458 0.062373 0.495801
26 1 0.792617 0.121536 0.502172
69 1 0.880807 0.0721237 0.502129
22 1 0.0447916 0.147921 0.504148
41 1 0.161233 0.175934 0.494893
15 1 0.396378 0.162616 0.500706
9 1 0.548662 0.132223 0.507683
21 1 0.697272 0.207246 0.500983
11 1 0.909585 0.184144 0.50386
17 1 0.0892902 0.283325 0.504245
68 1 0.180711 0.327359 0.498392
18 1 0.274647 0.261655 0.502695
27 1 0.47926 0.268309 0.498928
48 1 0.589748 0.240581 0.498634
72 1 0.544017 0.337411 0.50124
55 1 0.791882 0.246098 0.502561
35 1 0.956899 0.313215 0.499476
58 1 0.0277621 0.392751 0.498084
38 1 0.145581 0.41141 0.503599
34 1 0.259898 0.399418 0.496914
46 1 0.476957 0.367115 0.500903
51 1 0.574731 0.430104 0.500284
1 1 0.658693 0.352924 0.499085
74 1 0.772406 0.327386 0.501638
56 1 0.849484 0.32455 0.497707
12 1 0.05203 0.50692 0.50373
43 1 0.183508 0.524799 0.498113
78 1 0.242964 0.486541 0.50626
37 1 0.37776 0.583939 0.502881
63 1 0.489286 0.444187 0.497037
6 1 0.513321 0.539551 0.500941
5 1 0.664013 0.506414 0.499805
7 1 0.796168 0.43949 0.499374
50 1 0.135772 0.609842 0.501698
67 1 0.204344 0.625139 0.501682
80 1 0.230485 0.582747 0.500274
77 1 0.283594 0.544745 0.503958
4 1 0.612285 0.650551 0.504905
40 1 0.740652 0.606098 0.498905
25 1 0.0234809 0.64314 0.499774
28 1 0.153387 0.704709 0.503848
13 1 0.294592 0.696084 0.496081
20 1 0.457161 0.713816 0.501646
31 1 0.581493 0.794551 0.49691
79 1 0.688517 0.7385 0.503475
71 1 0.720756 0.683973 0.500068
76 1 0.75834 0.742704 0.496479
52 1 0.804461 0.701606 0.496434
10 1 0.929685 0.72749 0.49581
33 1 0.072136 0.776805 0.500517
16 1 0.205387 0.833442 0.503301
36 1 0.355006 0.815435 0.504865
39 1 0.688043 0.838399 0.498025
3 1 0.831807 0.836593 0.502742
29 1 0.969613 0.850594 0.497148
32 1 0.089977 0.908289 0.499051
75 1 0.174702 0.939788 0.502013
44 1 0.23678 0.95626 0.501484
62 1 0.289317 0.894195 0.500259
47 1 0.690912 0.955957 0.495338
66 1 0.773663 0.934053 0.495351
8 1 0.880213 0.9796 0.499777
ITEM: TIMESTEP
5000
ITEM: NUMBER OF ATOMS
64
ITEM: BOX BOUNDS pp pp pp
-4.7978347653696742e+00 4.7978347653696742e+00
-4.8100802583491538e+00 4.8100802583491538e+00
-1.0000000000000001e-01 1.0000000000000001e-01
ITEM: ATOMS id type xs ys zs
19 1 0.119207 0.0519798 0.497096
2 1 0.260219 0.0853378 0.49976
24 1 0.674628 0.0620925 0.495874
26 1 0.792113 0.12168 0.502766
69 1 0.880686 0.0721835 0.500841
22 1 0.0450758 0.148017 0.504254
41 1 0.162105 0.175423 0.494298
15 1 0.396158 0.162966 0.500403
9 1 0.547987 0.132115 0.506476
21 1 0.697324 0.208497 0.501252
11 1 0.908855 0.183887 0.503658
17 1 0.0902485 0.283619 0.504193
68 1 0.181384 0.327568 0.49777
18 1 0.274998 0.262417 0.503214
27 1 0.479689 0.268065 0.499929
48 1 0.589536 0.240507 0.499894
72 1 0.543232 0.33828 0.502719
55 1 0.79196 0.246862 0.502151
35 1 0.957813 0.312226 0.499622
58 1 0.0273283 0.392737 0.498798
38 1 0.146049 0.411313 0.502344
34 1 0.260273 0.398917 0.49826
46 1 0.475823 0.366997 0.501193
51 1 0.573692 0.42983 0.499672
1 1 0.657798 0.353852 0.499822
74 1 0.772693 0.32817 0.501039
56 1 0.849962 0.324429 0.496278
12 1 0.0523052 0.507533 0.503187
43 1 0.183844 0.525185 0.498768
78 1 0.243006 0.48592 0.50533
37 1 0.377212 0.583082 0.503393
63 1 0.488694 0.444285 0.496663
6 1 0.512929 0.539341 0.50123
5 1 0.663334 0.506224 0.500675
7 1 0.795358 0.439809 0.497345
50 1 0.135373 0.60978 0.502588
67 1 0.204034 0.625003 0.502758
80 1 0.230478 0.583175 0.500687
77 1 0.282961 0.544349 0.503867
4 1 0.611567 0.651138 0.504725
40 1 0.73993 0.606291 0.497633
25 1 0.0223594 0.642424 0.500186
28 1 0.153092 0.704897 0.502758
13 1 0.294285 0.696257 0.496847
20 1 0.457582 0.71483 0.502104
31 1 0.581408 0.795308 0.497722
79 1 0.687846 0.738509 0.499082
71 1 0.720466 0.68393 0.501596
76 1 0.757759 0.742981 0.498227
52 1 0.804103 0.702217 0.497283
10 1 0.929643 0.727964 0.49614
33 1 0.0723075 0.776546 0.500893
16 1 0.205411 0.833657 0.501827
36 1 0.35538 0.816329 0.505389
39 1 0.689041 0.837851 0.496872
3 1 0.83211 0.835998 0.504154
29 1 0.970387 0.850129 0.496656
32 1 0.0898979 0.908092 0.501009
75 1 0.174591 0.940219 0.501716
44 1 0.236855 0.956193 0.499539
62 1 0.289268 0.894483 0.498611
47 1 0.690534 0.955766 0.494677
66 1 0.774017 0.93398 0.495768
8 1 0.880003 0.979707 0.499104
ITEM: TIMESTEP
5250
ITEM: NUMBER OF ATOMS
64
ITEM: BOX BOUNDS pp pp pp
-4.7966330366127101e+00 4.7966330366127101e+00
-4.8106964602520392e+00 4.8106964602520392e+00
-1.0000000000000001e-01 1.0000000000000001e-01
ITEM: ATOMS id type xs ys zs
19 1 0.117612 0.051593 0.496779
2 1 0.258425 0.0856347 0.499202
24 1 0.673567 0.0620832 0.496884
26 1 0.791563 0.120963 0.501086
69 1 0.880064 0.0710864 0.499845
22 1 0.0442741 0.148512 0.504931
41 1 0.160341 0.174805 0.4942
15 1 0.394964 0.162703 0.501009
9 1 0.547493 0.133033 0.508578
21 1 0.697009 0.208746 0.501549
11 1 0.908505 0.182679 0.502747
17 1 0.0902981 0.283585 0.504561
68 1 0.181176 0.327196 0.498363
18 1 0.274155 0.262538 0.503973
27 1 0.479756 0.267919 0.500801
48 1 0.589607 0.24101 0.500371
72 1 0.543328 0.337093 0.50285
55 1 0.791522 0.24654 0.503246
35 1 0.957407 0.312074 0.499866
58 1 0.0278457 0.391963 0.499415
38 1 0.146224 0.411516 0.501682
34 1 0.260687 0.400031 0.496691
46 1 0.476684 0.367325 0.501759
51 1 0.574037 0.429253 0.499367
1 1 0.658306 0.353174 0.499669
74 1 0.772596 0.328376 0.501037
56 1 0.849744 0.324714 0.496033
12 1 0.0517255 0.506792 0.502866
43 1 0.183178 0.524671 0.498648
78 1 0.242801 0.486565 0.505554
37 1 0.377785 0.583002 0.50193
63 1 0.488569 0.444344 0.496655
6 1 0.513798 0.539182 0.502598
5 1 0.663211 0.505409 0.499396
7 1 0.795469 0.440188 0.497445
50 1 0.135336 0.609124 0.502428
67 1 0.20393 0.62391 0.502357
80 1 0.230677 0.581968 0.500002
77 1 0.283726 0.54416 0.505411
4 1 0.611743 0.650469 0.504598
40 1 0.739469 0.606263 0.498283
25 1 0.0232512 0.642485 0.500279
28 1 0.153656 0.703987 0.502074
13 1 0.294905 0.696274 0.497019
20 1 0.457286 0.714163 0.502634
31 1 0.581444 0.793643 0.497107
79 1 0.688304 0.738769 0.498751
71 1 0.720327 0.683534 0.502936
76 1 0.758532 0.74231 0.49953
52 1 0.804406 0.701304 0.494886
10 1 0.929344 0.72706 0.495497
33 1 0.0719026 0.775561 0.500716
16 1 0.205742 0.83318 0.50194
36 1 0.356087 0.81639 0.505333
39 1 0.688764 0.83777 0.497338
3 1 0.831738 0.836201 0.504943
29 1 0.970062 0.849037 0.496219
32 1 0.0894344 0.90758 0.502566
75 1 0.174222 0.939302 0.502143
44 1 0.235936 0.955591 0.49969
62 1 0.289181 0.894078 0.499687
47 1 0.689742 0.955917 0.491865
66 1 0.772875 0.93352 0.494955
8 1 0.879243 0.979001 0.497112
ITEM: TIMESTEP
5500
ITEM: NUMBER OF ATOMS
64
ITEM: BOX BOUNDS pp pp pp
-4.7954313078557460e+00 4.7954313078557460e+00
-4.8200914090260421e+00 4.8200914090260421e+00
-1.0000000000000001e-01 1.0000000000000001e-01
ITEM: ATOMS id type xs ys zs
19 1 0.117554 0.051433 0.49748
2 1 0.258766 0.0852443 0.499413
24 1 0.673284 0.0614039 0.496101
26 1 0.79144 0.120374 0.500475
69 1 0.880032 0.0713531 0.500783
22 1 0.0436728 0.1484 0.503741
41 1 0.160471 0.174643 0.493706
15 1 0.394639 0.162645 0.502296
9 1 0.548111 0.132739 0.507914
21 1 0.695988 0.207133 0.500764
11 1 0.907779 0.183175 0.503488
17 1 0.0896651 0.283423 0.503899
68 1 0.181065 0.327061 0.498084
18 1 0.275263 0.262044 0.500744
27 1 0.478825 0.267518 0.498552
48 1 0.589155 0.241321 0.499827
72 1 0.543344 0.336155 0.502099
55 1 0.790719 0.246145 0.502943
35 1 0.956838 0.31159 0.499328
58 1 0.026715 0.391799 0.49723
38 1 0.145988 0.411332 0.500932
34 1 0.259523 0.399039 0.497083
46 1 0.476951 0.366995 0.50031
51 1 0.574409 0.429882 0.500351
1 1 0.658292 0.353745 0.499709
74 1 0.77195 0.32745 0.503478
56 1 0.849092 0.323884 0.495748
12 1 0.0514198 0.505985 0.502058
43 1 0.183153 0.524828 0.497394
78 1 0.24231 0.48562 0.50749
37 1 0.377043 0.583654 0.501344
63 1 0.488591 0.44424 0.499293
6 1 0.513069 0.539299 0.50317
5 1 0.663623 0.506081 0.499435
7 1 0.795617 0.438289 0.497669
50 1 0.135056 0.609228 0.50363
67 1 0.203507 0.624003 0.502637
80 1 0.229886 0.5822 0.496332
77 1 0.282749 0.543451 0.504498
4 1 0.611503 0.650633 0.504198
40 1 0.740697 0.606343 0.495311
25 1 0.0220149 0.641588 0.500649
28 1 0.153216 0.703921 0.501126
13 1 0.294204 0.696082 0.496854
20 1 0.456834 0.713714 0.503293
31 1 0.58026 0.79455 0.495737
79 1 0.687548 0.738269 0.500366
71 1 0.720375 0.68375 0.503455
76 1 0.75767 0.742899 0.499498
52 1 0.803994 0.702358 0.494483
10 1 0.928977 0.727662 0.494762
33 1 0.0718954 0.776012 0.49971
16 1 0.205337 0.833317 0.501691
36 1 0.35527 0.816185 0.504931
39 1 0.68799 0.837294 0.49591
3 1 0.831386 0.836346 0.506506
29 1 0.969497 0.849237 0.495512
32 1 0.0892529 0.907037 0.503881
75 1 0.174102 0.939711 0.502821
44 1 0.236532 0.956022 0.500318
62 1 0.28938 0.894297 0.500869
47 1 0.690171 0.955765 0.492964
66 1 0.772741 0.933542 0.495361
8 1 0.879272 0.979296 0.496922
ITEM: TIMESTEP
5750
ITEM: NUMBER OF ATOMS
64
ITEM: BOX BOUNDS pp pp pp
-4.7942295790987819e+00 4.7942295790987819e+00
-4.8171217781306801e+00 4.8171217781306801e+00
-1.0000000000000001e-01 1.0000000000000001e-01
ITEM: ATOMS id type xs ys zs
19 1 0.11721 0.0524898 0.499632
2 1 0.25872 0.0847655 0.500206
24 1 0.672137 0.0612362 0.496807
26 1 0.790849 0.119258 0.499884
69 1 0.880307 0.0715871 0.501613
22 1 0.043418 0.148375 0.501572
41 1 0.161237 0.174845 0.495102
15 1 0.393785 0.162489 0.503171
9 1 0.546897 0.133273 0.507053
21 1 0.695088 0.206141 0.500318
11 1 0.907386 0.183642 0.504226
17 1 0.0896136 0.283569 0.505207
68 1 0.180061 0.328279 0.499724
18 1 0.273214 0.263224 0.500176
27 1 0.478532 0.266663 0.497743
48 1 0.588509 0.24115 0.500713
72 1 0.542672 0.336141 0.503516
55 1 0.789649 0.244905 0.50302
35 1 0.956674 0.312164 0.499282
58 1 0.0270268 0.391758 0.499774
38 1 0.145833 0.412757 0.502021
34 1 0.260205 0.400072 0.497379
46 1 0.475592 0.365445 0.500335
51 1 0.57472 0.430139 0.500539
1 1 0.658256 0.353814 0.5018
74 1 0.772102 0.326588 0.505003
56 1 0.848415 0.321945 0.495465
12 1 0.0508508 0.506678 0.503466
43 1 0.18241 0.52577 0.496521
78 1 0.241847 0.487034 0.508149
37 1 0.376843 0.583672 0.502661
63 1 0.489026 0.442689 0.499138
6 1 0.513022 0.538675 0.502406
5 1 0.66455 0.50625 0.499479
7 1 0.796583 0.438463 0.498225
50 1 0.134178 0.609564 0.504417
67 1 0.202609 0.624914 0.502285
80 1 0.229367 0.583516 0.49469
77 1 0.282566 0.54475 0.503449
4 1 0.611157 0.650161 0.504536
40 1 0.74006 0.606511 0.496212
25 1 0.0215261 0.642023 0.500062
28 1 0.152524 0.704562 0.501325
13 1 0.293274 0.696113 0.496315
20 1 0.456083 0.713658 0.50182
31 1 0.57961 0.794562 0.498393
79 1 0.686316 0.73925 0.499955
71 1 0.719115 0.684193 0.504989
76 1 0.756979 0.742735 0.501186
52 1 0.80345 0.702307 0.494122
10 1 0.928667 0.727784 0.493581
33 1 0.0713503 0.777068 0.500908
16 1 0.205091 0.83359 0.502211
36 1 0.355124 0.816034 0.502961
39 1 0.687252 0.838573 0.496125
3 1 0.831005 0.836547 0.506791
29 1 0.969015 0.850781 0.495785
32 1 0.0892866 0.908005 0.504339
75 1 0.174132 0.940082 0.502961
44 1 0.236476 0.955178 0.498065
62 1 0.289112 0.894087 0.499024
47 1 0.69013 0.955493 0.493227
66 1 0.773234 0.93435 0.495048
8 1 0.87998 0.979496 0.497444
ITEM: TIMESTEP
6000
ITEM: NUMBER OF ATOMS
64
ITEM: BOX BOUNDS pp pp pp
-4.7930278503418169e+00 4.7930278503418169e+00
-4.8132064449038543e+00 4.8132064449038543e+00
-1.0000000000000001e-01 1.0000000000000001e-01
ITEM: ATOMS id type xs ys zs
19 1 0.118035 0.0515471 0.501177
2 1 0.258986 0.0844933 0.500542
24 1 0.672184 0.0621384 0.498788
26 1 0.791063 0.119864 0.501143
69 1 0.879735 0.0710802 0.500961
22 1 0.0430411 0.147311 0.49976
41 1 0.161941 0.174662 0.494108
15 1 0.393789 0.162517 0.502211
9 1 0.546156 0.132344 0.507255
21 1 0.694639 0.205453 0.501685
11 1 0.907534 0.183176 0.503873
17 1 0.0904145 0.282794 0.503761
68 1 0.18096 0.327856 0.500636
18 1 0.273533 0.263009 0.498332
27 1 0.47749 0.267036 0.497289
48 1 0.587484 0.240796 0.499896
72 1 0.543242 0.33498 0.501877
55 1 0.789539 0.244974 0.504931
35 1 0.957266 0.312359 0.499398
58 1 0.0278247 0.391461 0.500155
38 1 0.144345 0.411523 0.502769
34 1 0.259639 0.399553 0.496878
46 1 0.477106 0.366535 0.498983
51 1 0.575302 0.430663 0.501688
1 1 0.657792 0.353427 0.503801
74 1 0.772019 0.326462 0.504918
56 1 0.849067 0.321677 0.494194
12 1 0.0502843 0.50695 0.501434
43 1 0.181975 0.525079 0.495955
78 1 0.241285 0.486399 0.508564
37 1 0.376704 0.583404 0.503592
63 1 0.489287 0.443726 0.498567
6 1 0.513097 0.539013 0.501299
5 1 0.665009 0.506563 0.497496
7 1 0.796299 0.437563 0.497805
50 1 0.133995 0.609724 0.503013
67 1 0.202608 0.624909 0.502689
80 1 0.228677 0.583073 0.4958
77 1 0.281894 0.54494 0.50489
4 1 0.61171 0.650362 0.503661
40 1 0.740456 0.60674 0.496271
25 1 0.0213986 0.64306 0.499738
28 1 0.152407 0.704669 0.501317
13 1 0.293486 0.695526 0.494016
20 1 0.456245 0.71316 0.499371
31 1 0.580156 0.794331 0.500013
79 1 0.686609 0.739099 0.501093
71 1 0.719955 0.684339 0.50388
76 1 0.756845 0.7432 0.501443
52 1 0.803654 0.703413 0.493773
10 1 0.92854 0.72884 0.494536
33 1 0.0714164 0.776362 0.502768
16 1 0.205631 0.833214 0.501002
36 1 0.354875 0.815059 0.502052
39 1 0.68714 0.838283 0.496589
3 1 0.83028 0.836486 0.507222
29 1 0.969497 0.850552 0.495747
32 1 0.0895256 0.907475 0.505543
75 1 0.174579 0.939562 0.502246
44 1 0.236483 0.955303 0.498319
62 1 0.289678 0.893943 0.499615
47 1 0.69004 0.956073 0.49228
66 1 0.773394 0.934586 0.49469
8 1 0.880085 0.979388 0.49695
ITEM: TIMESTEP
6250
ITEM: NUMBER OF ATOMS
64
ITEM: BOX BOUNDS pp pp pp
-4.7918261215848528e+00 4.7918261215848528e+00
-4.8162903699731885e+00 4.8162903699731885e+00
-1.0000000000000001e-01 1.0000000000000001e-01
ITEM: ATOMS id type xs ys zs
19 1 0.117426 0.0523104 0.500408
2 1 0.258733 0.0850471 0.498209
24 1 0.673101 0.0633022 0.499114
26 1 0.790587 0.121637 0.501403
69 1 0.87908 0.0716949 0.500257
22 1 0.0435212 0.148562 0.499506
41 1 0.160765 0.174384 0.49713
15 1 0.394904 0.163132 0.50439
9 1 0.547826 0.133789 0.506904
21 1 0.694318 0.206155 0.499846
11 1 0.907907 0.183381 0.504528
17 1 0.0899681 0.283006 0.504373
68 1 0.18066 0.328152 0.501444
18 1 0.273351 0.262935 0.49787
27 1 0.478866 0.267444 0.496826
48 1 0.58855 0.242239 0.500086
72 1 0.543862 0.335694 0.502633
55 1 0.789665 0.244201 0.50693
35 1 0.956459 0.31194 0.498974
58 1 0.0274936 0.39103 0.498818
38 1 0.14455 0.411258 0.502939
34 1 0.259516 0.399593 0.494603
46 1 0.477429 0.366585 0.500536
51 1 0.575273 0.430292 0.500314
1 1 0.658532 0.353732 0.502648
74 1 0.771597 0.325822 0.504029
56 1 0.848551 0.321719 0.491811
12 1 0.0499851 0.506336 0.50185
43 1 0.181887 0.52387 0.496426
78 1 0.24235 0.486683 0.510107
37 1 0.377334 0.582901 0.503898
63 1 0.489812 0.443678 0.498311
6 1 0.513437 0.538522 0.501366
5 1 0.664421 0.506227 0.495768
7 1 0.796847 0.437699 0.498114
50 1 0.134323 0.608678 0.502999
67 1 0.20252 0.623825 0.501859
80 1 0.228448 0.581578 0.496059
77 1 0.282508 0.544677 0.503567
4 1 0.61172 0.650716 0.504024
40 1 0.739881 0.606882 0.494716
25 1 0.0213566 0.641993 0.497403
28 1 0.15205 0.7034 0.501172
13 1 0.293186 0.695173 0.495167
20 1 0.456009 0.71124 0.498407
31 1 0.579124 0.794199 0.500689
79 1 0.68729 0.739018 0.499399
71 1 0.719978 0.684601 0.502257
76 1 0.757885 0.743427 0.5024
52 1 0.803565 0.702456 0.49532
10 1 0.928698 0.728258 0.494804
33 1 0.0716544 0.775902 0.505328
16 1 0.204929 0.832931 0.503014
36 1 0.354782 0.814025 0.502395
39 1 0.686823 0.838564 0.496171
3 1 0.83137 0.837385 0.50694
29 1 0.969521 0.849949 0.496454
32 1 0.0895638 0.907887 0.506251
75 1 0.175223 0.939709 0.502182
44 1 0.237465 0.955204 0.499829
62 1 0.289446 0.892744 0.499888
47 1 0.690573 0.957315 0.494101
66 1 0.773507 0.935529 0.496204
8 1 0.880608 0.980044 0.497465
ITEM: TIMESTEP
6500
ITEM: NUMBER OF ATOMS
64
ITEM: BOX BOUNDS pp pp pp
-4.7906243928278887e+00 4.7906243928278887e+00
-4.8230875309858980e+00 4.8230875309858980e+00
-1.0000000000000001e-01 1.0000000000000001e-01
ITEM: ATOMS id type xs ys zs
19 1 0.117438 0.051774 0.500855
2 1 0.258725 0.08403 0.496897
24 1 0.673247 0.0613482 0.500525
26 1 0.790786 0.120242 0.501538
69 1 0.879914 0.0714106 0.496467
22 1 0.0433157 0.147925 0.500638
41 1 0.161711 0.173623 0.499947
15 1 0.394571 0.162259 0.504417