LAMMPS (23 Jun 2022 - Update 4)
  using 1 OpenMP thread(s) per MPI task
# Compute elastic constant tensor for a crystal
#
# Written by Aidan Thompson (Sandia, athomps@sandia.gov)
#
#  This script uses the following three include files.
#
#   init.mod      (must be modified for different crystal structures)
# 	       	  Define units, deformation parameters and initial
#		  configuration of the atoms and simulation cell.
#
#
#   potential.mod    (must be modified for different pair styles)
# 		     Define pair style and other attributes
#		     not stored in restart file
#
#
#   displace.mod    (displace.mod should not need to be modified)
# 		    Perform positive and negative box displacements
# 		    in direction ${dir} and size ${up}.
# 		    It uses the resultant changes
#		    in stress to compute one
# 		    row of the elastic stiffness tensor
#
#		    Inputs variables:
#		    	   dir = the Voigt deformation component
#		    		    (1,2,3,4,5,6)
#		    Global constants:
#       	    	   up = the deformation magnitude (strain units)
#       		   cfac = conversion from LAMMPS pressure units to
#               	   output units for elastic constants
#
#
#  To run this on a different system, it should only be necessary to
#  modify the files init.mod and potential.mod. In order to calculate
#  the elastic constants correctly, care must be taken to specify
#  the correct units in init.mod (units, cfac and cunits). It is also
#  important to verify that the minimization of energy w.r.t atom
#  positions in the deformed cell is fully converged.
#  One indication of this is that the elastic constants are insensitive
#  to the choice of the variable ${up} in init.mod. Another is to check
#  the final max and two-norm forces reported in the log file. If you know
#  that minimization is not required, you can set maxiter = 0.0 in
#  init.mod.
#



variable dt equal 0.01
variable strain equal 0.05
variable srate equal 1e-4
variable M equal 1000 # averaging time for properties
variable strainsteps equal ${strain}/${dt}/${srate}
variable strainsteps equal 0.05/${dt}/${srate}
variable strainsteps equal 0.05/0.01/${srate}
variable strainsteps equal 0.05/0.01/0.0001


dimension 2
include init.mod
# NOTE: This script can be modified for different atomic structures,
# units, etc. See in.elastic for more info.
#

# Define the finite deformation size. Try several values of this
# variable to verify that results do not depend on it.
variable up equal 1.0e-1

# Define the amount of random jiggle for atoms
# This prevents atoms from staying on saddle points
variable atomjiggle equal 1.0e-6

# Uncomment one of these blocks, depending on what units
# you are using in LAMMPS and for output

# metal units, elastic constants in eV/A^3
#units		metal
#variable cfac equal 6.2414e-7
#variable cunits string eV/A^3

# Choose potential
# metal units, elastic constants in GPa
units		metal
atom_style	full
#pair_style      lj/cut 1.0
#pair_style      yukawa 1.0 2.0
#pair_modify     mix arithmetic
bond_style      harmonic
angle_style     harmonic
dihedral_style  zero
special_bonds   amber
variable cfac equal 1.0e-4
variable cunits string GPa
boundary	p p p

# Need to set mass to something, just to satisfy LAMMPS
#mass 1 1.0e-20
read_data network.lmp
Reading data file ...
  orthogonal box = (-4.806913 -4.806913 -0.1) to (4.806913 4.806913 0.1)
  1 by 1 by 1 MPI processor grid
WARNING: Atom style in data file differs from currently defined atom style (src/read_data.cpp:538)
  reading atoms ...
  64 atoms
WARNING: Bond style in data file differs from currently defined bond style (src/read_data.cpp:630)
  scanning bonds ...
  5 = max bonds/atom
  reading bonds ...
  140 bonds
Finding 1-2 1-3 1-4 neighbors ...
  special bond factors lj:    0        0        0.5     
  special bond factors coul:  0        0        0.8333333333333334
     8 = max # of 1-2 neighbors
    39 = max # of 1-3 neighbors
   219 = max # of 1-4 neighbors
    32 = max # of special neighbors
  special bonds CPU = 0.000 seconds
  read_data CPU = 0.003 seconds

# real units, elastic constants in GPa
#units		real
#variable cfac equal 1.01325e-4
#variable cunits string GPa

# Define minimization parameters
variable etol equal 0.0
variable ftol equal 5.0e-10
variable maxiter equal 100000
variable maxeval equal 20000
variable dmax equal 1.0e-2


include potential.mod
# NOTE: This script can be modified for different pair styles
# See in.elastic for more info.

# Setup neighbor style
neighbor 3.0 nsq
neigh_modify once no every 1 delay 0 check yes
comm_modify cutoff 2.0

# Setup minimization style
min_style	     cg
min_modify	     dmax ${dmax} line quadratic
min_modify	     dmax 0.01 line quadratic

timestep	0.001


# Setup output
thermo		500
thermo_style custom step temp pe ebond eangle edihed press pxx pyy pzz pxy pxz pyz lx ly lz vol
thermo_modify norm no


#change_box all triclinic
comm_modify mode single cutoff 10.0 vel yes
atom_modify sort 0 0



# Compute initial state

#dump rela all atom 1 traj_relax.lmpstrj
fix 3 all box/relax x 0 y 0 # xy 0  #MS comment: relax if the network is periodic
minimize ${etol} ${ftol} ${maxiter} ${maxeval}
minimize 0 ${ftol} ${maxiter} ${maxeval}
minimize 0 5e-10 ${maxiter} ${maxeval}
minimize 0 5e-10 100000 ${maxeval}
minimize 0 5e-10 100000 20000
Neighbor list info ...
  update every 1 steps, delay 0 steps, check yes
  max neighbors/atom: 2000, page size: 100000
  master list distance cutoff = 0
  ghost atom cutoff = 10
  0 neighbor lists, perpetual/occasional/extra = 0 0 0
WARNING: Inconsistent image flags (src/domain.cpp:819)
Per MPI rank memory allocation (min/avg/max) = 8.969 | 8.969 | 8.969 Mbytes
   Step          Temp          PotEng         E_bond        E_angle        E_dihed         Press           Pxx            Pyy            Pzz            Pxy            Pxz            Pyz             Lx             Ly             Lz           Volume    
         0   0              4.2944197e-11  4.2944197e-11  0              0              0.017862655   -0.0053781662   0.041103477    0             -0.017587428    0              0              9.613826       9.613826       0.2            92.42565     
       500   0              8.1594031e-13  8.1594031e-13  0              0             -1.6751449e-05 -1.7104358e-05 -1.639854e-05   0              0.00031294971  0              0              9.6138275      9.6138264      0.2            92.425668    
      1000   0              8.1100367e-13  8.1100367e-13  0              0              2.2487626e-05 -8.6349402e-05  0.00013132465  0             -1.4768307e-05  0              0              9.6138286      9.6138253      0.2            92.425669    
      1500   0              8.0885364e-13  8.0885364e-13  0              0             -6.4704811e-08 -3.0766443e-07  1.7825481e-07  0             -0.00010410733  0              0              9.6138291      9.6138249      0.2            92.42567     
      2000   0              8.0801576e-13  8.0801576e-13  0              0             -6.2032925e-05 -6.1171556e-05 -6.2894293e-05  0              3.3987995e-05  0              0              9.6138295      9.6138246      0.2            92.42567     
      2500   0              8.0756519e-13  8.0756519e-13  0              0             -8.6113198e-07 -4.3128325e-05  4.1406061e-05  0             -4.6773242e-05  0              0              9.6138299      9.6138242      0.2            92.42567     
      3000   0              8.073741e-13   8.073741e-13   0              0              9.3305568e-06 -3.0424924e-05  4.9086037e-05  0             -3.6905887e-06  0              0              9.61383        9.6138241      0.2            92.425671    
      3111   0              8.0735002e-13  8.0735002e-13  0              0             -1.4234188e-08 -2.3066605e-07  2.0219767e-07  0              2.6429903e-05  0              0              9.6138301      9.6138241      0.2            92.425671    
Loop time of 0.165253 on 1 procs for 3111 steps with 64 atoms

97.3% CPU use with 1 MPI tasks x 1 OpenMP threads

Minimization stats:
  Stopping criterion = force tolerance
  Energy initial, next-to-last, final = 
    4.29441965786366e-11 8.0735006429119e-13 8.07350018469992e-13
  Force two-norm initial, final = 2.6770474e-05 4.0899889e-10
  Force max component initial, final = 8.1105121e-06 8.4895066e-11
  Final line search alpha, max atom move = 1 8.4895066e-11
  Iterations, force evaluations = 3111 6222

MPI task timing breakdown:
Section |  min time  |  avg time  |  max time  |%varavg| %total
---------------------------------------------------------------
Pair    | 0          | 0          | 0          |   0.0 |  0.00
Bond    | 0.023684   | 0.023684   | 0.023684   |   0.0 | 14.33
Neigh   | 0          | 0          | 0          |   0.0 |  0.00
Comm    | 0.050138   | 0.050138   | 0.050138   |   0.0 | 30.34
Output  | 3.936e-05  | 3.936e-05  | 3.936e-05  |   0.0 |  0.02
Modify  | 0          | 0          | 0          |   0.0 |  0.00
Other   |            | 0.09139    |            |       | 55.30

Nlocal:             64 ave          64 max          64 min
Histogram: 1 0 0 0 0 0 0 0 0 0
Nghost:            524 ave         524 max         524 min
Histogram: 1 0 0 0 0 0 0 0 0 0
Neighs:              0 ave           0 max           0 min
Histogram: 1 0 0 0 0 0 0 0 0 0

Total # of neighbors = 0
Ave neighs/atom = 0
Ave special neighs/atom = 24.09375
Neighbor list builds = 0
Dangerous builds = 0
#dump rela all atom 1 traj_relax.lmpstrj
thermo 100
unfix 3

fix 2d all enforce2d



#dump dump0 all xyz 1000000 cfg0.xyz
#dump_modify dump0 format line "%d %20.10g %20.10g %20.10g"
#minimize ${etol} ${ftol} ${maxiter} ${maxeval}

#undump rela

#write_restart restart.equil

# These formulas define the derivatives w.r.t. strain components
# Constants uses $, variables use v_


timestep        ${dt}
timestep        0.01
variable nsteps equal round(${strainsteps})
variable nsteps equal round(50000)

fix             4 all nve
fix             5 all langevin 0.1 0.1 1 904297
#fix		6 all press/berendsen y  0.0 0.0 1 x 0.0 0.0 10
fix             6 all nph y 0.0 0.0 10 ptemp 0.1 # x 0.0 0.0 10

# For PLUMED2
# fix 22 all plumed plumedfile plumed.dat outfile plumed.out

#fix             6 all nph x 0.0 0.0 10
fix     	9 all deform 1 x erate -${srate} units box remap x
fix     	9 all deform 1 x erate -0.0001 units box remap x

#fix     8 all deform 1 xy erate ${srate} units box remap x



#fix    10 all ave/time

dump 1 all atom 250 deform_dump.lammpstrj


#To avoid flying ice cube phenomenon:
#fix 21 all momentum 100 linear 1 1 1 angular


run  ${nsteps}
run  50000
WARNING: One or more atoms are time integrated more than once (src/modify.cpp:292)
WARNING: Inconsistent image flags (src/domain.cpp:819)
Per MPI rank memory allocation (min/avg/max) = 7.844 | 7.844 | 7.844 Mbytes
   Step          Temp          PotEng         E_bond        E_angle        E_dihed         Press           Pxx            Pyy            Pzz            Pxy            Pxz            Pyz             Lx             Ly             Lz           Volume    
      3111   0              8.0735002e-13  8.0735002e-13  0              0             -1.4234188e-08 -2.3066605e-07  2.0219767e-07  0              2.6429903e-05  0              0              9.6138301      9.6138241      0.2            92.425671    
      3200   0.19098149     0.00062466361  0.00062466361  0              0              46.493121      178.80716     -85.995689      0              91.590698      0              0              9.6129744      9.6075845      0.2            92.357464    
      3300   0.18373705     0.00096575083  0.00096575083  0              0              307.6182       642.66563     -27.651599      0              243.48406      0              0              9.612013       9.61587        0.2            92.427868    
      3400   0.24933165     0.00085773877  0.00085773877  0              0              217.08775      331.83339      102.17578      0             -10.556661      0              0              9.6110517      9.6185834      0.2            92.444702    
      3500   0.25351275     0.0012474036   0.0012474036   0              0              651.69325      1287.8873      15.326192      0             -435.03623      0              0              9.6100903      9.618921       0.2            92.438699    
      3600   0.18053814     0.0010129899   0.0010129899   0              0              80.089647      252.30358     -92.319724      0             -403.17069      0              0              9.6091289      9.616186       0.2            92.40317     
      3700   0.17890438     0.0010152422   0.0010152422   0              0              585.56067      1164.9376      5.9809227      0             -321.08351      0              0              9.6081675      9.6180264      0.2            92.411609    
      3800   0.31054674     0.001000066    0.001000066    0              0              94.940676     -88.437261      278.11943      0              64.233465      0              0              9.6072061      9.6180774      0.2            92.402852    
      3900   0.24968966     0.0012215612   0.0012215612   0              0              481.41117      578.81828      383.76339      0             -556.88609      0              0              9.6062447      9.613792       0.2            92.352439    
      4000   0.17119578     0.0013744068   0.0013744068   0              0              627.12819      964.28991      289.79905      0              86.764597      0              0              9.6052834      9.6120253      0.2            92.326227    
      4100   0.19494462     0.0010447073   0.0010447073   0              0             -72.94706      -181.158        35.06134       0              400.69116      0              0              9.604322       9.6183898      0.2            92.378112    
      4200   0.18954427     0.00091687276  0.00091687276  0              0             -108.42964      12.263283     -229.31463      0             -297.09398      0              0              9.6033606      9.6202665      0.2            92.386888    
      4300   0.19735248     0.00099218066  0.00099218066  0              0             -159.70337      190.48784     -510.07826      0              418.43136      0              0              9.6023992      9.6202307      0.2            92.377295    
      4400   0.17100517     0.0008693495   0.0008693495   0              0              18.967246      663.61112     -625.88025      0             -537.80129      0              0              9.6014378      9.6231442      0.2            92.39602     
      4500   0.20610523     0.0011520001   0.0011520001   0              0             -595.16406     -772.8903      -417.63874      0              131.72909      0              0              9.6004764      9.6204267      0.2            92.36068     
      4600   0.22124135     0.0011058022   0.0011058022   0              0              87.314116      141.08395      33.378862      0              158.4246       0              0              9.5995151      9.6196004      0.2            92.343499    
      4700   0.15213751     0.0009750399   0.0009750399   0              0              917.33986      1299.1197      535.36578      0             -58.79286       0              0              9.5985537      9.6208167      0.2            92.345926    
      4800   0.22275739     0.0011204367   0.0011204367   0              0              1032.0049      1143.7288      920.06861      0             -47.039402      0              0              9.5975923      9.6134114      0.2            92.265603    
      4900   0.18751212     0.0011362617   0.0011362617   0              0              255.02087     -515.29384      1025.1441      0             -473.03284      0              0              9.5966309      9.6129941      0.2            92.252357    
      5000   0.18489213     0.0010007673   0.0010007673   0              0              622.01947      535.82329      708.01602      0              42.726236      0              0              9.5956695      9.6201605      0.2            92.311881    
      5100   0.1869823      0.0010153268   0.0010153268   0              0             -196.34773     -438.14543      45.226702      0             -856.5132       0              0              9.5947081      9.6268976      0.2            92.367273    
      5200   0.19701323     0.0010611829   0.0010611829   0              0             -326.48034     -88.602737     -564.52264      0             -381.20784      0              0              9.5937468      9.6325778      0.2            92.412512    
      5300   0.2071117      0.0013257559   0.0013257559   0              0             -345.92457      476.38001     -1168.4393      0             -642.50472      0              0              9.5927854      9.6314114      0.2            92.392063    
      5400   0.19812866     0.00095633194  0.00095633194  0              0             -462.63476      435.88891     -1361.3576      0             -190.21218      0              0              9.591824       9.6289422      0.2            92.359119    
      5500   0.19068877     0.0010107528   0.0010107528   0              0             -802.18301     -505.99652     -1098.5633      0             -254.12301      0              0              9.5908626      9.6401828      0.2            92.457669    
      5600   0.257312       0.0010341658   0.0010341658   0              0             -452.71988     -700.34859     -205.27878      0             -521.31263      0              0              9.5899012      9.6342128      0.2            92.391149    
      5700   0.20796412     0.0011631788   0.0011631788   0              0              181.2247      -310.90519      673.17236      0             -410.37519      0              0              9.5889398      9.6263925      0.2            92.306899    
      5800   0.1826083      0.0010056106   0.0010056106   0              0              714.18055      257.38838      1170.7975      0             -240.07136      0              0              9.5879785      9.6222489      0.2            92.257915    
      5900   0.16063154     0.00079517093  0.00079517093  0              0              1095.432       910.47169      1280.2125      0             -27.712526      0              0              9.5870171      9.6168666      0.2            92.197064    
      6000   0.18754818     0.001091302    0.001091302    0              0              848.56138      787.21202      909.70153      0             -306.37786      0              0              9.5860557      9.6264129      0.2            92.27933     
      6100   0.21090178     0.0011729343   0.0011729343   0              0              661.33595      1049.3761      273.08657      0              11.154074      0              0              9.5850943      9.6221112      0.2            92.228844    
      6200   0.23880855     0.0011073377   0.0011073377   0              0              131.12928      733.74556     -471.69444      0              183.80048      0              0              9.5841329      9.634875       0.2            92.341923    
      6300   0.19716754     0.0011445974   0.0011445974   0              0             -449.20746      55.399582     -954.01295      0             -183.29282      0              0              9.5831716      9.638596       0.2            92.368319    
      6400   0.22405328     0.0011016518   0.0011016518   0              0             -303.99448      489.4212      -1097.6114      0             -309.11665      0              0              9.5822102      9.6457246      0.2            92.427361    
      6500   0.17807559     0.0010711837   0.0010711837   0              0             -489.16385     -162.86611     -815.68394      0              245.32419      0              0              9.5812488      9.6461751      0.2            92.422403    
      6600   0.19624708     0.0011211144   0.0011211144   0              0             -127.11754      158.39251     -412.82152      0             -147.93654      0              0              9.5802874      9.6426444      0.2            92.379304    
      6700   0.16976701     0.001088767    0.001088767    0              0              46.670864     -23.045444      116.21486      0              139.95473      0              0              9.579326       9.6352417      0.2            92.299121    
      6800   0.18884771     0.0012040575   0.0012040575   0              0              361.39333      198.93792      523.65464      0              214.02918      0              0              9.5783646      9.6413226      0.2            92.348103    
      6900   0.21681182     0.0011190694   0.0011190694   0              0              737.91343      762.32326      713.29521      0             -394.5141       0              0              9.5774033      9.6381155      0.2            92.308119    
      7000   0.17932034     0.0010893714   0.0010893714   0              0              1091.5537      1385.8546      797.10753      0             -387.04587      0              0              9.5764419      9.6411649      0.2            92.328055    
      7100   0.23415324     0.001084402    0.001084402    0              0              520.21818      454.62737      585.63692      0             -34.015827      0              0              9.5754805      9.6443848      0.2            92.349618    
      7200   0.24303676     0.0010775663   0.0010775663   0              0              340.2856       471.74397      208.62108      0              60.333463      0              0              9.5745191      9.6407439      0.2            92.305486    
      7300   0.23167792     0.0013060681   0.0013060681   0              0              96.207286      412.81255     -220.5895       0              367.82938      0              0              9.5735577      9.6398129      0.2            92.287305    
      7400   0.19604518     0.0012419129   0.0012419129   0              0             -451.71157     -435.72229     -467.91239      0             -470.68907      0              0              9.5725963      9.6537495      0.2            92.411447    
      7500   0.21582079     0.0010578041   0.0010578041   0              0             -236.43272      201.53719     -674.60778      0             -568.7491       0              0              9.571635       9.6468113      0.2            92.335757    
      7600   0.19177093     0.00090042058  0.00090042058  0              0             -82.297288      334.57225     -499.39653      0              16.641695      0              0              9.5706736      9.6505745      0.2            92.362498    
      7700   0.23549353     0.0010983743   0.0010983743   0              0              271.75737      783.69381     -240.33056      0             -266.74526      0              0              9.5697122      9.6472741      0.2            92.321637    
      7800   0.2151667      0.0010224767   0.0010224767   0              0              327.51452      629.6736       25.189462      0              256.46676      0              0              9.5687508      9.6489864      0.2            92.328746    
      7900   0.21006587     0.0010330858   0.0010330858   0              0              587.87348      863.5288       312.01905      0             -270.41847      0              0              9.5677894      9.6429775      0.2            92.261979    
      8000   0.22546546     0.0012273874   0.0012273874   0              0              944.00632      1442.37        445.4725       0             -282.51846      0              0              9.566828       9.6444105      0.2            92.266416    
      8100   0.20987919     0.0011602083   0.0011602083   0              0              374.90495      259.46747      490.16344      0             -425.13604      0              0              9.5658667      9.6417561      0.2            92.231753    
      8200   0.2354473      0.0014459454   0.0014459454   0              0              842.78161      1340.0394      345.35369      0             -815.2119       0              0              9.5649053      9.6440095      0.2            92.244037    
      8300   0.19399128     0.0013266455   0.0013266455   0              0              669.02875      1247.4251      90.417044      0             -389.57211      0              0              9.5639439      9.6436718      0.2            92.231536    
      8400   0.26315195     0.0010965347   0.0010965347   0              0              691.96928      1542.4017     -158.66284      0             -10.235653      0              0              9.5629825      9.6400949      0.2            92.188059    
      8500   0.21084843     0.0012893637   0.0012893637   0              0              633.02957      1495.3523     -229.48869      0             -45.343113      0              0              9.5620211      9.642051       0.2            92.197495    
      8600   0.20929693     0.00147064     0.00147064     0              0              847.89103      1905.0455     -209.44037      0              528.93856      0              0              9.5610597      9.6400132      0.2            92.168742    
      8700   0.16181686     0.0013688474   0.0013688474   0              0              508.81706      1182.0723     -164.61731      0             -57.571279      0              0              9.5600984      9.6459922      0.2            92.216634    
      8800   0.21083046     0.0013570413   0.0013570413   0              0              1015.3253      2227.1936     -196.69041      0             -343.75016      0              0              9.559137       9.6406883      0.2            92.15666     
      8900   0.17918034     0.001281977    0.001281977    0              0              605.39244      1262.0521     -51.447306      0             -70.235848      0              0              9.5581756      9.6437448      0.2            92.176606    
      9000   0.19111489     0.0012699838   0.0012699838   0              0              648.4879       1178.0919      118.61654      0             -275.37087      0              0              9.5572142      9.6446746      0.2            92.176221    
      9100   0.22369658     0.001385691    0.001385691    0              0              1166.4015      2164.9331      167.68462      0             -348.68599      0              0              9.5562528      9.648463       0.2            92.203152    
      9200   0.18754982     0.0013703342   0.0013703342   0              0              1666.1786      3058.3687      273.79613      0             -661.065        0              0              9.5552914      9.6421472      0.2            92.133527    
      9300   0.18692085     0.0010303809   0.0010303809   0              0              1197.8273      1899.8602      495.5848       0             -189.29686      0              0              9.5543301      9.6407269      0.2            92.110687    
      9400   0.20340995     0.0013756941   0.0013756941   0              0              836.64883      1281.0081      392.08725      0              260.11135      0              0              9.5533687      9.6442001      0.2            92.134599    
      9500   0.24245076     0.0014129413   0.0014129413   0              0              1262.7675      2356.2023      169.12204      0             -240.99876      0              0              9.5524073      9.634383       0.2            92.031551    
      9600   0.20539493     0.0013465637   0.0013465637   0              0              339.92939      742.58215     -62.938846      0              356.0276       0              0              9.5514459      9.6406421      0.2            92.082072    
      9700   0.2012374      0.0014591971   0.0014591971   0              0              795.45611      1983.057      -392.3407       0             -69.829768      0              0              9.5504845      9.6472018      0.2            92.135451    
      9800   0.27167349     0.0011302801   0.0011302801   0              0              281.20854      1266.1285     -703.93581      0              29.630029      0              0              9.5495231      9.6526318      0.2            92.178031    
      9900   0.25230384     0.001197976    0.001197976    0              0              289.28553      1349.6284     -771.24206      0             -302.50671      0              0              9.5485618      9.6556032      0.2            92.197123    
     10000   0.22258787     0.0013484402   0.0013484402   0              0             -292.66525      229.83812     -815.37579      0              232.35732      0              0              9.5476004      9.651909       0.2            92.15257     
     10100   0.20626553     0.0013753495   0.0013753495   0              0              213.6939       914.41101     -487.20061      0              258.02147      0              0              9.546639       9.6507874      0.2            92.132584    
     10200   0.26895691     0.0013240367   0.0013240367   0              0              657.13349      1309.6337      4.4089229      0              387.6728       0              0              9.5456776      9.6560421      0.2            92.173464    
     10300   0.17451481     0.0012227617   0.0012227617   0              0              1575.7286      2577.7883      573.47215      0              1108.8126      0              0              9.5447162      9.6577536      0.2            92.180517    
     10400   0.20591731     0.0011112335   0.0011112335   0              0              1763.5628      2427.3971      1099.5449      0              624.90265      0              0              9.5437548      9.6600679      0.2            92.193319    
     10500   0.21373763     0.0012885634   0.0012885634   0              0              1717.4852      1951.879       1482.8707      0             -163.73628      0              0              9.5427935      9.6511951      0.2            92.099361    
     10600   0.21427639     0.0013484777   0.0013484777   0              0              1714.8358      1871.789       1557.6527      0             -115.90036      0              0              9.5418321      9.6485783      0.2            92.065114    
     10700   0.1973068      0.0014550592   0.0014550592   0              0              1836.5825      2480.6691      1192.2838      0              375.35466      0              0              9.5408707      9.6564336      0.2            92.130784    
     10800   0.21391559     0.0012967244   0.0012967244   0              0              1485.2907      2307.0754      663.30805      0             -29.528204      0              0              9.5399093      9.6539128      0.2            92.097453    
     10900   0.18902862     0.0012793388   0.0012793388   0              0              428.71722      947.89338     -90.598175      0              426.19416      0              0              9.5389479      9.6701134      0.2            92.242709    
     11000   0.18076648     0.0015498702   0.0015498702   0              0              61.947456      839.51235     -715.80033      0              311.90285      0              0              9.5379866      9.669534       0.2            92.227886    
     11100   0.18016065     0.0013692054   0.0013692054   0              0             -274.17954      562.76977     -1111.3151      0              51.52413       0              0              9.5370252      9.6746073      0.2            92.266973    
     11200   0.18619201     0.0014755024   0.0014755024   0              0              141.79757      1578.0082     -1294.6697      0              185.10645      0              0              9.5360638      9.6674313      0.2            92.189241    
     11300   0.16977141     0.0013790629   0.0013790629   0              0             -452.99856      330.05147     -1236.2534      0             -288.32391      0              0              9.5351024      9.6750737      0.2            92.252819    
     11400   0.17528569     0.0011876206   0.0011876206   0              0             -169.67961      653.37038     -992.93513      0             -219.34886      0              0              9.534141       9.6747728      0.2            92.240648    
     11500   0.17239779     0.0012841145   0.0012841145   0              0              656.421        1835.2138     -522.57102      0              79.819672      0              0              9.5331796      9.6707019      0.2            92.192539    
     11600   0.20438095     0.0012573604   0.0012573604   0              0              1307.1553      2678.3085     -64.160587      0             -146.41782      0              0              9.5322183      9.6633896      0.2            92.113538    
     11700   0.19719598     0.0014909485   0.0014909485   0              0              1363.7768      2274.6045      452.73369      0              191.24753      0              0              9.5312569      9.6636646      0.2            92.106869    
     11800   0.18716994     0.0014604627   0.0014604627   0              0              1318.108       1992.2793      643.76443      0              62.209797      0              0              9.5302955      9.6643049      0.2            92.103681    
     11900   0.21037726     0.0013104319   0.0013104319   0              0              2143.6271      3537.428       749.64859      0             -212.77651      0              0              9.5293341      9.6629414      0.2            92.081397    
     12000   0.16612718     0.0011065056   0.0011065056   0              0              1298.6132      1893.9584      703.08561      0             -217.92607      0              0              9.5283727      9.6687084      0.2            92.127057    
     12100   0.16710984     0.0015010509   0.0015010509   0              0              1205.5814      1804.4606      606.51716      0             -1157.2746      0              0              9.5274113      9.6671491      0.2            92.102906    
     12200   0.18642817     0.0011153163   0.0011153163   0              0              1290.4954      2237.9183      342.87294      0              195.27824      0              0              9.52645        9.6701044      0.2            92.121765    
     12300   0.23512401     0.0014576439   0.0014576439   0              0              553.15607      1015.9881      90.125508      0             -243.14664      0              0              9.5254886      9.6761024      0.2            92.169603    
     12400   0.23373831     0.0013307213   0.0013307213   0              0              1183.1249      2484.2966     -118.24297      0             -396.04686      0              0              9.5245272      9.6744202      0.2            92.144278    
     12500   0.2140968      0.0011877685   0.0011877685   0              0              1004.5663      2348.3958     -339.4383       0              77.323575      0              0              9.5235658      9.6763918      0.2            92.153754    
     12600   0.20506167     0.001388494    0.001388494    0              0              743.62527      1960.631      -473.58626      0             -230.18929      0              0              9.5226044      9.6776337      0.2            92.156278    
     12700   0.16698439     0.0014491975   0.0014491975   0              0              1214.9052      2950.0597     -520.41565      0             -686.68858      0              0              9.521643       9.6776716      0.2            92.147335    
     12800   0.16596526     0.0012340385   0.0012340385   0              0              1338.8668      3202.1063     -524.56686      0             -846.64963      0              0              9.5206817      9.6773885      0.2            92.135335    
     12900   0.20627972     0.0012803365   0.0012803365   0              0              994.08828      2444.9417     -456.95951      0             -558.50496      0              0              9.5197203      9.6762703      0.2            92.115386    
     13000   0.1954487      0.0014805717   0.0014805717   0              0              845.25191      2032.0265     -341.73334      0             -637.30611      0              0              9.5187589      9.6864343      0.2            92.202833    
     13100   0.19892094     0.001376477    0.001376477    0              0              855.7236       1905.6937     -194.41262      0             -655.64141      0              0              9.5177975      9.684194       0.2            92.172198    
     13200   0.17019958     0.0013672368   0.0013672368   0              0              905.65784      1877.5594     -66.448249      0             -1087.0528      0              0              9.5168361      9.6883421      0.2            92.202364    
     13300   0.18227982     0.0016572954   0.0016572954   0              0              1300.4723      2508.439       92.331675      0             -1083.9022      0              0              9.5158747      9.6772149      0.2            92.087165    
     13400   0.21775612     0.0013477827   0.0013477827   0              0              1885.905       3443.6932      327.91941      0             -429.45012      0              0              9.5149134      9.6706355      0.2            92.015259    
     13500   0.17777311     0.0012896993   0.0012896993   0              0              2148.4636      3839.2229      457.53325      0             -165.2196       0              0              9.513952       9.669071       0.2            91.991077    
     13600   0.16232252     0.0013254836   0.0013254836   0              0              1567.3901      2619.0485      515.53036      0             -140.92893      0              0              9.5129906      9.6749266      0.2            92.037486    
     13700   0.20831995     0.0013927674   0.0013927674   0              0              1534.3093      2601.5813      466.83679      0             -364.43638      0              0              9.5120292      9.6797715      0.2            92.07427     
     13800   0.22165066     0.0012195499   0.0012195499   0              0              1523.2585      2597.5488      448.77637      0             -263.92081      0              0              9.5110678      9.6834665      0.2            92.100107    
     13900   0.17316227     0.0011661371   0.0011661371   0              0              1054.2316      1693.2305      415.06778      0             -177.57625      0              0              9.5101064      9.6822746      0.2            92.079463    
     14000   0.25880565     0.0012635377   0.0012635377   0              0              1142.1718      1904.2535      379.87326      0             -146.10916      0              0              9.5091451      9.6852621      0.2            92.098562    
     14100   0.18697987     0.001565715    0.001565715    0              0              753.38269      1268.6877      237.85139      0             -712.47834      0              0              9.5081837      9.6857302      0.2            92.093701    
     14200   0.22100505     0.0013392639   0.0013392639   0              0              1377.3151      2674.7836      79.631511      0             -399.94604      0              0              9.5072223      9.6857277      0.2            92.084366    
     14300   0.21952147     0.0016263682   0.0016263682   0              0              405.04671      1036.8049     -226.90876      0             -256.03843      0              0              9.5062609      9.6914021      0.2            92.128997    
     14400   0.23283278     0.0013678225   0.0013678225   0              0              442.94479      1362.152      -476.45775      0             -0.55544566     0              0              9.5052995      9.6861711      0.2            92.069957    
     14500   0.19854264     0.0013821233   0.0013821233   0              0             -328.63618     -4.156705      -653.28186      0             -137.1973       0              0              9.5043381      9.6903516      0.2            92.100379    
     14600   0.19838834     0.0015489013   0.0015489013   0              0             -3.6679382      729.77971     -737.34052      0             -636.01641      0              0              9.5033768      9.6922809      0.2            92.109397    
     14700   0.20799849     0.0013083252   0.0013083252   0              0              724.59246      2282.9207     -833.91117      0             -275.81651      0              0              9.5024154      9.6887267      0.2            92.066306    
     14800   0.21971336     0.0015882451   0.0015882451   0              0              628.54963      2104.1136     -847.2182       0             -567.46868      0              0              9.501454       9.6894944      0.2            92.064285    
     14900   0.20940508     0.0014910293   0.0014910293   0              0              312.10912      1437.3012     -813.27361      0              292.5415       0              0              9.5004926      9.690523       0.2            92.064742    
     15000   0.19782223     0.0013701277   0.0013701277   0              0              608.03548      1939.0444     -723.19623      0             -463.15621      0              0              9.4995312      9.6963147      0.2            92.110445    
     15100   0.18413456     0.0010729843   0.0010729843   0              0              525.37403      1567.0886     -516.52145      0              447.30924      0              0              9.4985698      9.6886661      0.2            92.028471    
     15200   0.17945428     0.0016174111   0.0016174111   0              0              365.66321      1078.5521     -347.42696      0              61.952457      0              0              9.4976085      9.6860766      0.2            91.994563    
     15300   0.19769185     0.0013428937   0.0013428937   0              0              758.46659      1594.4394     -77.731085      0             -249.11383      0              0              9.4966471      9.6890929      0.2            92.013896    
     15400   0.25021983     0.0012702788   0.0012702788   0              0              688.84412      1310.3625      67.114319      0             -530.59672      0              0              9.4956857      9.6947143      0.2            92.05796     
     15500   0.24486819     0.001485885    0.001485885    0              0              883.19141      1397.394       368.77834      0             -392.40383      0              0              9.4947243      9.6897917      0.2            92.0019      
     15600   0.19456276     0.0011313733   0.0011313733   0              0              1014.5575      1372.7909      656.12795      0             -805.07807      0              0              9.4937629      9.6894866      0.2            91.989689    
     15700   0.23902612     0.0012896701   0.0012896701   0              0              1570.5363      2151.6785      989.2183       0             -774.18911      0              0              9.4928015      9.6843859      0.2            91.931953    
     15800   0.16807251     0.0013668623   0.0013668623   0              0              1521.0694      1644.4775      1397.4423      0             -976.99073      0              0              9.4918402      9.682172       0.2            91.901629    
     15900   0.22092734     0.001291778    0.001291778    0              0              1847.0942      2111.1499      1582.8373      0             -193.76138      0              0              9.4908788      9.684215       0.2            91.91171     
     16000   0.19393049     0.0012349337   0.0012349337   0              0              1549.5606      1384.1322      1714.7967      0              3.4406866      0              0              9.4899174      9.6868329      0.2            91.927244    
     16100   0.21104209     0.0016276246   0.0016276246   0              0              2297.9495      2884.2984      1711.4013      0             -117.76757      0              0              9.488956       9.6816683      0.2            91.868925    
     16200   0.18687864     0.0014042836   0.0014042836   0              0              2182.3299      2855.6128      1508.8247      0              170.00536      0              0              9.4879946      9.6811298      0.2            91.854508    
     16300   0.18316305     0.0015893256   0.0015893256   0              0              1498.3024      1731.848       1264.5632      0              126.12008      0              0              9.4870333      9.6893684      0.2            91.92336     
     16400   0.17502711     0.0012621376   0.0012621376   0              0              1432.6692      1814.6002      1050.5077      0             -1116.0916      0              0              9.4860719      9.6875441      0.2            91.896739    
     16500   0.17622518     0.0014177495   0.0014177495   0              0              1164.3785      1589.2633      739.33414      0             -636.67427      0              0              9.4851105      9.6953033      0.2            91.961023    
     16600   0.19395186     0.0014427963   0.0014427963   0              0              1150.798       1761.9399      539.47348      0             -293.29342      0              0              9.4841491      9.7012913      0.2            92.008493    
     16700   0.22744862     0.0016337497   0.0016337497   0              0              1451.2864      2616.117       286.29639      0             -528.15346      0              0              9.4831877      9.6888916      0.2            91.881578    
     16800   0.20209954     0.0013009498   0.0013009498   0              0              796.18462      1556.3074      35.854548      0              346.2498       0              0              9.4822263      9.699738       0.2            91.975111    
     16900   0.19626098     0.0011954725   0.0011954725   0              0              755.16571      1673.0043     -162.85077      0              350.91835      0              0              9.481265       9.6948577      0.2            91.919514    
     17000   0.19754473     0.0013110754   0.0013110754   0              0              308.13665      861.58629     -245.55435      0              192.01557      0              0              9.4803036      9.6964679      0.2            91.925459    
     17100   0.20718857     0.0012413747   0.0012413747   0              0              784.27933      1865.8316     -297.48801      0              35.091927      0              0              9.4793422      9.7046224      0.2            91.993437    
     17200   0.22789985     0.0012828295   0.0012828295   0              0              394.18994      1182.3082     -394.14405      0             -96.884272      0              0              9.4783808      9.6990422      0.2            91.931215    
     17300   0.17363795     0.0013398233   0.0013398233   0              0             -88.283665      350.11446     -526.8732       0              129.3934       0              0              9.4774194      9.6974268      0.2            91.906581    
     17400   0.16974258     0.0014518066   0.0014518066   0              0             -0.049805144    540.15116     -540.44693      0             -51.697778      0              0              9.476458       9.6993674      0.2            91.915648    
     17500   0.19127174     0.0017031287   0.0017031287   0              0             -75.977479      427.75515     -579.89711      0             -324.82031      0              0              9.4754967      9.7012097      0.2            91.92378     
     17600   0.18864196     0.0013649516   0.0013649516   0              0              123.37265      866.71125     -620.15339      0             -1038.0047      0              0              9.4745353      9.7089212      0.2            91.987517    
     17700   0.21986244     0.0012735765   0.0012735765   0              0              333.8041       1344.0333     -676.62125      0             -137.19232      0              0              9.4735739      9.7042983      0.2            91.934387    
     17800   0.18892898     0.0012921612   0.0012921612   0              0             -222.13458      188.25853     -632.69316      0             -161.23494      0              0              9.4726125      9.7051539      0.2            91.933162    
     17900   0.2625544      0.0012548901   0.0012548901   0              0              18.48074       673.80665     -636.97005      0             -63.547641      0              0              9.4716511      9.697713       0.2            91.853354    
     18000   0.16944754     0.0012874564   0.0012874564   0              0              83.65733       730.89639     -563.80283      0             -137.73338      0              0              9.4706897      9.7028193      0.2            91.892391    
     18100   0.23052711     0.0012294933   0.0012294933   0              0              308.87135      1226.3626     -608.80603      0             -246.89337      0              0              9.4697284      9.7052238      0.2            91.905833    
     18200   0.2095731      0.0012018433   0.0012018433   0              0              61.801439      797.13107     -673.73195      0             -136.70073      0              0              9.468767       9.7023278      0.2            91.869081    
     18300   0.20094603     0.0014521459   0.0014521459   0              0             -196.50498      147.6174      -540.84029      0              432.48299      0              0              9.4678056      9.7042776      0.2            91.878214    
     18400   0.17655414     0.0015201559   0.0015201559   0              0              378.78248      1235.1292     -477.74066      0             -281.8463       0              0              9.4668442      9.7025732      0.2            91.852749    
     18500   0.23257453     0.001190598    0.001190598    0              0              619.92679      1708.5051     -468.81244      0              7.0418732      0              0              9.4658828      9.7033775      0.2            91.851034    
     18600   0.20974334     0.0013257427   0.0013257427   0              0              693.31367      1819.6485     -433.21939      0             -416.03088      0              0              9.4649214      9.7009538      0.2            91.818766    
     18700   0.17124829     0.0015482527   0.0015482527   0              0              622.22398      1686.7839     -442.5817       0             -269.09595      0              0              9.4639601      9.6997256      0.2            91.797816    
     18800   0.19163985     0.0014137561   0.0014137561   0              0              359.76901      1077.8927     -358.57119      0             -312.28252      0              0              9.4629987      9.6981996      0.2            91.77405     
     18900   0.16143958     0.0015565442   0.0015565442   0              0             -98.622219      98.837464     -296.26247      0             -177.76445      0              0              9.4620373      9.7034684      0.2            91.814579    
     19000   0.18769603     0.0013921101   0.0013921101   0              0              970.77834      2176.9651     -235.59182      0             -109.30955      0              0              9.4610759      9.7024039      0.2            91.79518     
     19100   0.1537213      0.0013586957   0.0013586957   0              0              1085.5563      2406.4216     -235.47756      0              191.71655      0              0              9.4601145      9.7044667      0.2            91.805366    
     19200   0.1540305      0.0016129326   0.0016129326   0              0              872.2182       1908.7778     -164.52923      0             -268.72301      0              0              9.4591531      9.7052179      0.2            91.803142    
     19300   0.19828868     0.0015640344   0.0015640344   0              0              1190.6388      2572.9581     -191.86094      0             -122.04194      0              0              9.4581918      9.7025745      0.2            91.76881     
     19400   0.19677497     0.001494521    0.001494521    0              0              417.14834      1023.4653     -189.37903      0              534.3677       0              0              9.4572304      9.7042444      0.2            91.775275    
     19500   0.19702566     0.0014065318   0.0014065318   0              0              769.13361      1608.3311     -70.243522      0              488.93951      0              0              9.456269       9.7041023      0.2            91.764602    
     19600   0.19524515     0.0012328594   0.0012328594   0              0              944.5571       1973.8788     -84.946907      0              223.47114      0              0              9.4553076      9.7061923      0.2            91.775034    
     19700   0.21666431     0.001497434    0.001497434    0              0              409.08836      852.34639     -34.320857      0              143.44617      0              0              9.4543462      9.7118092      0.2            91.818807    
     19800   0.23236105     0.0015259466   0.0015259466   0              0              1128.4678      2168.01        88.771442      0             -667.47227      0              0              9.4533848      9.7140758      0.2            91.830897    
     19900   0.23652979     0.0013479432   0.0013479432   0              0              522.11899      912.4403       131.64495      0             -517.42198      0              0              9.4524235      9.7156828      0.2            91.836748    
     20000   0.23566398     0.001576277    0.001576277    0              0              616.31123      1085.5247      146.8586       0             -611.7379       0              0              9.4514621      9.720094       0.2            91.8691      
     20100   0.2476122      0.0014583472   0.0014583472   0              0              792.941        1369.0777      216.6003       0             -126.14545      0              0              9.4505007      9.7126433      0.2            91.789342    
     20200   0.1960895      0.0017633964   0.0017633964   0              0              518.06592      787.51798      248.41769      0             -675.18409      0              0              9.4495393      9.7109982      0.2            91.764459    
     20300   0.22502017     0.001582752    0.001582752    0              0              917.33705      1613.039       221.44701      0             -775.85467      0              0              9.4485779      9.7088933      0.2            91.735235    
     20400   0.23456762     0.0014734082   0.0014734082   0              0              1543.4814      2830.4594      256.31589      0             -574.16284      0              0              9.4476165      9.7106878      0.2            91.742855    
     20500   0.22414985     0.0014784705   0.0014784705   0              0              1659.0318      3035.2783      282.61312      0             -194.05545      0              0              9.4466552      9.7053254      0.2            91.682863    
     20600   0.16887462     0.0013482642   0.0013482642   0              0              1250.0388      2206.1007      293.81687      0             -348.72026      0              0              9.4456938      9.7071005      0.2            91.690299    
     20700   0.18522254     0.0014728438   0.0014728438   0              0              1504.7617      2660.4171      348.94091      0              357.18722      0              0              9.4447324      9.707244       0.2            91.682322    
     20800   0.19620016     0.0015600289   0.0015600289   0              0              860.16231      1382.531       337.60921      0             -210.82522      0              0              9.443771       9.7121963      0.2            91.719758    
     20900   0.21705007     0.0012914155   0.0012914155   0              0              1113.929       1776.6214      451.07079      0             -74.70696       0              0              9.4428096      9.708408       0.2            91.674649    
     21000   0.20211297     0.0015078836   0.0015078836   0              0              935.15316      1351.501       518.62409      0             -77.249096      0              0              9.4418482      9.7075377      0.2            91.657097    
     21100   0.19459307     0.0015126093   0.0015126093   0              0              1392.2884      2230.7563      553.59488      0              303.27724      0              0              9.4408869      9.7031193      0.2            91.606052    
     21200   0.19767653     0.0015857686   0.0015857686   0              0              875.64318      1079.1596      671.92498      0             -124.13346      0              0              9.4399255      9.7100433      0.2            91.662085    
     21300   0.21713345     0.0014494398   0.0014494398   0              0              814.91847      840.56273      789.09801      0             -113.85706      0              0              9.4389641      9.7122335      0.2            91.673423    
     21400   0.23233913     0.0014086687   0.0014086687   0              0              1522.4746      2212.3298      832.42615      0             -591.8243       0              0              9.4380027      9.7098822      0.2            91.641895    
     21500   0.21429189     0.0019157888   0.0019157888   0              0              1486.7782      2179.4326      793.92014      0             -61.29141       0              0              9.4370413      9.7136988      0.2            91.668577    
     21600   0.17387846     0.0015348456   0.0015348456   0              0              1108.2086      1496.0845      720.13322      0             -843.94735      0              0              9.43608        9.7160919      0.2            91.68182     
     21700   0.18998434     0.0015188312   0.0015188312   0              0              1666.1119      2606.3454      725.71257      0             -92.543509      0              0              9.4351186      9.7127659      0.2            91.641098    
     21800   0.2222166      0.0015548415   0.0015548415   0              0              1448.6106      2127.6637      769.34609      0              42.408057      0              0              9.4341572      9.7107425      0.2            91.612671    
     21900   0.24243794     0.001646705    0.001646705    0              0              2303.7903      3896.5875      710.78363      0              70.7883        0              0              9.4331958      9.7149548      0.2            91.643071    
     22000   0.22201873     0.0013830544   0.0013830544   0              0              1842.313       3046.7315      637.70898      0             -401.39859      0              0              9.4322344      9.7109527      0.2            91.595982    
     22100   0.24394364     0.0016144387   0.0016144387   0              0              1711.9804      2754.5052      669.27823      0              179.25243      0              0              9.431273       9.712521       0.2            91.601438    
     22200   0.20195675     0.0015370211   0.0015370211   0              0              1442.816       2319.185       566.2512       0             -251.47487      0              0              9.4303117      9.7156657      0.2            91.621755    
     22300   0.15656554     0.0014557208   0.0014557208   0              0              1210.1913      1976.9752      443.20263      0             -420.28197      0              0              9.4293503      9.717767       0.2            91.632229    
     22400   0.2264321      0.001600679    0.001600679    0              0              1171.1455      1803.1996      538.91593      0             -612.23294      0              0              9.4283889      9.728371       0.2            91.722865    
     22500   0.19139254     0.0015764146   0.0015764146   0              0              1520.8239      2578.0952      463.34942      0             -268.05116      0              0              9.4274275      9.7220072      0.2            91.653518    
     22600   0.17156194     0.0015297015   0.0015297015   0              0              1243.7796      1983.2259      504.13031      0             -733.59244      0              0              9.4264661      9.7267358      0.2            91.688746    
     22700   0.18597055     0.0015973822   0.0015973822   0              0              1047.7776      1615.2784      480.06305      0              111.88929      0              0              9.4255047      9.7253903      0.2            91.666712    
     22800   0.24658274     0.0017491487   0.0017491487   0              0              1259.5133      2082.0271      436.77373      0             -255.82944      0              0              9.4245434      9.72448        0.2            91.648784    
     22900   0.20940624     0.0018507932   0.0018507932   0              0              421.68951      526.41084      316.7933       0             -493.43061      0              0              9.423582       9.730398       0.2            91.695203    
     23000   0.22010432     0.0018622171   0.0018622171   0              0              1053.6384      1899.4935      207.58551      0             -296.29999      0              0              9.4226206      9.7258892      0.2            91.643364    
     23100   0.18612348     0.0017311162   0.0017311162   0              0              1054.8747      2006.2459      103.2807       0             -359.94709      0              0              9.4216592      9.7202512      0.2            91.580894    
     23200   0.21762664     0.0014918879   0.0014918879   0              0              750.2767       1504.4451     -4.081366       0             -91.274831      0              0              9.4206978      9.7270997      0.2            91.636067    
     23300   0.18445233     0.0016083067   0.0016083067   0              0              673.16232      1384.199      -38.056193      0             -285.14511      0              0              9.4197364      9.7317528      0.2            91.670546    
     23400   0.2336372      0.0018512529   0.0018512529   0              0              685.46477      1587.9246     -217.16831      0             -1176.53        0              0              9.4187751      9.7250779      0.2            91.598322    
     23500   0.252221       0.0021056108   0.0021056108   0              0              853.62916      2040.0048     -332.96291      0             -697.77932      0              0              9.4178137      9.7345449      0.2            91.67813     
     23600   0.19321793     0.0020059352   0.0020059352   0              0              721.8784       1797.3779     -353.8203       0             -424.99835      0              0              9.4168523      9.7251389      0.2            91.580196    
     23700   0.2006045      0.0019689198   0.0019689198   0              0              934.7369       2220.0533     -350.74742      0             -430.43002      0              0              9.4158909      9.7318412      0.2            91.633955    
     23800   0.20390519     0.0019316298   0.0019316298   0              0              866.1947       2144.1293     -411.92278      0             -557.68128      0              0              9.4149295      9.7291552      0.2            91.599311    
     23900   0.18589806     0.001762255    0.001762255    0              0              1273.4338      2934.0706     -387.42948      0             -463.00758      0              0              9.4139681      9.7216451      0.2            91.519258    
     24000   0.20977084     0.0017313144   0.0017313144   0              0              1158.2171      2718.3058     -402.06283      0             -224.22757      0              0              9.4130068      9.7234891      0.2            91.527269    
     24100   0.19752669     0.001733633    0.001733633    0              0              1112.671       2652.3214     -427.16263      0             -537.39562      0              0              9.4120454      9.7276637      0.2            91.557212    
     24200   0.19671085     0.0016077445   0.0016077445   0              0              970.55419      2403.7807     -462.85666      0             -410.53999      0              0              9.411084       9.7234438      0.2            91.508146    
     24300   0.22503317     0.0016667126   0.0016667126   0              0              1194.6104      2850.1702     -461.1099       0             -169.86807      0              0              9.4101226      9.7227876      0.2            91.492624    
     24400   0.18361138     0.0018342735   0.0018342735   0              0              975.72769      2466.491      -515.18739      0              309.97813      0              0              9.4091612      9.7260673      0.2            91.514135    
     24500   0.19274024     0.0015467315   0.0015467315   0              0              999.24434      2478.839      -480.5627       0             -604.77757      0              0              9.4081998      9.7208734      0.2            91.455919    
     24600   0.20492255     0.0017083227   0.0017083227   0              0              1390.8781      3196.6157     -415.07858      0              487.05497      0              0              9.4072385      9.7242047      0.2            91.477912    
     24700   0.20042784     0.0020235447   0.0020235447   0              0              268.03904      963.21077     -427.3312       0             -174.44995      0              0              9.4062771      9.7265422      0.2            91.490551    
     24800   0.18564235     0.0019124021   0.0019124021   0              0              779.3355       2064.3585     -505.87223      0              414.55132      0              0              9.4053157      9.7362906      0.2            91.572887    
     24900   0.18668858     0.0019590892   0.0019590892   0              0              920.3007       2397.7392     -557.37233      0             -498.15816      0              0              9.4043543      9.7374296      0.2            91.574238    
     25000   0.20525337     0.0018440394   0.0018440394   0              0              1107.7679      2638.9757     -423.62661      0             -647.98939      0              0              9.4033929      9.7351065      0.2            91.543032    
     25100   0.20684357     0.0018081835   0.0018081835   0              0              998.75293      2401.8612     -404.50343      0             -256.96525      0              0              9.4024315      9.7316021      0.2            91.500722    
     25200   0.17262116     0.001776429    0.001776429    0              0              967.12988      2276.364      -342.30212      0             -539.13647      0              0              9.4014702      9.7347586      0.2            91.521042    
     25300   0.2318095      0.0021124421   0.0021124421   0              0              895.31156      2124.2615     -333.82246      0             -222.05708      0              0              9.4005088      9.7295949      0.2            91.463142    
     25400   0.22346128     0.0018431585   0.0018431585   0              0              1031.2858      2361.0591     -298.62536      0             -11.837634      0              0              9.3995474      9.732535       0.2            91.481424    
     25500   0.19144402     0.0016846991   0.0016846991   0              0              1042.083       2326.2714     -242.3283       0              41.947614      0              0              9.398586       9.728425       0.2            91.433439    
     25600   0.26309313     0.0017205501   0.0017205501   0              0              731.59849      1622.8596     -159.87998      0              254.19659      0              0              9.3976246      9.7341221      0.2            91.477625    
     25700   0.20144124     0.0019480715   0.0019480715   0              0              1297.9616      2616.7532     -21.055451      0             -545.45495      0              0              9.3966632      9.7330221      0.2            91.457931    
     25800   0.20337204     0.0019013038   0.0019013038   0              0              1636.8415      3341.0304     -67.509084      0             -452.44941      0              0              9.3957019      9.7367639      0.2            91.483731    
     25900   0.19623483     0.0018037678   0.0018037678   0              0              1313.5898      2702.2299     -75.236737      0              103.6232       0              0              9.3947405      9.7390394      0.2            91.495748    
     26000   0.20955683     0.0020213196   0.0020213196   0              0              1771.2089      3639.3754     -97.161938      0             -59.041491      0              0              9.3937791      9.7347602      0.2            91.446187    
     26100   0.17649182     0.0018483978   0.0018483978   0              0              1580.4924      3249.6529     -88.860788      0              808.23313      0              0              9.3928177      9.728504       0.2            91.378065    
     26200   0.20807576     0.0019340573   0.0019340573   0              0              1364.9974      2842.9803     -113.16165      0              115.24204      0              0              9.3918563      9.732124       0.2            91.402711    
     26300   0.23453256     0.0019406966   0.0019406966   0              0              1377.1717      2818.7992     -64.649981      0              593.07952      0              0              9.390895       9.736231       0.2            91.431922    
     26400   0.22619396     0.0017817116   0.0017817116   0              0              1187.0103      2455.6632     -81.86418       0             -126.75178      0              0              9.3899336      9.7379393      0.2            91.438603    
     26500   0.21931257     0.0018201507   0.0018201507   0              0              1401.8215      2901.0843     -97.682778      0             -564.40575      0              0              9.3889722      9.7341657      0.2            91.393811    
     26600   0.21939642     0.0019492118   0.0019492118   0              0              1585.6535      3336.98       -165.87089      0             -899.66047      0              0              9.3880108      9.7359206      0.2            91.400927    
     26700   0.21775235     0.0019363924   0.0019363924   0              0              1426.7138      3011.0696     -157.87168      0             -289.48034      0              0              9.3870494      9.73668        0.2            91.398696    
     26800   0.20911053     0.0019605854   0.0019605854   0              0              1958.8851      4042.8201     -125.25955      0              55.343197      0              0              9.386088       9.7394681      0.2            91.415505    
     26900   0.17311145     0.0017918777   0.0017918777   0              0              1319.9208      2696.9084     -57.228718      0             -700.23146      0              0              9.3851267      9.7423639      0.2            91.433319    
     27000   0.24728457     0.0018958659   0.0018958659   0              0              1336.7288      2694.8471     -21.59412       0             -606.07135      0              0              9.3841653      9.740074       0.2            91.402464    
     27100   0.18390001     0.0019254254   0.0019254254   0              0              648.95606      1280.3055      17.375661      0             -65.707333      0              0              9.3832039      9.7457771      0.2            91.446613    
     27200   0.1987315      0.0018086618   0.0018086618   0              0              1127.5608      2124.5864      130.3469       0             -819.68452      0              0              9.3822425      9.7478263      0.2            91.45647     
     27300   0.235896       0.0016908269   0.0016908269   0              0              1505.3515      2586.4113      424.10104      0             -810.1489       0              0              9.3812811      9.7358986      0.2            91.335202    
     27400   0.18724591     0.0016433429   0.0016433429   0              0              1638.7525      2680.6561      596.6282       0             -270.71125      0              0              9.3803197      9.7402945      0.2            91.367077    
     27500   0.20266013     0.0020763608   0.0020763608   0              0              1857.0143      2860.6111      853.23067      0             -817.07381      0              0              9.3793584      9.7302642      0.2            91.263635    
     27600   0.26190718     0.0018107701   0.0018107701   0              0              1892.2458      2696.2173      1088.0621      0             -451.60952      0              0              9.378397       9.7306445      0.2            91.257846    
     27700   0.24309197     0.0019216851   0.0019216851   0              0              2349.6344      3273.3582      1425.709       0              83.121024      0              0              9.3774356      9.7345341      0.2            91.284966    
     27800   0.20161639     0.0019850626   0.0019850626   0              0              1783.8952      1923.8233      1643.7453      0             -1089.6077      0              0              9.3764742      9.734444       0.2            91.274763    
     27900   0.20323008     0.0022264041   0.0022264041   0              0              2052.3453      2376.8807      1727.6544      0             -260.6135       0              0              9.3755128      9.7365158      0.2            91.284829    
     28000   0.18565667     0.0020684656   0.0020684656   0              0              1884.0025      1976.5007      1791.3293      0             -1562.6083      0              0              9.3745514      9.7354001      0.2            91.265009    
     28100   0.23634181     0.0018432803   0.0018432803   0              0              1963.1222      2337.0454      1588.9858      0             -1166.1686      0              0              9.3735901      9.732502       0.2            91.228484    
     28200   0.20334868     0.0022042956   0.0022042956   0              0              1514.5612      1683.739       1345.17        0             -1102.3122      0              0              9.3726287      9.736441       0.2            91.256046    
     28300   0.17941923     0.0020066135   0.0020066135   0              0              1539.0474      2025.9363      1051.9607      0             -89.318474      0              0              9.3716673      9.7428678      0.2            91.306916    
     28400   0.25221687     0.0017905794   0.0017905794   0              0              1749.9238      2777.7263      721.92441      0             -326.4606       0              0              9.3707059      9.7343715      0.2            91.217932    
     28500   0.21459985     0.0018441692   0.0018441692   0              0              1585.838       2660.368       511.15443      0             -529.20569      0              0              9.3697445      9.7373554      0.2            91.236533    
     28600   0.23543139     0.001882993    0.001882993    0              0              1503.6345      2725.5908      281.49209      0             -331.00417      0              0              9.3687831      9.7463464      0.2            91.311406    
     28700   0.19747621     0.0018154738   0.0018154738   0              0              939.20794      1853.6439      24.590973      0             -694.5954       0              0              9.3678218      9.7461782      0.2            91.30046     
     28800   0.20625797     0.0018976467   0.0018976467   0              0              698.68641      1660.3494     -263.15168      0             -1333.0013      0              0              9.3668604      9.7481488      0.2            91.309549    
     28900   0.25110169     0.0017771885   0.0017771885   0              0              1314.7277      3140.2198     -510.93923      0             -620.59892      0              0              9.365899       9.7471314      0.2            91.290648    
     29000   0.21400028     0.0019313367   0.0019313367   0              0              560.15836      1874.8005     -754.66768      0             -403.34492      0              0              9.3649376      9.7519489      0.2            91.326393    
     29100   0.1901263      0.0020086972   0.0020086972   0              0              767.90034      2409.9149     -874.34065      0             -621.02764      0              0              9.3639762      9.751215       0.2            91.310145    
     29200   0.20035707     0.0019887014   0.0019887014   0              0              799.98597      2523.3241     -923.5187       0             -251.02182      0              0              9.3630148      9.7581265      0.2            91.365484    
     29300   0.16439212     0.0020611873   0.0020611873   0              0              556.82036      1956.913      -843.45037      0             -332.20705      0              0              9.3620535      9.7549951      0.2            91.326785    
     29400   0.22451793     0.0017468316   0.0017468316   0              0              727.57052      2223.6317     -768.666        0             -209.78319      0              0              9.3610921      9.757715       0.2            91.342868    
     29500   0.23136151     0.002050538    0.002050538    0              0              1182.5173      2907.4737     -542.63266      0             -764.64733      0              0              9.3601307      9.7564378      0.2            91.321533    
     29600   0.19206763     0.001856738    0.001856738    0              0              1065.5143      2458.3898     -327.53776      0             -437.39449      0              0              9.3591693      9.7520441      0.2            91.271032    
     29700   0.19719082     0.0019128162   0.0019128162   0              0              830.17791      1822.411      -162.21972      0              211.59413      0              0              9.3582079      9.7507833      0.2            91.249858    
     29800   0.26540943     0.0018850631   0.0018850631   0              0              1087.0999      2088.4851      85.544068      0             -561.6003       0              0              9.3572465      9.7424331      0.2            91.162348    
     29900   0.20273813     0.001939301    0.001939301    0              0              1464.4679      2686.6267      242.12231      0             -39.656374      0              0              9.3562852      9.7453949      0.2            91.180693    
     30000   0.21134855     0.0020150673   0.0020150673   0              0              1009.4065      1578.1736      440.45253      0             -797.66955      0              0              9.3553238      9.7444047      0.2            91.162061    
     30100   0.22100581     0.002086845    0.002086845    0              0              1025.5519      1503.1176      547.82133      0             -294.19212      0              0              9.3543624      9.7485797      0.2            91.191748    
     30200   0.19985233     0.0019549256   0.0019549256   0              0              1469.6767      2271.3076      667.88038      0             -328.02056      0              0              9.353401       9.7405521      0.2            91.107289    
     30300   0.20357458     0.0018614229   0.0018614229   0              0              1611.5281      2629.8047      593.06599      0             -1071.4907      0              0              9.3524396      9.7461985      0.2            91.150733    
[...]
     45900   0.20954241     0.0027481189   0.0027481189   0              0              1432.6415      2332.5133      532.59687      0             -544.79789      0              0              9.2024639      9.7850513      0.2            90.046581    
     46000   0.19077654     0.0026452976   0.0026452976   0              0              1385.3135      2246.668       523.72347      0             -288.45966      0              0              9.2015025      9.7780921      0.2            89.973139    
     46100   0.18620617     0.0027063097   0.0027063097   0              0              1250.5614      2280.6269      220.26811      0              177.29382      0              0              9.2005411      9.778747       0.2            89.969764    
     46200   0.20768397     0.0023481622   0.0023481622   0              0              1027.4441      2260.6471     -205.92682      0              332.83811      0              0              9.1995797      9.7798401      0.2            89.970418    
     46300   0.1865443      0.0027293983   0.0027293983   0              0              8.5805134      646.9783      -630.02693      0             -545.22021      0              0              9.1986183      9.7881047      0.2            90.037039    
     46400   0.22430745     0.0025851825   0.0025851825   0              0              911.93664      2516.3601     -692.65415      0             -83.169036      0              0              9.197657       9.7862223      0.2            90.010316    
     46500   0.18621804     0.0025010421   0.0025010421   0              0              1114.5367      2532.8228     -303.98739      0              61.59629       0              0              9.1966956      9.7822712      0.2            89.964571    
     46600   0.19280567     0.0025934582   0.0025934582   0              0              1638.4978      3138.1863      138.60803      0             -49.999929      0              0              9.1957342      9.780893       0.2            89.942493    
     46700   0.21163265     0.0026995603   0.0026995603   0              0              1512.428       2406.286       618.36392      0              349.31071      0              0              9.1947728      9.7730375      0.2            89.86086     
     46800   0.20031814     0.0025243818   0.0025243818   0              0              1688.7233      2603.7375      773.52621      0             -236.0468       0              0              9.1938114      9.7763578      0.2            89.88199     
     46900   0.16842996     0.0027697641   0.0027697641   0              0              1505.9556      2333.3835      678.35733      0              131.7881       0              0              9.1928501      9.7789419      0.2            89.896347    
     47000   0.20556289     0.0026853083   0.0026853083   0              0              1166.7802      2159.2333      174.10189      0             -399.02698      0              0              9.1918887      9.7806787      0.2            89.90291     
     47100   0.19067578     0.002677322    0.002677322    0              0              1240.5155      3050.7755     -569.95671      0              630.2144       0              0              9.1909273      9.7894085      0.2            89.973742    
     47200   0.18848627     0.0024367526   0.0024367526   0              0              739.20362      2597.3709     -1119.1522      0             -458.82599      0              0              9.1899659      9.7907937      0.2            89.97706     
     47300   0.21184255     0.0027004445   0.0027004445   0              0              245.61563      1712.8398     -1221.7838      0             -469.23246      0              0              9.1890045      9.786182       0.2            89.925271    
     47400   0.20917281     0.0025883881   0.0025883881   0              0              271.61864      1163.4744     -620.46108      0              150.69746      0              0              9.1880431      9.7858109      0.2            89.912453    
     47500   0.22007503     0.0024830182   0.0024830182   0              0              879.92769      1282.4956      477.13866      0             -137.61057      0              0              9.1870818      9.7794978      0.2            89.845046    
     47600   0.2372894      0.0027706716   0.0027706716   0              0              1779.0887      1820.5118      1737.4877      0             -243.05356      0              0              9.1861204      9.7691105      0.2            89.740225    
     47700   0.24127022     0.002693891    0.002693891    0              0              2195.439       2255.2459      2135.4323      0             -1057.516       0              0              9.185159       9.7700507      0.2            89.739469    
     47800   0.27529117     0.0028610568   0.0028610568   0              0              1653.106       1873.8388      1432.2037      0              30.654986      0              0              9.1841976      9.7751367      0.2            89.776787    
     47900   0.20859643     0.0028013998   0.0028013998   0              0              1049.2315      2074.354       23.909902      0             -555.8473       0              0              9.1832362      9.7844545      0.2            89.852957    
     48000   0.24475345     0.0026147519   0.0026147519   0              0              142.9918       1742.3565     -1456.5791      0              141.58647      0              0              9.1822748      9.7943945      0.2            89.934822    
     48100   0.20641499     0.002850491    0.002850491    0              0              72.4992        2221.0747     -2076.3051      0             -236.72498      0              0              9.1813135      9.7937261      0.2            89.919269    
     48200   0.23744999     0.0030919887   0.0030919887   0              0             -489.42075      629.73825     -1608.8107      0             -808.98585      0              0              9.1803521      9.8005106      0.2            89.972138    
     48300   0.24127856     0.0027538931   0.0027538931   0              0              951.87981      2209.6136     -306.04687      0             -156.19323      0              0              9.1793907      9.7849327      0.2            89.81972     
     48400   0.19651832     0.0025381197   0.0025381197   0              0              1791.9982      2600.7894      983.01723      0             -3.7982982      0              0              9.1784293      9.7794141      0.2            89.759661    
     48500   0.22300151     0.0027929361   0.0027929361   0              0              1589.1872      1803.153       1375.0095      0              304.07349      0              0              9.1774679      9.7821991      0.2            89.775818    
     48600   0.19359963     0.0027862088   0.0027862088   0              0              1189.9609      1438.106       941.63847      0             -385.18057      0              0              9.1765065      9.7775334      0.2            89.723599    
     48700   0.1875056      0.0027025918   0.0027025918   0              0              1270.9607      2459.9843      81.768153      0             -341.82045      0              0              9.1755452      9.7742045      0.2            89.683655    
     48800   0.23804348     0.0028448076   0.0028448076   0              0              936.02711      2456.2473     -584.35033      0             -571.1849       0              0              9.1745838      9.7876539      0.2            89.79765     
     48900   0.23786713     0.0030732798   0.0030732798   0              0              320.21285      1450.822      -810.57468      0             -371.7795       0              0              9.1736224      9.7902275      0.2            89.81185     
     49000   0.21128912     0.0027312208   0.0027312208   0              0              95.316826      813.07207     -622.63296      0             -360.45711      0              0              9.172661       9.7917936      0.2            89.816803    
     49100   0.18208236     0.0025767542   0.0025767542   0              0              888.72283      1807.315      -30.042148      0             -149.01496      0              0              9.1716996      9.7847407      0.2            89.742702    
     49200   0.19110612     0.0027351484   0.0027351484   0              0              1220.1867      1916.7249      523.41984      0             -535.92162      0              0              9.1707382      9.7785312      0.2            89.67635     
     49300   0.18532963     0.0026334567   0.0026334567   0              0              1654.0932      2586.5118      721.48512      0             -1076.6306      0              0              9.1697769      9.7848908      0.2            89.725265    
     49400   0.17962891     0.0029359247   0.0029359247   0              0              2063.4552      3688.0047      438.69905      0             -142.50364      0              0              9.1688155      9.7839601      0.2            89.707325    
     49500   0.22552824     0.0029387265   0.0029387265   0              0              1044.0185      2265.715      -177.92303      0             -368.04369      0              0              9.1678541      9.7841207      0.2            89.699391    
     49600   0.23681741     0.0026897899   0.0026897899   0              0              826.86083      2197.8178     -544.29866      0             -482.45442      0              0              9.1668927      9.7910162      0.2            89.753195    
     49700   0.21874107     0.0027623911   0.0027623911   0              0              762.85724      2092.5989     -567.11651      0             -498.61461      0              0              9.1659313      9.7973928      0.2            89.80223     
     49800   0.20179446     0.0027205242   0.0027205242   0              0              618.6819       1497.1156     -259.93738      0             -1126.5492      0              0              9.1649699      9.7910837      0.2            89.734988    
     49900   0.20503072     0.0026964824   0.0026964824   0              0              773.32499      1457.8735      88.580125      0             -306.16489      0              0              9.1640086      9.797026       0.2            89.78003     
     50000   0.21834835     0.0026589403   0.0026589403   0              0              1660.595       2825.7972      495.23964      0             -1180.6366      0              0              9.1630472      9.7894224      0.2            89.70094     
     50100   0.22630738     0.0026854512   0.0026854512   0              0              1959.6261      3277.3853      641.6737       0             -435.4284       0              0              9.1620858      9.792058       0.2            89.715676    
     50200   0.21774862     0.0028308502   0.0028308502   0              0              1213.6515      2054.0891      373.06561      0             -189.37741      0              0              9.1611244      9.7893146      0.2            89.681129    
     50300   0.23516064     0.0029198741   0.0029198741   0              0              1022.4509      2246.119      -201.44012      0             -416.54124      0              0              9.160163       9.7890281      0.2            89.669094    
     50400   0.20503402     0.0030986066   0.0030986066   0              0              1131.1472      2805.1416     -543.05137      0             -377.91967      0              0              9.1592016      9.7932699      0.2            89.698534    
     50500   0.21997762     0.0029131106   0.0029131106   0              0              1427.1979      3393.3857     -539.2036       0             -45.023832      0              0              9.1582403      9.7938624      0.2            89.694545    
     50600   0.2681336      0.0029138709   0.0029138709   0              0              1348.5133      2827.7737     -130.946        0              476.42922      0              0              9.1572789      9.7853187      0.2            89.606892    
     50700   0.1970989      0.0026297702   0.0026297702   0              0              1058.1433      1674.4072      441.69507      0             -74.743573      0              0              9.1563175      9.7899254      0.2            89.639665    
     50800   0.16122415     0.0030446383   0.0030446383   0              0              898.95434      1078.1244      719.55029      0             -530.15935      0              0              9.1553561      9.7803664      0.2            89.542737    
     50900   0.2106629      0.0029448063   0.0029448063   0              0              1150.8771      1684.1457      617.42788      0              594.66773      0              0              9.1543947      9.7759117      0.2            89.492555    
     51000   0.17982676     0.0026373898   0.0026373898   0              0              1064.8314      1876.7098      252.7419       0             -651.03412      0              0              9.1534333      9.7836953      0.2            89.554403    
     51100   0.20437113     0.0028784346   0.0028784346   0              0              934.19364      2071.0231     -202.85257      0             -255.23874      0              0              9.152472       9.7862037      0.2            89.567955    
     51200   0.22293807     0.0029101043   0.0029101043   0              0             -373.41188     -152.76033     -594.24159      0              228.07467      0              0              9.1515106      9.7923624      0.2            89.614908    
     51300   0.18386819     0.0030231019   0.0030231019   0              0              589.80991      1777.8822     -598.44918      0             -440.99142      0              0              9.1505492      9.7920827      0.2            89.602934    
     51400   0.1660105      0.0030097105   0.0030097105   0              0              405.21693      1044.2589     -234.03109      0             -196.52813      0              0              9.1495878      9.7893282      0.2            89.568318    
     51500   0.17228607     0.0031029336   0.0031029336   0              0              1027.2203      1739.3703      314.85656      0              189.26004      0              0              9.1486264      9.781037       0.2            89.483053    
     51600   0.18650286     0.0029438535   0.0029438535   0              0              1167.3136      1757.5438      576.91727      0             -602.27436      0              0              9.1476651      9.792346       0.2            89.577102    
     51700   0.20474281     0.0028135406   0.0028135406   0              0              2085.7268      3469.6593      701.61421      0             -536.46328      0              0              9.1467037      9.7954322      0.2            89.595916    
     51800   0.19451624     0.0028446613   0.0028446613   0              0              1770.8012      3255.7783      285.67267      0             -383.50339      0              0              9.1457423      9.7997026      0.2            89.625554    
     51900   0.20040551     0.0029255385   0.0029255385   0              0              836.31748      2050.9032     -378.49352      0             -830.5765       0              0              9.1447809      9.7972977      0.2            89.594141    
     52000   0.20518711     0.0027873849   0.0027873849   0              0              1155.4109      2998.2638     -687.61812      0             -740.72975      0              0              9.1438195      9.7990764      0.2            89.600986    
     52100   0.19241396     0.0029458179   0.0029458179   0              0              768.5506       2143.8222     -606.9353       0             -1180.749       0              0              9.1428581      9.7944689      0.2            89.54944     
     52200   0.1897122      0.0028635508   0.0028635508   0              0              1298.8366      2659.9698     -62.492015      0             -562.31896      0              0              9.1418968      9.800207       0.2            89.592481    
     52300   0.19961588     0.0029971299   0.0029971299   0              0              1746.7157      2927.3045      565.93048      0             -666.09913      0              0              9.1409354      9.7904019      0.2            89.493431    
     52400   0.20700211     0.0030139246   0.0030139246   0              0              2254.9109      3784.966       724.63447      0             -473.53446      0              0              9.139974       9.7875565      0.2            89.458012    
     52500   0.25634697     0.002867241    0.002867241    0              0              1435.963       2468.1656      403.57297      0             -1068.7036      0              0              9.1390126      9.7973479      0.2            89.538086    
     52600   0.20253112     0.0028782154   0.0028782154   0              0              848.19623      2067.9626     -371.77276      0             -952.22583      0              0              9.1380512      9.7965799      0.2            89.521649    
     52700   0.24181113     0.0027537661   0.0027537661   0              0              614.3714       2068.9756     -840.43216      0             -488.09791      0              0              9.1370898      9.8075196      0.2            89.612187    
     52800   0.20125245     0.0029180789   0.0029180789   0              0              640.50134      2048.1178     -767.28384      0             -1034.8107      0              0              9.1361285      9.8068253      0.2            89.596416    
     52900   0.21650396     0.0029425604   0.0029425604   0              0              1138.1804      2368.456      -92.277796      0             -570.65761      0              0              9.1351671      9.8007886      0.2            89.531841    
     53000   0.21868682     0.0029829852   0.0029829852   0              0              1801.4586      2932.2786      670.44181      0             -523.37161      0              0              9.1342057      9.7965572      0.2            89.483768    
     53100   0.21178341     0.0026867984   0.0026867984   0              0              1757.2446      2729.544       784.78415      0             -158.92166      0              0              9.1332443      9.7971946      0.2            89.480172    
     53111   0.22371802     0.0027360223   0.0027360223   0              0              1405.9545      2465.1461      346.53674      0             -308.14063      0              0              9.1331386      9.7990239      0.2            89.495843    
Loop time of 1.15253 on 1 procs for 50000 steps with 64 atoms

Performance: 37482.876 ns/day, 0.001 hours/ns, 43382.959 timesteps/s
99.0% CPU use with 1 MPI tasks x 1 OpenMP threads

MPI task timing breakdown:
Section |  min time  |  avg time  |  max time  |%varavg| %total
---------------------------------------------------------------
Pair    | 0          | 0          | 0          |   0.0 |  0.00
Bond    | 0.17196    | 0.17196    | 0.17196    |   0.0 | 14.92
Neigh   | 0          | 0          | 0          |   0.0 |  0.00
Comm    | 0.38126    | 0.38126    | 0.38126    |   0.0 | 33.08
Output  | 0.0068622  | 0.0068622  | 0.0068622  |   0.0 |  0.60
Modify  | 0.56238    | 0.56238    | 0.56238    |   0.0 | 48.80
Other   |            | 0.03006    |            |       |  2.61

Nlocal:             64 ave          64 max          64 min
Histogram: 1 0 0 0 0 0 0 0 0 0
Nghost:            524 ave         524 max         524 min
Histogram: 1 0 0 0 0 0 0 0 0 0
Neighs:              0 ave           0 max           0 min
Histogram: 1 0 0 0 0 0 0 0 0 0

Total # of neighbors = 0
Ave neighs/atom = 0
Ave special neighs/atom = 24.09375
Neighbor list builds = 0
Dangerous builds = 0


Total wall time: 0:00:01
