ITEM: TIMESTEP
500
ITEM: NUMBER OF ATOMS
65
ITEM: BOX BOUNDS pp pp pp
-4.7896500784844145e+00 4.7896500784844145e+00
-4.7905389204747175e+00 4.7905389204747175e+00
-1.0000000000000001e-01 1.0000000000000001e-01
ITEM: ATOMS id type xs ys zs
60 1 0.0515814 0.0358044 0.499505
23 1 0.145081 0.0720297 0.499988
1 1 0.391309 0.0936434 0.499959
13 1 0.670925 0.0628161 0.499071
34 1 0.798842 0.0812071 0.500249
79 1 0.983022 0.0900833 0.500354
3 1 0.0824234 0.173335 0.500065
51 1 0.206749 0.173213 0.500212
29 1 0.287954 0.202284 0.499693
15 1 0.544324 0.138779 0.500109
66 1 0.64737 0.183056 0.499801
21 1 0.74281 0.189961 0.499954
44 1 0.856974 0.18211 0.500699
45 1 0.939656 0.148478 0.49984
11 1 0.188145 0.28878 0.500509
25 1 0.398969 0.234316 0.50025
10 1 0.531202 0.290767 0.500332
31 1 0.673478 0.283202 0.500099
71 1 0.762612 0.321001 0.500044
33 1 0.84181 0.295796 0.500422
49 1 0.937265 0.245525 0.499868
26 1 0.489772 0.422466 0.500215
22 1 0.808099 0.406119 0.499598
65 1 0.89506 0.366644 0.500721
37 1 0.967864 0.43918 0.500063
43 1 0.489497 0.515074 0.499578
2 1 0.622692 0.424123 0.499516
72 1 0.672178 0.528039 0.49966
59 1 0.80365 0.515372 0.500274
55 1 0.883617 0.492343 0.500058
6 1 0.00177726 0.573106 0.500503
47 1 0.0858722 0.648955 0.50039
5 1 0.505525 0.646927 0.500201
58 1 0.588452 0.541111 0.500123
27 1 0.722679 0.593454 0.499997
9 1 0.859837 0.634962 0.500152
75 1 0.0718233 0.735343 0.49979
38 1 0.166126 0.724465 0.499645
35 1 0.307595 0.778604 0.499418
53 1 0.391126 0.697416 0.500143
57 1 0.465875 0.749117 0.50019
54 1 0.630601 0.636982 0.5003
46 1 0.557285 0.759123 0.499826
18 1 0.680873 0.750648 0.500102
16 1 0.833342 0.789096 0.49959
12 1 0.969152 0.725769 0.499531
17 1 0.0629428 0.846014 0.499694
36 1 0.190899 0.846543 0.499141
78 1 0.321146 0.875271 0.500415
39 1 0.510558 0.849522 0.499644
7 1 0.634862 0.910816 0.499656
48 1 0.745547 0.868422 0.499959
67 1 0.812322 0.898056 0.49971
4 1 0.923549 0.91994 0.499794
77 1 0.0314166 0.952888 0.499759
42 1 0.123024 0.966256 0.499719
8 1 0.226296 0.972132 0.500421
80 1 0.391707 0.860632 0.500203
28 1 0.363696 0.959465 0.4997
20 1 0.502609 0.996403 0.500271
74 1 0.440917 0.897612 0.49987
50 1 0.809953 0.978364 0.500185
62 1 0.730895 0.971023 0.500128
68 1 0.8728 0.0276216 0.500028
63 1 0.985812 0.0176672 0.499938
ITEM: TIMESTEP
750
ITEM: NUMBER OF ATOMS
65
ITEM: BOX BOUNDS pp pp pp
-4.7884526264488754e+00 4.7884526264488754e+00
-4.7919274873736262e+00 4.7919274873736262e+00
-1.0000000000000001e-01 1.0000000000000001e-01
ITEM: ATOMS id type xs ys zs
60 1 0.0520381 0.0363565 0.500847
23 1 0.145189 0.0726506 0.500899
1 1 0.391166 0.093148 0.498218
13 1 0.67081 0.0630325 0.499706
34 1 0.798769 0.0814037 0.499451
79 1 0.983227 0.0909466 0.500632
3 1 0.0826435 0.17392 0.500893
51 1 0.206568 0.173787 0.501881
29 1 0.287969 0.202245 0.500568
15 1 0.544432 0.139349 0.49953
66 1 0.647763 0.183584 0.500152
21 1 0.743605 0.190239 0.501099
44 1 0.857443 0.182135 0.501438
45 1 0.940247 0.14925 0.50116
11 1 0.188348 0.289171 0.500365
25 1 0.398841 0.234388 0.4998
10 1 0.531137 0.291127 0.501064
31 1 0.673784 0.282888 0.49877
71 1 0.762693 0.3212 0.501339
33 1 0.84165 0.295847 0.498857
49 1 0.937624 0.246263 0.498878
26 1 0.489751 0.421864 0.498824
22 1 0.808799 0.406064 0.49814
65 1 0.895664 0.365978 0.501572
37 1 0.96771 0.439792 0.499819
43 1 0.489055 0.514287 0.501002
2 1 0.622945 0.423895 0.496922
72 1 0.67149 0.528877 0.501083
59 1 0.803327 0.515823 0.501076
55 1 0.883858 0.492896 0.500733
6 1 -1.03336e-05 0.574031 0.499723
47 1 0.0856469 0.649289 0.499993
5 1 0.504835 0.647094 0.499884
58 1 0.587627 0.540506 0.500207
27 1 0.722431 0.593446 0.500337
9 1 0.859485 0.635238 0.500988
75 1 0.0715868 0.735666 0.49917
38 1 0.165732 0.725558 0.500773
35 1 0.306994 0.778483 0.498056
53 1 0.390592 0.697678 0.500731
57 1 0.466013 0.749489 0.500011
54 1 0.63017 0.637688 0.499337
46 1 0.557401 0.758816 0.502076
18 1 0.681548 0.750608 0.497749
16 1 0.833453 0.789726 0.50053
12 1 0.968367 0.726075 0.498977
17 1 0.062714 0.846005 0.499475
36 1 0.190823 0.847408 0.499
78 1 0.322446 0.875146 0.500946
39 1 0.511199 0.849347 0.500162
7 1 0.63496 0.910593 0.501118
48 1 0.7454 0.868561 0.499876
67 1 0.811724 0.898586 0.500591
4 1 0.923511 0.920998 0.499552
77 1 0.0318582 0.953302 0.500036
42 1 0.123094 0.96635 0.501638
8 1 0.226613 0.973093 0.500369
80 1 0.393466 0.860627 0.501032
28 1 0.36472 0.959154 0.502346
20 1 0.503173 0.996754 0.500337
74 1 0.442593 0.898083 0.498731
50 1 0.809659 0.978739 0.498987
62 1 0.730349 0.9715 0.500062
68 1 0.872561 0.0285396 0.500929
63 1 0.986118 0.0183278 0.501291
ITEM: TIMESTEP
1000
ITEM: NUMBER OF ATOMS
65
ITEM: BOX BOUNDS pp pp pp
-4.7872551744133371e+00 4.7872551744133371e+00
-4.7918708465810758e+00 4.7918708465810758e+00
-1.0000000000000001e-01 1.0000000000000001e-01
ITEM: ATOMS id type xs ys zs
60 1 0.0523835 0.0362931 0.503305
23 1 0.145748 0.0723568 0.499835
1 1 0.391615 0.0936973 0.497393
13 1 0.671338 0.0635976 0.501232
34 1 0.799183 0.0814227 0.500242
79 1 0.983794 0.0908473 0.49994
3 1 0.0823917 0.172921 0.501403
51 1 0.206965 0.173327 0.500776
29 1 0.287956 0.201801 0.502739
15 1 0.544943 0.139237 0.498223
66 1 0.647498 0.183763 0.500938
21 1 0.743505 0.190083 0.498872
44 1 0.857899 0.181832 0.501143
45 1 0.940377 0.149047 0.50023
11 1 0.188313 0.288111 0.500771
25 1 0.398738 0.235155 0.498997
10 1 0.531552 0.291443 0.502567
31 1 0.674493 0.283638 0.499048
71 1 0.762707 0.323574 0.501704
33 1 0.841261 0.296139 0.500314
49 1 0.937021 0.246244 0.498464
26 1 0.489888 0.422225 0.501004
22 1 0.810801 0.407061 0.499447
65 1 0.896622 0.364957 0.501279
37 1 0.966799 0.439733 0.499966
43 1 0.488202 0.515402 0.502456
2 1 0.623236 0.423503 0.496307
72 1 0.67163 0.528507 0.50059
59 1 0.803719 0.515983 0.500527
55 1 0.884316 0.495299 0.501287
6 1 0.00234594 0.573649 0.499601
47 1 0.0864611 0.649941 0.498953
5 1 0.505147 0.647037 0.499972
58 1 0.587171 0.53989 0.499518
27 1 0.722748 0.593408 0.500157
9 1 0.859296 0.635926 0.502643
75 1 0.0723621 0.736344 0.499895
38 1 0.166115 0.726193 0.500108
35 1 0.305561 0.777794 0.498784
53 1 0.390561 0.698266 0.497384
57 1 0.465949 0.749649 0.501424
54 1 0.631182 0.637787 0.497886
46 1 0.557711 0.758565 0.503803
18 1 0.681269 0.751084 0.498998
16 1 0.833401 0.789044 0.49905
12 1 0.969446 0.726053 0.499136
17 1 0.06342 0.846647 0.502044
36 1 0.190793 0.847964 0.497893
78 1 0.323761 0.874072 0.501302
39 1 0.511562 0.849636 0.49858
7 1 0.635762 0.911408 0.500349
48 1 0.745833 0.869174 0.500386
67 1 0.812921 0.898223 0.5015
4 1 0.923858 0.920361 0.498836
77 1 0.0320838 0.953388 0.500904
42 1 0.123653 0.966947 0.502376
8 1 0.227678 0.972905 0.501393
80 1 0.394521 0.859725 0.500427
28 1 0.364954 0.958831 0.50208
20 1 0.503389 0.996912 0.499797
74 1 0.442772 0.89803 0.498564
50 1 0.8102 0.978398 0.499493
62 1 0.731028 0.972087 0.500388
68 1 0.872748 0.0278175 0.501066
63 1 0.986504 0.0182081 0.502231
ITEM: TIMESTEP
1250
ITEM: NUMBER OF ATOMS
65
ITEM: BOX BOUNDS pp pp pp
-4.7860577223777989e+00 4.7860577223777989e+00
-4.7933833021233658e+00 4.7933833021233658e+00
-1.0000000000000001e-01 1.0000000000000001e-01
ITEM: ATOMS id type xs ys zs
60 1 0.0525003 0.0356001 0.502214
23 1 0.145315 0.0727009 0.500329
1 1 0.39151 0.09324 0.500087
13 1 0.670865 0.0635382 0.501729
34 1 0.79949 0.0812474 0.498661
79 1 0.98323 0.0895225 0.500743
3 1 0.0824919 0.173608 0.501144
51 1 0.206387 0.173916 0.500903
29 1 0.287712 0.202825 0.502439
15 1 0.544343 0.139545 0.498019
66 1 0.647749 0.183475 0.501111
21 1 0.743705 0.189547 0.499866
44 1 0.857812 0.182196 0.502181
45 1 0.940634 0.148751 0.50071
11 1 0.187252 0.289231 0.501288
25 1 0.399273 0.234278 0.497629
10 1 0.532043 0.290898 0.502376
31 1 0.674581 0.282996 0.496988
71 1 0.763205 0.323412 0.500643
33 1 0.841756 0.296023 0.501046
49 1 0.937354 0.246035 0.498509
26 1 0.490286 0.421542 0.499696
22 1 0.811272 0.407104 0.49925
65 1 0.897462 0.36501 0.501291
37 1 0.967499 0.440756 0.498622
43 1 0.488039 0.514455 0.500606
2 1 0.623953 0.423579 0.494161
72 1 0.671944 0.528893 0.501688
59 1 0.803357 0.515804 0.500318
55 1 0.884789 0.495809 0.501995
6 1 0.00319949 0.574076 0.499009
47 1 0.087044 0.649451 0.500918
5 1 0.504987 0.646742 0.501166
58 1 0.587338 0.539267 0.497816
27 1 0.722785 0.594144 0.503194
9 1 0.860093 0.635262 0.502519
75 1 0.0723317 0.735671 0.498371
38 1 0.166652 0.725754 0.49938
35 1 0.306136 0.777996 0.499947
53 1 0.391275 0.698479 0.497479
57 1 0.46591 0.749483 0.501807
54 1 0.630862 0.637602 0.498215
46 1 0.55744 0.758307 0.504951
18 1 0.681856 0.750495 0.497308
16 1 0.834091 0.788817 0.500505
12 1 0.969663 0.725782 0.498236
17 1 0.0634244 0.846228 0.501899
36 1 0.191467 0.848091 0.496353
78 1 0.322991 0.874555 0.501998
39 1 0.51112 0.849151 0.497632
7 1 0.635821 0.911089 0.501277
48 1 0.745869 0.867859 0.500513
67 1 0.812512 0.89828 0.503788
4 1 0.923634 0.919765 0.499869
77 1 0.0316225 0.95288 0.501375
42 1 0.124183 0.966634 0.502208
8 1 0.227211 0.972788 0.50221
80 1 0.39391 0.860765 0.500255
28 1 0.36476 0.959113 0.502739
20 1 0.503327 0.996835 0.499308
74 1 0.442877 0.898427 0.497227
50 1 0.810668 0.978565 0.499184
62 1 0.731433 0.972449 0.50202
68 1 0.873261 0.0276359 0.498744
63 1 0.986838 0.0171893 0.501796
ITEM: TIMESTEP
1500
ITEM: NUMBER OF ATOMS
65
ITEM: BOX BOUNDS pp pp pp
-4.7848602703422607e+00 4.7848602703422607e+00
-4.7922527057246906e+00 4.7922527057246906e+00
-1.0000000000000001e-01 1.0000000000000001e-01
ITEM: ATOMS id type xs ys zs
60 1 0.0517792 0.0361464 0.5018
23 1 0.145461 0.0724193 0.501073
1 1 0.390957 0.0934916 0.498768
13 1 0.671632 0.0635693 0.502867
34 1 0.799743 0.0819241 0.498402
79 1 0.982786 0.0903009 0.500388
3 1 0.0822333 0.173048 0.501204
51 1 0.206855 0.173357 0.503127
29 1 0.287854 0.202971 0.504639
15 1 0.544373 0.138418 0.497141
66 1 0.647328 0.184181 0.500393
21 1 0.743578 0.190539 0.501111
44 1 0.857961 0.181883 0.499984
45 1 0.940537 0.149534 0.500764
11 1 0.187628 0.288402 0.500775
25 1 0.399411 0.234396 0.496921
10 1 0.531396 0.290895 0.502124
31 1 0.674696 0.28374 0.497132
71 1 0.762657 0.323309 0.500659
33 1 0.840962 0.29541 0.502618
49 1 0.93791 0.246402 0.500464
26 1 0.4913 0.42188 0.500398
22 1 0.810969 0.406857 0.500275
65 1 0.89731 0.363962 0.503583
37 1 0.965393 0.440019 0.496961
43 1 0.486919 0.514642 0.500943
2 1 0.624328 0.424001 0.494783
72 1 0.670674 0.52892 0.501821
59 1 0.802268 0.515908 0.499581
55 1 0.883234 0.495791 0.502141
6 1 0.00275829 0.573168 0.498973
47 1 0.0870698 0.649128 0.50151
5 1 0.504805 0.646212 0.500928
58 1 0.586295 0.539175 0.496738
27 1 0.721979 0.593539 0.503458
9 1 0.858599 0.635983 0.501487
75 1 0.0724351 0.735336 0.499109
38 1 0.166984 0.724921 0.499353
35 1 0.307186 0.777976 0.500089
53 1 0.390119 0.696535 0.496212
57 1 0.46564 0.748583 0.50011
54 1 0.630481 0.637765 0.497633
46 1 0.557184 0.757386 0.504322
18 1 0.681064 0.751194 0.496489
16 1 0.833896 0.789804 0.499336
12 1 0.969591 0.725107 0.497753
17 1 0.0635118 0.84583 0.501272
36 1 0.191415 0.847923 0.499051
78 1 0.323087 0.874554 0.501876
39 1 0.51199 0.848565 0.497691
7 1 0.636174 0.910956 0.502012
48 1 0.74633 0.86873 0.49955
67 1 0.812647 0.899302 0.503326
4 1 0.923822 0.920367 0.499951
77 1 0.0321179 0.952837 0.500695
42 1 0.123972 0.966683 0.502392
8 1 0.227717 0.973189 0.502094
80 1 0.39378 0.860271 0.50044
28 1 0.365303 0.95876 0.502391
20 1 0.503787 0.996699 0.498002
74 1 0.442837 0.897452 0.497802
50 1 0.810743 0.979369 0.499105
62 1 0.731719 0.972036 0.500853
68 1 0.873899 0.0282294 0.500464
63 1 0.986012 0.0179366 0.500646
ITEM: TIMESTEP
1750
ITEM: NUMBER OF ATOMS
65
ITEM: BOX BOUNDS pp pp pp
-4.7836628183067225e+00 4.7836628183067225e+00
-4.7952587845303949e+00 4.7952587845303949e+00
-1.0000000000000001e-01 1.0000000000000001e-01
ITEM: ATOMS id type xs ys zs
60 1 0.0518074 0.0355685 0.501165
23 1 0.145528 0.0717327 0.500365
1 1 0.390226 0.0927936 0.499262
13 1 0.67166 0.0629803 0.503443
34 1 0.798598 0.0814751 0.49877
79 1 0.984633 0.0919341 0.498272
3 1 0.0831977 0.172945 0.501607
51 1 0.207054 0.173565 0.503593
29 1 0.288309 0.203077 0.504384
15 1 0.544109 0.138625 0.497747
66 1 0.646512 0.184489 0.500943
21 1 0.742481 0.19005 0.498712
44 1 0.856887 0.181773 0.500303
45 1 0.939363 0.148659 0.50054
11 1 0.187928 0.288088 0.501647
25 1 0.400317 0.233841 0.497526
10 1 0.532044 0.290762 0.503773
31 1 0.674811 0.283694 0.497959
71 1 0.762871 0.322814 0.500556
33 1 0.840664 0.295146 0.503437
49 1 0.93658 0.245425 0.499901
26 1 0.490514 0.422073 0.501071
22 1 0.810451 0.406764 0.500696
65 1 0.896327 0.364403 0.502756
37 1 0.965262 0.440624 0.495914
43 1 0.487709 0.514789 0.502689
2 1 0.62389 0.423677 0.495938
72 1 0.670748 0.528931 0.502581
59 1 0.801579 0.516394 0.499702
55 1 0.882769 0.495809 0.502849
6 1 0.00439576 0.572719 0.498424
47 1 0.0880801 0.648641 0.504513
5 1 0.504021 0.64645 0.49999
58 1 0.586768 0.539673 0.495799
27 1 0.72116 0.594444 0.504099
9 1 0.859351 0.634965 0.503965
75 1 0.0725174 0.73514 0.501051
38 1 0.166458 0.725108 0.497373
35 1 0.306282 0.778757 0.500823
53 1 0.390391 0.698106 0.496171
57 1 0.466036 0.748917 0.501194
54 1 0.629539 0.639046 0.499243
46 1 0.557627 0.757746 0.505226
18 1 0.68187 0.751953 0.496558
16 1 0.834105 0.789242 0.499265
12 1 0.969589 0.72452 0.497655
17 1 0.0623085 0.845371 0.501052
36 1 0.189817 0.847383 0.500348
78 1 0.3233 0.87477 0.503279
39 1 0.510976 0.848907 0.498476
7 1 0.635033 0.911125 0.501493
48 1 0.746139 0.869643 0.499076
67 1 0.812998 0.898561 0.504587
4 1 0.923847 0.9205 0.498767
77 1 0.0327931 0.952323 0.49851
42 1 0.122767 0.965877 0.503643
8 1 0.226343 0.971839 0.502278
80 1 0.393807 0.860163 0.500532
28 1 0.364461 0.958589 0.503493
20 1 0.502842 0.996525 0.496425
74 1 0.442361 0.897941 0.49883
50 1 0.810333 0.978827 0.498727
62 1 0.731481 0.971546 0.502426
68 1 0.873127 0.0282495 0.501579
63 1 0.985348 0.0193701 0.501875
ITEM: TIMESTEP
2000
ITEM: NUMBER OF ATOMS
65
ITEM: BOX BOUNDS pp pp pp
-4.7824653662711842e+00 4.7824653662711842e+00
-4.7974231982312343e+00 4.7974231982312343e+00
-1.0000000000000001e-01 1.0000000000000001e-01
ITEM: ATOMS id type xs ys zs
60 1 0.0514205 0.0353719 0.501465
23 1 0.14507 0.0718613 0.499925
1 1 0.391395 0.0934977 0.498878
13 1 0.67136 0.0635518 0.503505
34 1 0.799027 0.0815443 0.499869
79 1 0.984508 0.0915697 0.498132
3 1 0.0816147 0.173728 0.502089
51 1 0.206121 0.173623 0.503499
29 1 0.288054 0.202403 0.50441
15 1 0.544054 0.139112 0.498703
66 1 0.647492 0.182861 0.499788
21 1 0.74339 0.190042 0.500467
44 1 0.857348 0.182456 0.499885
45 1 0.940088 0.14883 0.500797
11 1 0.188336 0.288567 0.501275
25 1 0.399448 0.234176 0.496598
10 1 0.531788 0.290922 0.504405
31 1 0.674715 0.28277 0.498688
71 1 0.763139 0.32286 0.501616
33 1 0.84223 0.296037 0.504124
49 1 0.937772 0.245993 0.50126
26 1 0.490304 0.422564 0.499875
22 1 0.810895 0.4067 0.501684
65 1 0.8972 0.364821 0.503626
37 1 0.965445 0.440844 0.495379
43 1 0.486478 0.515103 0.501627
2 1 0.624221 0.423842 0.495549
72 1 0.670601 0.530065 0.499641
59 1 0.801806 0.515932 0.500825
55 1 0.88345 0.49602 0.50238
6 1 0.00538082 0.572302 0.497444
47 1 0.0879762 0.649016 0.504807
5 1 0.503723 0.646559 0.497689
58 1 0.586429 0.539696 0.496139
27 1 0.7221 0.594708 0.503627
9 1 0.859669 0.635127 0.503057
75 1 0.0731394 0.734989 0.500074
38 1 0.167403 0.725987 0.497959
35 1 0.307067 0.778853 0.498739
53 1 0.389539 0.697686 0.493361
57 1 0.464852 0.749012 0.499844
54 1 0.629793 0.63782 0.498168
46 1 0.557441 0.757889 0.504997
18 1 0.681821 0.751079 0.496795
16 1 0.834661 0.789713 0.500755
12 1 0.970018 0.724313 0.49674
17 1 0.062928 0.845411 0.503314
36 1 0.190965 0.847693 0.498668
78 1 0.321845 0.875582 0.502864
39 1 0.511624 0.849057 0.497867
7 1 0.635965 0.911391 0.500229
48 1 0.746648 0.86861 0.498545
67 1 0.813424 0.898179 0.504667
4 1 0.924426 0.920775 0.499694
77 1 0.0329305 0.951773 0.500534
42 1 0.123056 0.966398 0.50151
8 1 0.227029 0.97256 0.500878
80 1 0.392293 0.86082 0.500198
28 1 0.365156 0.959369 0.505446
20 1 0.503083 0.996363 0.496157
74 1 0.442025 0.897243 0.499118
50 1 0.810412 0.978557 0.499671
62 1 0.731803 0.972295 0.502172
68 1 0.872787 0.0281345 0.500557
63 1 0.984978 0.0193753 0.503426
ITEM: TIMESTEP
2250
ITEM: NUMBER OF ATOMS
65
ITEM: BOX BOUNDS pp pp pp
-4.7812679142356460e+00 4.7812679142356460e+00
-4.7948318762910720e+00 4.7948318762910720e+00
-1.0000000000000001e-01 1.0000000000000001e-01
ITEM: ATOMS id type xs ys zs
60 1 0.0513454 0.0353132 0.501693
23 1 0.144832 0.0721611 0.499709
1 1 0.391712 0.093592 0.496436
13 1 0.671436 0.0634699 0.502993
34 1 0.799341 0.0821858 0.499973
79 1 0.985072 0.0921212 0.498626
3 1 0.0819111 0.17328 0.503569
51 1 0.206318 0.173695 0.505484
29 1 0.287644 0.202678 0.502881
15 1 0.544832 0.138681 0.500283
66 1 0.647317 0.184467 0.500443
21 1 0.742753 0.190573 0.499965
44 1 0.856983 0.182541 0.498204
45 1 0.939744 0.148746 0.501592
11 1 0.1874 0.288417 0.499622
25 1 0.39893 0.234371 0.495126
10 1 0.531808 0.290648 0.502409
31 1 0.67467 0.284074 0.498997
71 1 0.762653 0.323344 0.501097
33 1 0.8408 0.29523 0.503962
49 1 0.937613 0.245456 0.502615
26 1 0.490162 0.422511 0.501384
22 1 0.81119 0.407022 0.501006
65 1 0.896466 0.364444 0.504001
37 1 0.965799 0.440405 0.493999
43 1 0.486732 0.515856 0.501946
2 1 0.623373 0.423988 0.494227
72 1 0.670952 0.529671 0.500592
59 1 0.802159 0.516002 0.501434
55 1 0.88362 0.496176 0.501945
6 1 0.004449 0.573252 0.497083
47 1 0.0886488 0.648437 0.50471
5 1 0.505113 0.647025 0.498725
58 1 0.586644 0.539459 0.494648
27 1 0.722109 0.594913 0.502691
9 1 0.860066 0.635035 0.501843
75 1 0.0732915 0.734415 0.498951
38 1 0.168115 0.725156 0.498185
35 1 0.30709 0.77878 0.501372
53 1 0.3904 0.698011 0.492341
57 1 0.465478 0.749103 0.500788
54 1 0.630232 0.638918 0.496128
46 1 0.557206 0.758758 0.504977
18 1 0.68132 0.751803 0.499172
16 1 0.834457 0.789729 0.50208
12 1 0.970247 0.724813 0.497843
17 1 0.0629351 0.845099 0.503516
36 1 0.19118 0.847195 0.500555
78 1 0.320664 0.875673 0.501553
39 1 0.510661 0.84941 0.496872
7 1 0.634797 0.911266 0.498915
48 1 0.745714 0.86868 0.49677
67 1 0.811896 0.899238 0.505339
4 1 0.923432 0.921168 0.497759
77 1 0.0323873 0.952081 0.501389
42 1 0.122921 0.966092 0.502954
8 1 0.226228 0.972236 0.498988
80 1 0.391852 0.860995 0.49905
28 1 0.364188 0.959462 0.505199
20 1 0.503111 0.996237 0.494815
74 1 0.441175 0.89799 0.498874
50 1 0.809811 0.979342 0.49871
62 1 0.731037 0.971822 0.503888
68 1 0.872468 0.0282547 0.499894
63 1 0.984658 0.0195077 0.504966
ITEM: TIMESTEP
2500
ITEM: NUMBER OF ATOMS
65
ITEM: BOX BOUNDS pp pp pp
-4.7800704622001078e+00 4.7800704622001078e+00
-4.7956680885962388e+00 4.7956680885962388e+00
-1.0000000000000001e-01 1.0000000000000001e-01
ITEM: ATOMS id type xs ys zs
60 1 0.0513093 0.0355932 0.501358
23 1 0.144834 0.0715967 0.500752
1 1 0.391374 0.0936843 0.495503
13 1 0.670658 0.0630054 0.502076
34 1 0.799045 0.0810976 0.499916
79 1 0.984065 0.0922469 0.497388
3 1 0.0817731 0.172447 0.504573
51 1 0.206371 0.172759 0.505035
29 1 0.287364 0.202038 0.502217
15 1 0.54456 0.139134 0.501521
66 1 0.647292 0.183328 0.500342
21 1 0.742687 0.189337 0.500425
44 1 0.85686 0.18255 0.497212
45 1 0.93977 0.149612 0.50046
11 1 0.18701 0.287522 0.49783
25 1 0.399083 0.234261 0.496247
10 1 0.530954 0.291274 0.501474
31 1 0.67414 0.282969 0.499748
71 1 0.762347 0.322576 0.499728
33 1 0.841149 0.29598 0.502883
49 1 0.936792 0.246622 0.503352
26 1 0.490423 0.422924 0.502082
22 1 0.810132 0.406792 0.502009
65 1 0.896734 0.364782 0.503426
37 1 0.966496 0.439868 0.494817
43 1 0.486718 0.515376 0.502794
2 1 0.623892 0.423595 0.493964
72 1 0.670743 0.528833 0.500681
59 1 0.802984 0.515883 0.501113
55 1 0.883818 0.49564 0.502246
6 1 0.00321258 0.573079 0.49651
47 1 0.0879874 0.648024 0.503454
5 1 0.504851 0.646687 0.498707
58 1 0.586503 0.539728 0.494112
27 1 0.72186 0.593575 0.503483
9 1 0.859092 0.635747 0.499765
75 1 0.0728329 0.734595 0.499402
38 1 0.167411 0.725052 0.498628
35 1 0.308781 0.778851 0.502455
53 1 0.390562 0.696381 0.49324
57 1 0.465683 0.748524 0.502713
54 1 0.630044 0.637653 0.494436
46 1 0.557202 0.758539 0.506833
18 1 0.681092 0.750359 0.499502
16 1 0.834285 0.789232 0.501748
12 1 0.970142 0.724729 0.498683
17 1 0.0635661 0.845066 0.504234
36 1 0.19192 0.846316 0.500979
78 1 0.320257 0.875885 0.500271
39 1 0.510301 0.84888 0.498756
7 1 0.635269 0.910712 0.496879
48 1 0.746356 0.867889 0.496911
67 1 0.813043 0.898457 0.505303
4 1 0.924292 0.92042 0.496544
77 1 0.0325172 0.952342 0.500233
42 1 0.122756 0.96593 0.501703
8 1 0.226291 0.971523 0.499808
80 1 0.391062 0.861109 0.499523
28 1 0.363949 0.959611 0.506722
20 1 0.502854 0.99556 0.49506
74 1 0.441175 0.897064 0.498245
50 1 0.8102 0.978239 0.498786
62 1 0.731044 0.971368 0.503843
68 1 0.873031 0.0277032 0.501287
63 1 0.98499 0.0195057 0.505025
ITEM: TIMESTEP
2750
ITEM: NUMBER OF ATOMS
65
ITEM: BOX BOUNDS pp pp pp
-4.7788730101645696e+00 4.7788730101645696e+00
-4.8052979589917655e+00 4.8052979589917655e+00
-1.0000000000000001e-01 1.0000000000000001e-01
ITEM: ATOMS id type xs ys zs
60 1 0.0512738 0.0355835 0.50096
23 1 0.144929 0.0711943 0.499755
1 1 0.390848 0.0934387 0.49544
13 1 0.670827 0.0618095 0.50228
34 1 0.798279 0.0813741 0.499012
79 1 0.984397 0.0923271 0.496551
3 1 0.0814692 0.172158 0.502368
51 1 0.205979 0.172702 0.505336
29 1 0.28729 0.201714 0.504587
15 1 0.544136 0.138133 0.501079
66 1 0.646294 0.183451 0.502006
21 1 0.74184 0.18887 0.500479
44 1 0.85592 0.182891 0.496876
45 1 0.938914 0.14874 0.499622
11 1 0.186486 0.286969 0.497691
25 1 0.398565 0.233093 0.495209
10 1 0.531172 0.290263 0.50208
31 1 0.674642 0.282599 0.498656
71 1 0.762496 0.323806 0.502206
33 1 0.841073 0.296631 0.502069
49 1 0.936652 0.245847 0.502944
26 1 0.490164 0.421909 0.500854
22 1 0.810093 0.407535 0.501553
65 1 0.895985 0.366031 0.503668
37 1 0.967097 0.440337 0.495665
43 1 0.485817 0.51426 0.502147
2 1 0.623881 0.422945 0.493553
72 1 0.670335 0.527871 0.500913
59 1 0.803262 0.516076 0.501889
55 1 0.884398 0.4951 0.502343
6 1 0.0028112 0.573055 0.497697
47 1 0.0868446 0.648614 0.502077
5 1 0.504721 0.645794 0.501272
58 1 0.586047 0.538642 0.494597
27 1 0.721674 0.592573 0.503635
9 1 0.858513 0.636374 0.498257
75 1 0.0718961 0.735105 0.499576
38 1 0.166682 0.724923 0.499057
35 1 0.307803 0.778692 0.502593
53 1 0.390306 0.696762 0.491905
57 1 0.465046 0.748027 0.504518
54 1 0.630334 0.638296 0.49404
46 1 0.556441 0.757687 0.504926
18 1 0.681324 0.751456 0.496806
16 1 0.834342 0.790073 0.502179
12 1 0.969142 0.724539 0.497763
17 1 0.0628217 0.845503 0.504772
36 1 0.191815 0.846822 0.501203
78 1 0.320816 0.875349 0.498799
39 1 0.510039 0.848437 0.500444
7 1 0.634785 0.910169 0.495697
48 1 0.74615 0.868504 0.497133
67 1 0.812591 0.899 0.505526
4 1 0.924009 0.921201 0.49648
77 1 0.032723 0.952362 0.500975
42 1 0.122082 0.96573 0.501396
8 1 0.226 0.971712 0.500447
80 1 0.391326 0.860116 0.499864
28 1 0.36381 0.959418 0.506631
20 1 0.502483 0.996009 0.495993
74 1 0.440996 0.897339 0.497111
50 1 0.809789 0.978629 0.499911
62 1 0.730742 0.970354 0.502588
68 1 0.872199 0.0281243 0.501098
63 1 0.984872 0.0196266 0.505472
ITEM: TIMESTEP
3000
ITEM: NUMBER OF ATOMS
65
ITEM: BOX BOUNDS pp pp pp
-4.7776755581290313e+00 4.7776755581290313e+00
-4.7972938806997956e+00 4.7972938806997956e+00
-1.0000000000000001e-01 1.0000000000000001e-01
ITEM: ATOMS id type xs ys zs
60 1 0.0509452 0.0357372 0.50345
23 1 0.144385 0.0719797 0.500926
1 1 0.389867 0.0933325 0.49447
13 1 0.671139 0.0615661 0.502537
34 1 0.798888 0.0815867 0.499192
79 1 0.983262 0.0916377 0.4963
3 1 0.0810165 0.172981 0.502771
51 1 0.205309 0.173164 0.506769
29 1 0.287099 0.202501 0.504313
15 1 0.543817 0.138608 0.502124
66 1 0.646191 0.183153 0.500198
21 1 0.741881 0.1889 0.499683
44 1 0.855923 0.182322 0.494625
45 1 0.938494 0.148697 0.500279
11 1 0.187024 0.288739 0.499654
25 1 0.398205 0.233789 0.494748
10 1 0.531002 0.290685 0.501111
31 1 0.673532 0.282384 0.499307
71 1 0.762373 0.322913 0.503964
33 1 0.84107 0.295985 0.50127
49 1 0.937004 0.24569 0.501661
26 1 0.488935 0.421733 0.502471
22 1 0.810218 0.406975 0.500917
65 1 0.896592 0.365044 0.504582
37 1 0.96722 0.439921 0.494636
43 1 0.485327 0.51463 0.502084
2 1 0.622526 0.422812 0.494571
72 1 0.669349 0.528237 0.50096
59 1 0.803177 0.515921 0.502652
55 1 0.884144 0.494921 0.500993
6 1 0.00210366 0.573248 0.498582
47 1 0.0849808 0.649828 0.503602
5 1 0.50492 0.646652 0.501227
58 1 0.584959 0.538902 0.495989
27 1 0.721755 0.591889 0.50307
9 1 0.858821 0.635649 0.498596
75 1 0.0717642 0.735996 0.499603
38 1 0.166527 0.724397 0.496985
35 1 0.306674 0.778909 0.504447
53 1 0.389626 0.697178 0.491617
57 1 0.464854 0.748758 0.503846
54 1 0.631027 0.637675 0.494209
46 1 0.556966 0.758305 0.504541
18 1 0.681194 0.751107 0.498342
16 1 0.83416 0.789902 0.501441
12 1 0.96911 0.725117 0.497425
17 1 0.0629714 0.845682 0.505325
36 1 0.190653 0.846507 0.501196
78 1 0.320836 0.87536 0.498719
39 1 0.510157 0.848841 0.500424
7 1 0.633924 0.910077 0.49515
48 1 0.745206 0.868793 0.496535
67 1 0.811635 0.898873 0.506397
4 1 0.923441 0.920147 0.498023
77 1 0.0322169 0.952346 0.49923
42 1 0.121867 0.96593 0.500199
8 1 0.225075 0.971865 0.498824
80 1 0.391395 0.86053 0.501093
28 1 0.36322 0.958965 0.50736
20 1 0.501367 0.99621 0.495905
74 1 0.441091 0.897066 0.496037
50 1 0.80983 0.978564 0.498289
62 1 0.730799 0.969427 0.502787
68 1 0.872752 0.027644 0.500168
63 1 0.984539 0.0190447 0.505179
ITEM: TIMESTEP
3250
ITEM: NUMBER OF ATOMS
65
ITEM: BOX BOUNDS pp pp pp
-4.7764781060934931e+00 4.7764781060934931e+00
-4.7994141494590394e+00 4.7994141494590394e+00
-1.0000000000000001e-01 1.0000000000000001e-01
ITEM: ATOMS id type xs ys zs
60 1 0.0505632 0.0365198 0.501365
23 1 0.144465 0.0723779 0.501188
1 1 0.388843 0.0925879 0.49329
13 1 0.670507 0.0625087 0.504261
34 1 0.79857 0.0815428 0.49993
79 1 0.982107 0.0910238 0.496794
3 1 0.0806243 0.173312 0.503148
51 1 0.205112 0.174014 0.505697
29 1 0.286628 0.20314 0.504532
15 1 0.542761 0.138467 0.503029
66 1 0.644969 0.184194 0.500041
21 1 0.741207 0.189547 0.501271
44 1 0.855373 0.182511 0.495453
45 1 0.937653 0.147931 0.500174
11 1 0.1858 0.288272 0.497912
25 1 0.398945 0.232609 0.496216
10 1 0.531413 0.289999 0.502305
31 1 0.674031 0.283571 0.5003
71 1 0.762172 0.323907 0.503855
33 1 0.840591 0.295989 0.500579
49 1 0.936162 0.245019 0.502187
26 1 0.48808 0.421838 0.502043
22 1 0.810761 0.407268 0.499645
65 1 0.896813 0.364563 0.50334
37 1 0.967891 0.438982 0.494573
43 1 0.485984 0.514636 0.502005
2 1 0.621863 0.423779 0.496313
72 1 0.669921 0.528492 0.50203
59 1 0.803909 0.515841 0.501485
55 1 0.885171 0.494664 0.500887
6 1 0.00218718 0.572556 0.499774
47 1 0.0858059 0.648944 0.503688
5 1 0.504176 0.646773 0.50109
58 1 0.585795 0.539621 0.496158
27 1 0.72155 0.592557 0.503087
9 1 0.858768 0.636404 0.499828
75 1 0.0724755 0.735382 0.497837
38 1 0.16686 0.724548 0.498416
35 1 0.306797 0.778124 0.504647
53 1 0.389522 0.697026 0.492855
57 1 0.464906 0.749063 0.506057
54 1 0.630178 0.637466 0.493233
46 1 0.556294 0.758808 0.502513
18 1 0.680883 0.750815 0.497501
16 1 0.833458 0.789965 0.501741
12 1 0.969789 0.725103 0.498607
17 1 0.062436 0.84621 0.505216
36 1 0.191028 0.84666 0.501388
78 1 0.31998 0.874843 0.498098
39 1 0.509773 0.849227 0.501256
7 1 0.63443 0.910962 0.495316
48 1 0.745249 0.867997 0.497588
67 1 0.811977 0.898711 0.507352
4 1 0.923197 0.921004 0.498047
77 1 0.0316299 0.952997 0.500402
42 1 0.121474 0.966594 0.498354
8 1 0.224668 0.971522 0.497665
80 1 0.391202 0.860801 0.499498
28 1 0.362553 0.958609 0.505486
20 1 0.501594 0.996837 0.492615
74 1 0.440909 0.897839 0.497364
50 1 0.809795 0.978901 0.499302
62 1 0.73096 0.971056 0.502899
68 1 0.872696 0.0282238 0.499607
63 1 0.984237 0.0186946 0.504093
ITEM: TIMESTEP
3500
ITEM: NUMBER OF ATOMS
65
ITEM: BOX BOUNDS pp pp pp
-4.7752806540579549e+00 4.7752806540579549e+00
-4.8041295642951605e+00 4.8041295642951605e+00
-1.0000000000000001e-01 1.0000000000000001e-01
ITEM: ATOMS id type xs ys zs
60 1 0.0504388 0.0356796 0.498297
23 1 0.14407 0.0719623 0.500873
1 1 0.389684 0.0927404 0.492775
13 1 0.669916 0.0628842 0.50408
34 1 0.798064 0.0808566 0.50147
79 1 0.982087 0.0904457 0.498489
3 1 0.0809067 0.172035 0.503858
51 1 0.205316 0.173419 0.506887
29 1 0.287006 0.202416 0.505962
15 1 0.542348 0.138619 0.501419
66 1 0.644595 0.185243 0.499241
21 1 0.741073 0.189139 0.50204
44 1 0.855098 0.182182 0.494234
45 1 0.937571 0.147349 0.499275
11 1 0.186238 0.288119 0.498516
25 1 0.398711 0.23298 0.495443
10 1 0.531294 0.290446 0.501122
31 1 0.674528 0.283979 0.499811
71 1 0.763297 0.323678 0.504597
33 1 0.841199 0.295505 0.500219
49 1 0.936581 0.244987 0.504587
26 1 0.489438 0.422113 0.502519
22 1 0.811463 0.406922 0.500397
65 1 0.897177 0.363804 0.502137
37 1 0.966968 0.439545 0.493839
43 1 0.48718 0.514645 0.501317
2 1 0.622927 0.423779 0.494744
72 1 0.670474 0.528024 0.502431
59 1 0.803561 0.515962 0.500757
55 1 0.885201 0.495785 0.499579
6 1 0.0034148 0.57273 0.50094
47 1 0.0865253 0.64894 0.503826
5 1 0.504102 0.646783 0.500958
58 1 0.586495 0.540028 0.496167
27 1 0.721473 0.59303 0.501382
9 1 0.859215 0.635675 0.499644
75 1 0.0718742 0.73517 0.499467
38 1 0.166711 0.724831 0.498259
35 1 0.306866 0.777704 0.504018
53 1 0.390156 0.697417 0.492823
57 1 0.465318 0.748945 0.507282
54 1 0.630099 0.637881 0.49349
46 1 0.557288 0.758539 0.502795
18 1 0.681215 0.750957 0.499341
16 1 0.833845 0.789968 0.502604
12 1 0.969304 0.724683 0.499538
17 1 0.0628075 0.845264 0.505199
36 1 0.191028 0.8466 0.500145
78 1 0.321153 0.874752 0.500874
39 1 0.51005 0.849456 0.501426
7 1 0.634747 0.911321 0.495628
48 1 0.745073 0.867979 0.498787
67 1 0.812197 0.898261 0.508678
4 1 0.923496 0.919958 0.496034
77 1 0.032156 0.952431 0.499173
42 1 0.121572 0.965879 0.497304
8 1 0.225037 0.971365 0.497318
80 1 0.391732 0.859807 0.500109
28 1 0.362859 0.958686 0.505421
20 1 0.501554 0.995361 0.490889
74 1 0.440673 0.897724 0.496588
50 1 0.809552 0.978153 0.498824
62 1 0.730257 0.971965 0.502506
68 1 0.87194 0.0273411 0.499765
63 1 0.984534 0.0182871 0.504735
ITEM: TIMESTEP
3750