LAMMPS (23 Jun 2022 - Update 4)
  using 1 OpenMP thread(s) per MPI task
# Compute elastic constant tensor for a crystal
#
# Written by Aidan Thompson (Sandia, athomps@sandia.gov)
#
#  This script uses the following three include files.
#
#   init.mod      (must be modified for different crystal structures)
# 	       	  Define units, deformation parameters and initial
#		  configuration of the atoms and simulation cell.
#
#
#   potential.mod    (must be modified for different pair styles)
# 		     Define pair style and other attributes
#		     not stored in restart file
#
#
#   displace.mod    (displace.mod should not need to be modified)
# 		    Perform positive and negative box displacements
# 		    in direction ${dir} and size ${up}.
# 		    It uses the resultant changes
#		    in stress to compute one
# 		    row of the elastic stiffness tensor
#
#		    Inputs variables:
#		    	   dir = the Voigt deformation component
#		    		    (1,2,3,4,5,6)
#		    Global constants:
#       	    	   up = the deformation magnitude (strain units)
#       		   cfac = conversion from LAMMPS pressure units to
#               	   output units for elastic constants
#
#
#  To run this on a different system, it should only be necessary to
#  modify the files init.mod and potential.mod. In order to calculate
#  the elastic constants correctly, care must be taken to specify
#  the correct units in init.mod (units, cfac and cunits). It is also
#  important to verify that the minimization of energy w.r.t atom
#  positions in the deformed cell is fully converged.
#  One indication of this is that the elastic constants are insensitive
#  to the choice of the variable ${up} in init.mod. Another is to check
#  the final max and two-norm forces reported in the log file. If you know
#  that minimization is not required, you can set maxiter = 0.0 in
#  init.mod.
#



variable dt equal 0.01
variable strain equal 0.05
variable srate equal 1e-4
variable M equal 1000 # averaging time for properties
variable strainsteps equal ${strain}/${dt}/${srate}
variable strainsteps equal 0.05/${dt}/${srate}
variable strainsteps equal 0.05/0.01/${srate}
variable strainsteps equal 0.05/0.01/0.0001


dimension 2
include init.mod
# NOTE: This script can be modified for different atomic structures,
# units, etc. See in.elastic for more info.
#

# Define the finite deformation size. Try several values of this
# variable to verify that results do not depend on it.
variable up equal 1.0e-1

# Define the amount of random jiggle for atoms
# This prevents atoms from staying on saddle points
variable atomjiggle equal 1.0e-6

# Uncomment one of these blocks, depending on what units
# you are using in LAMMPS and for output

# metal units, elastic constants in eV/A^3
#units		metal
#variable cfac equal 6.2414e-7
#variable cunits string eV/A^3

# Choose potential
# metal units, elastic constants in GPa
units		metal
atom_style	full
#pair_style      lj/cut 1.0
#pair_style      yukawa 1.0 2.0
#pair_modify     mix arithmetic
bond_style      harmonic
angle_style     harmonic
dihedral_style  zero
special_bonds   amber
variable cfac equal 1.0e-4
variable cunits string GPa
boundary	p p p

# Need to set mass to something, just to satisfy LAMMPS
#mass 1 1.0e-20
read_data network.lmp
Reading data file ...
  orthogonal box = (-4.789809 -4.789809 -0.1) to (4.789809 4.789809 0.1)
  1 by 1 by 1 MPI processor grid
WARNING: Atom style in data file differs from currently defined atom style (src/read_data.cpp:538)
  reading atoms ...
  65 atoms
WARNING: Bond style in data file differs from currently defined bond style (src/read_data.cpp:630)
  scanning bonds ...
  5 = max bonds/atom
  reading bonds ...
  152 bonds
Finding 1-2 1-3 1-4 neighbors ...
  special bond factors lj:    0        0        0.5     
  special bond factors coul:  0        0        0.8333333333333334
    11 = max # of 1-2 neighbors
    52 = max # of 1-3 neighbors
   368 = max # of 1-4 neighbors
    35 = max # of special neighbors
  special bonds CPU = 0.000 seconds
  read_data CPU = 0.003 seconds

# real units, elastic constants in GPa
#units		real
#variable cfac equal 1.01325e-4
#variable cunits string GPa

# Define minimization parameters
variable etol equal 0.0
variable ftol equal 5.0e-10
variable maxiter equal 100000
variable maxeval equal 20000
variable dmax equal 1.0e-2


include potential.mod
# NOTE: This script can be modified for different pair styles
# See in.elastic for more info.

# Setup neighbor style
neighbor 3.0 nsq
neigh_modify once no every 1 delay 0 check yes
comm_modify cutoff 2.0

# Setup minimization style
min_style	     cg
min_modify	     dmax ${dmax} line quadratic
min_modify	     dmax 0.01 line quadratic

timestep	0.001


# Setup output
thermo		500
thermo_style custom step temp pe ebond eangle edihed press pxx pyy pzz pxy pxz pyz lx ly lz vol
thermo_modify norm no


#change_box all triclinic
comm_modify mode single cutoff 10.0 vel yes
atom_modify sort 0 0



# Compute initial state

#dump rela all atom 1 traj_relax.lmpstrj
fix 3 all box/relax x 0 y 0 # xy 0  #MS comment: relax if the network is periodic
minimize ${etol} ${ftol} ${maxiter} ${maxeval}
minimize 0 ${ftol} ${maxiter} ${maxeval}
minimize 0 5e-10 ${maxiter} ${maxeval}
minimize 0 5e-10 100000 ${maxeval}
minimize 0 5e-10 100000 20000
Neighbor list info ...
  update every 1 steps, delay 0 steps, check yes
  max neighbors/atom: 2000, page size: 100000
  master list distance cutoff = 0
  ghost atom cutoff = 10
  0 neighbor lists, perpetual/occasional/extra = 0 0 0
WARNING: Inconsistent image flags (src/domain.cpp:819)
Per MPI rank memory allocation (min/avg/max) = 9.158 | 9.158 | 9.158 Mbytes
   Step          Temp          PotEng         E_bond        E_angle        E_dihed         Press           Pxx            Pyy            Pzz            Pxy            Pxz            Pyz             Lx             Ly             Lz           Volume    
         0   0              3.5310468e-11  3.5310468e-11  0              0             -0.18383354    -0.1476254     -0.22004168     0              0.059895392    0              0              9.579618       9.579618       0.2            91.769081    
       467   0              1.0059182e-13  1.0059182e-13  0              0              3.021054e-07   4.0249857e-07  2.0171223e-07  0             -0.0036081102   0              0              9.5796163      9.5796188      0.2            91.769072    
Loop time of 0.0264833 on 1 procs for 467 steps with 65 atoms

100.0% CPU use with 1 MPI tasks x 1 OpenMP threads

Minimization stats:
  Stopping criterion = force tolerance
  Energy initial, next-to-last, final = 
    3.53104684799495e-11 1.00591865506155e-13 1.00591822570253e-13
  Force two-norm initial, final = 2.7006038e-05 4.637579e-10
  Force max component initial, final = 1.2603494e-05 1.3543967e-10
  Final line search alpha, max atom move = 1 1.3543967e-10
  Iterations, force evaluations = 467 934

MPI task timing breakdown:
Section |  min time  |  avg time  |  max time  |%varavg| %total
---------------------------------------------------------------
Pair    | 0          | 0          | 0          |   0.0 |  0.00
Bond    | 0.0038058  | 0.0038058  | 0.0038058  |   0.0 | 14.37
Neigh   | 0          | 0          | 0          |   0.0 |  0.00
Comm    | 0.0081786  | 0.0081786  | 0.0081786  |   0.0 | 30.88
Output  | 0          | 0          | 0          |   0.0 |  0.00
Modify  | 0          | 0          | 0          |   0.0 |  0.00
Other   |            | 0.0145     |            |       | 54.75

Nlocal:             65 ave          65 max          65 min
Histogram: 1 0 0 0 0 0 0 0 0 0
Nghost:            566 ave         566 max         566 min
Histogram: 1 0 0 0 0 0 0 0 0 0
Neighs:              0 ave           0 max           0 min
Histogram: 1 0 0 0 0 0 0 0 0 0

Total # of neighbors = 0
Ave neighs/atom = 0
Ave special neighs/atom = 25.261538
Neighbor list builds = 0
Dangerous builds = 0
#dump rela all atom 1 traj_relax.lmpstrj
thermo 100
unfix 3

fix 2d all enforce2d



#dump dump0 all xyz 1000000 cfg0.xyz
#dump_modify dump0 format line "%d %20.10g %20.10g %20.10g"
#minimize ${etol} ${ftol} ${maxiter} ${maxeval}

#undump rela

#write_restart restart.equil

# These formulas define the derivatives w.r.t. strain components
# Constants uses $, variables use v_


timestep        ${dt}
timestep        0.01
variable nsteps equal round(${strainsteps})
variable nsteps equal round(50000)

fix             4 all nve
fix             5 all langevin 0.1 0.1 1 904297
#fix		6 all press/berendsen y  0.0 0.0 1 x 0.0 0.0 10
fix             6 all nph y 0.0 0.0 10 ptemp 0.1 # x 0.0 0.0 10

# For PLUMED2
# fix 22 all plumed plumedfile plumed.dat outfile plumed.out

#fix             6 all nph x 0.0 0.0 10
fix     	9 all deform 1 x erate -${srate} units box remap x
fix     	9 all deform 1 x erate -0.0001 units box remap x

#fix     8 all deform 1 xy erate ${srate} units box remap x



#fix    10 all ave/time

dump 1 all atom 250 deform_dump.lammpstrj


#To avoid flying ice cube phenomenon:
#fix 21 all momentum 100 linear 1 1 1 angular


run  ${nsteps}
run  50000
WARNING: One or more atoms are time integrated more than once (src/modify.cpp:292)
WARNING: Inconsistent image flags (src/domain.cpp:819)
Per MPI rank memory allocation (min/avg/max) = 8.033 | 8.033 | 8.033 Mbytes
   Step          Temp          PotEng         E_bond        E_angle        E_dihed         Press           Pxx            Pyy            Pzz            Pxy            Pxz            Pyz             Lx             Ly             Lz           Volume    
       467   0              1.0059182e-13  1.0059182e-13  0              0              3.021054e-07   4.0249857e-07  2.0171223e-07  0             -0.0036081102   0              0              9.5796163      9.5796188      0.2            91.769072    
       500   0.097142499    0.00032737524  0.00032737524  0              0              124.5163       273.08692     -24.260965      0              19.726612      0              0              9.5793002      9.5810778      0.2            91.78002     
       600   0.23317638     0.00075867109  0.00075867109  0              0              21.3397        24.636228      17.837023      0              151.73631      0              0              9.5783422      9.5843181      0.2            91.801878    
       700   0.18448868     0.0011113207   0.0011113207   0              0              73.752272      288.40692     -141.05925      0             -245.01257      0              0              9.5773842      9.5835043      0.2            91.784903    
       800   0.21016355     0.0011578032   0.0011578032   0              0              468.1498       649.90072      286.17804      0             -687.01981      0              0              9.5764263      9.5820017      0.2            91.761333    
       900   0.18599731     0.00095537059  0.00095537059  0              0              117.61919      436.21559     -201.16791      0             -490.61189      0              0              9.5754683      9.5859934      0.2            91.790376    
      1000   0.18265329     0.0011233311   0.0011233311   0              0              380.15459      735.35436      24.767012      0             -523.76515      0              0              9.5745103      9.5837417      0.2            91.759634    
      1100   0.21979961     0.0010097461   0.0010097461   0              0              322.30234      742.00639     -97.607528      0             -475.8384       0              0              9.5735524      9.5779943      0.2            91.69543     
      1200   0.23875762     0.0013137998   0.0013137998   0              0              61.489066      3.061019       119.72415      0             -501.32088      0              0              9.5725944      9.5854662      0.2            91.75778     
      1300   0.20422713     0.0011021115   0.0011021115   0              0             -285.88624     -535.08415     -36.864889      0             -316.11713      0              0              9.5716365      9.5796917      0.2            91.693326    
      1400   0.22638022     0.0012778164   0.0012778164   0              0             -95.712306     -174.22554     -17.396893      0             -391.17186      0              0              9.5706785      9.5870296      0.2            91.754378    
      1500   0.19663412     0.0013424011   0.0013424011   0              0             -434.44268     -890.86536      21.765911      0             -227.39655      0              0              9.5697205      9.5845054      0.2            91.721038    
      1600   0.19803879     0.0011933277   0.0011933277   0              0             -70.834152      34.257143     -176.11583      0              216.91707      0              0              9.5687626      9.5888425      0.2            91.753357    
      1700   0.1989902      0.0009505646   0.0009505646   0              0              419.6012       509.64723      329.39468      0             -149.43602      0              0              9.5678046      9.5900157      0.2            91.755397    
      1800   0.23044553     0.0011353454   0.0011353454   0              0             -150.4624       249.7997      -550.91499      0             -63.70106       0              0              9.5668467      9.5972599      0.2            91.815513    
      1900   0.15705325     0.0012181152   0.0012181152   0              0              644.28821      585.53049      702.84528      0             -286.89656      0              0              9.5658887      9.5860849      0.2            91.699422    
      2000   0.1829653      0.0013801194   0.0013801194   0              0             -738.86773     -636.41143     -841.49969      0             -715.70435      0              0              9.5649307      9.5948464      0.2            91.774041    
      2100   0.18786401     0.0011883943   0.0011883943   0              0              932.88807      900.87656      964.69436      0             -456.51063      0              0              9.5639728      9.5831329      0.2            91.652822    
      2200   0.18988861     0.0011021786   0.0011021786   0              0              67.700418      1049.3012     -914.10881      0              77.703093      0              0              9.5630148      9.5952369      0.2            91.759393    
      2300   0.1668798      0.0012230567   0.0012230567   0              0              849.93919      884.90272      814.77399      0             -193.49209      0              0              9.5620568      9.5769026      0.2            91.574887    
      2400   0.18340502     0.00087509657  0.00087509657  0              0              189.32573      925.02383     -546.57383      0             -176.92623      0              0              9.5610989      9.5895866      0.2            91.686986    
      2500   0.22593242     0.00085002136  0.00085002136  0              0              391.72795      504.07608      279.15328      0             -210.27226      0              0              9.5601409      9.5913362      0.2            91.694526    
      2600   0.197857       0.0011682187   0.0011682187   0              0             -252.43168     -440.40431     -64.614956      0             -387.59238      0              0              9.559183       9.5978568      0.2            91.747669    
      2700   0.20675149     0.00095323445  0.00095323445  0              0             -393.29594     -655.9623      -130.83645      0             -15.820298      0              0              9.558225       9.6042129      0.2            91.799228    
      2800   0.18940564     0.00099736254  0.00099736254  0              0              578.39039      747.2619       409.33133      0             -362.9951       0              0              9.557267       9.5992022      0.2            91.742139    
      2900   0.23399905     0.0011086426   0.0011086426   0              0             -715.04612     -869.93399     -560.36514      0             -758.95815      0              0              9.5563091      9.6036011      0.2            91.77498     
      3000   0.23189985     0.0013311261   0.0013311261   0              0              564.15962      464.9816       663.14223      0             -186.48331      0              0              9.5553511      9.5945878      0.2            91.679655    
      3100   0.19523359     0.0012795058   0.0012795058   0              0             -296.5398       192.05022     -785.31302      0             -302.70103      0              0              9.5543932      9.6024951      0.2            91.746013    
      3200   0.24855397     0.0011435742   0.0011435742   0              0              672.74039      528.23545      817.0212       0              421.72187      0              0              9.5534352      9.5964541      0.2            91.679102    
      3300   0.17339103     0.0013203453   0.0013203453   0              0             -617.53345     -355.89511     -879.37771      0             -471.61522      0              0              9.5524772      9.6032352      0.2            91.734685    
      3400   0.21286358     0.001164959    0.001164959    0              0              464.09419      2.2453313      925.72429      0             -372.90457      0              0              9.5515193      9.5924194      0.2            91.622178    
      3500   0.19039912     0.0013571786   0.0013571786   0              0             -45.054332      820.54506     -910.8566       0              132.41065      0              0              9.5505613      9.6082591      0.2            91.764268    
      3600   0.17658278     0.0011764203   0.0011764203   0              0              970.64864      1043.2624      897.83284      0              335.46197      0              0              9.5496033      9.6039156      0.2            91.713584    
      3700   0.21411386     0.0012894067   0.0012894067   0              0             -345.12673      23.775156     -714.21843      0              514.32877      0              0              9.5486454      9.5997076      0.2            91.664204    
      3800   0.23036857     0.0012559366   0.0012559366   0              0              742.68893      882.12701      603.08821      0             -84.396196      0              0              9.5476874      9.5994136      0.2            91.652201    
      3900   0.17417079     0.0013286494   0.0013286494   0              0              202.7244       864.43632     -459.20533      0             -50.296946      0              0              9.5467295      9.5974696      0.2            91.624446    
      4000   0.25911862     0.0012688488   0.0012688488   0              0              615.07388      940.77563      289.1818       0             -400.93723      0              0              9.5457715      9.5955789      0.2            91.597203    
      4100   0.21898363     0.0011499766   0.0011499766   0              0              858.69724      1836.52       -119.31944      0             -308.44433      0              0              9.5448135      9.597352       0.2            91.604935    
      4200   0.23187432     0.001194015    0.001194015    0              0              855.46213      1767.5337     -56.789057      0             -420.5281       0              0              9.5438556      9.5967781      0.2            91.590264    
      4300   0.24040507     0.0012972236   0.0012972236   0              0              829.35496      1474.4816      183.99897      0              338.26355      0              0              9.5428976      9.6007908      0.2            91.619363    
      4400   0.18960924     0.0012752373   0.0012752373   0              0              709.43149      1748.9657     -330.29632      0             -348.42301      0              0              9.5419397      9.6164686      0.2            91.759763    
      4500   0.22757298     0.0012580404   0.0012580404   0              0              1234.7185      2161.4859      307.74046      0             -6.3967741      0              0              9.5409817      9.6097566      0.2            91.686512    
      4600   0.22176334     0.0014914004   0.0014914004   0              0              570.97513      1505.9316     -364.18879      0             -60.576578      0              0              9.5400237      9.6170272      0.2            91.746667    
      4700   0.16154553     0.0016754607   0.0016754607   0              0              206.43893     -26.126618      438.81227      0             -39.325674      0              0              9.5390658      9.6157581      0.2            91.725349    
      4800   0.19866781     0.0012533895   0.0012533895   0              0              478.01015      1477.1431     -521.31547      0             -309.08904      0              0              9.5381078      9.6147455      0.2            91.706479    
      4900   0.19793178     0.0012921189   0.0012921189   0              0              1597.4444      2598.3415      596.32239      0              124.38558      0              0              9.5371498      9.609379       0.2            91.646087    
      5000   0.21075627     0.0011828516   0.0011828516   0              0              21.234006      622.50801     -580.27686      0             -269.12081      0              0              9.5361919      9.6109243      0.2            91.651619    
      5100   0.1732575      0.0010225669   0.0010225669   0              0              1433.9637      2155.7357      711.99842      0              276.85523      0              0              9.5352339      9.6072857      0.2            91.607717    
      5200   0.20641473     0.0010790361   0.0010790361   0              0              251.73979      1216.4841     -713.24076      0             -505.94221      0              0              9.534276       9.6191328      0.2            91.711466    
      5300   0.19838859     0.0014315807   0.0014315807   0              0              1985.2195      3285.0774      685.15607      0             -652.59265      0              0              9.533318       9.6093388      0.2            91.608883    
      5400   0.18847127     0.0013892114   0.0013892114   0              0              756.28893      2265.0201     -752.66551      0              49.486534      0              0              9.53236        9.611171       0.2            91.617142    
      5500   0.21028392     0.0012767637   0.0012767637   0              0              1942.961       3044.6943      841.04874      0             -1.1871217      0              0              9.5314021      9.6023053      0.2            91.523432    
      5600   0.21296289     0.0016298792   0.0016298792   0              0              194.33784      1327.0751     -938.57775      0              80.321952      0              0              9.5304441      9.6134167      0.2            91.620131    
      5700   0.19984677     0.0015410659   0.0015410659   0              0              1597.1728      2289.7661      904.36085      0              420.27552      0              0              9.5294862      9.6066951      0.2            91.546868    
      5800   0.21230098     0.0013223218   0.0013223218   0              0              485.2842       1851.5683     -881.20653      0             -468.78765      0              0              9.5285282      9.6179286      0.2            91.644704    
      5900   0.20882158     0.001471342    0.001471342    0              0              1696.1186      2488.0291      904.01308      0              132.44132      0              0              9.5275702      9.6082527      0.2            91.543303    
      6000   0.20229082     0.0013473177   0.0013473177   0              0              734.04325      2386.9688     -919.05629      0              111.81449      0              0              9.5266123      9.6241553      0.2            91.685596    
      6100   0.23526387     0.0012460789   0.0012460789   0              0              1926.3691      3033.5262      819.01535      0             -324.61543      0              0              9.5256543      9.618044       0.2            91.618162    
      6200   0.22310837     0.0012976235   0.0012976235   0              0              247.76179      1250.5115     -755.14123      0             -513.99078      0              0              9.5246963      9.6181344      0.2            91.60981     
      6300   0.18450639     0.0013989996   0.0013989996   0              0              1818.8474      2954.1743      683.30651      0             -240.45679      0              0              9.5237384      9.6083435      0.2            91.50735     
      6400   0.21004028     0.0011525519   0.0011525519   0              0              743.3376       2127.7585     -641.25523      0             -262.01435      0              0              9.5227804      9.6139401      0.2            91.551441    
      6500   0.16629547     0.001570662    0.001570662    0              0              1464.4976      2300.004       628.80659      0             -159.3435       0              0              9.5218225      9.6124977      0.2            91.528496    
      6600   0.1721221      0.0015023557   0.0015023557   0              0              531.6409       1538.731      -475.65848      0             -522.1241       0              0              9.5208645      9.6168429      0.2            91.560658    
      6700   0.17962711     0.001387622    0.001387622    0              0              1177.3239      2203.8153      150.66916      0             -593.66038      0              0              9.5199065      9.6116473      0.2            91.501984    
      6800   0.19692407     0.001384103    0.001384103    0              0              1138.8446      2181.5978      95.923557      0             -17.492126      0              0              9.5189486      9.6066912      0.2            91.445599    
      6900   0.19236813     0.0014410062   0.0014410062   0              0              880.76218      2121.9451     -360.63734      0              92.482228      0              0              9.5179906      9.6121598      0.2            91.488447    
      7000   0.22135326     0.001693208    0.001693208    0              0              618.59935      733.95151      503.0509       0             -122.78926      0              0              9.5170327      9.6091492      0.2            91.450586    
      7100   0.2153836      0.0015004766   0.0015004766   0              0              574.85658      1778.1458     -628.62535      0             -322.07519      0              0              9.5160747      9.6182857      0.2            91.528326    
      7200   0.20664712     0.0016615742   0.0016615742   0              0              1290.2552      1834.7687      745.52275      0             -430.63303      0              0              9.5151167      9.6110507      0.2            91.45027     
      7300   0.21502198     0.0016265452   0.0016265452   0              0              1027.8493      2921.207      -865.71031      0             -815.51109      0              0              9.5141588      9.6140892      0.2            91.469971    
      7400   0.22690916     0.0014442203   0.0014442203   0              0              1748.7044      2581.4394      915.75078      0             -155.36589      0              0              9.5132008      9.6135463      0.2            91.455596    
      7500   0.34484636     0.0015950765   0.0015950765   0              0              356.76885      1717.0055     -1003.6587      0             -858.25821      0              0              9.5122428      9.6209233      0.2            91.516559    
      7600   0.20306607     0.0014095199   0.0014095199   0              0              1810.6782      2480.3208      1140.8202      0             -430.19552      0              0              9.5112849      9.6071218      0.2            91.376073    
      7700   0.17977066     0.0014067457   0.0014067457   0              0              684.25073      2424.1096     -1055.7896      0              135.26695      0              0              9.5103269      9.6114735      0.2            91.408255    
      7800   0.22746493     0.0013726293   0.0013726293   0              0              1539.9285      2140.7719      938.87532      0             -166.86411      0              0              9.509369       9.6119744      0.2            91.403811    
      7900   0.21539923     0.001526012    0.001526012    0              0              214.55956      1289.7357     -860.81732      0             -378.79716      0              0              9.508411       9.6192815      0.2            91.464082    
      8000   0.16158169     0.001444606    0.001444606    0              0              1327.6385      1784.328       870.76943      0             -387.47815      0              0              9.507453       9.6107534      0.2            91.373786    
      8100   0.21080139     0.0013661379   0.0013661379   0              0              817.19688      2425.8795     -791.68929      0             -993.06608      0              0              9.5064951      9.6222934      0.2            91.474284    
      8200   0.22346784     0.0014229766   0.0014229766   0              0              2006.2021      3213.14        799.03168      0             -385.90072      0              0              9.5055371      9.6190429      0.2            91.434169    
      8300   0.17553461     0.0015412632   0.0015412632   0              0              1093.9847      2918.3549     -730.55541      0             -564.15469      0              0              9.5045791      9.6258852      0.2            91.489988    
      8400   0.19471482     0.0017600391   0.0017600391   0              0              1722.5003      2692.1796      752.59638      0             -88.892271      0              0              9.5036212      9.6109388      0.2            91.338721    
      8500   0.20543612     0.0016794824   0.0016794824   0              0              861.33274      2396.368      -673.90393      0              46.241445      0              0              9.5026632      9.6189966      0.2            91.406085    
      8600   0.21804792     0.0016362064   0.0016362064   0              0              1517.5146      2456.4099      578.41234      0             -259.95745      0              0              9.5017053      9.617614       0.2            91.383734    
      8700   0.19578815     0.0015963821   0.0015963821   0              0              964.96248      2410.8693     -481.13349      0             -235.75029      0              0              9.5007473      9.6245635      0.2            91.440545    
      8800   0.19144513     0.0014561902   0.0014561902   0              0              1372.6639      2188.0856      557.04666      0              185.71395      0              0              9.4997893      9.625727       0.2            91.442379    
      8900   0.21342249     0.0015839934   0.0015839934   0              0              1482.5021      3426.3097     -461.50923      0             -814.90776      0              0              9.4988314      9.6260353      0.2            91.436086    
      9000   0.20297287     0.0015576959   0.0015576959   0              0              1789.7047      3198.2721      380.95884      0             -294.48962      0              0              9.4978734      9.6257647      0.2            91.424294    
      9100   0.18579299     0.0016934576   0.0016934576   0              0              1950.4401      4181.8713     -281.18238      0              436.80672      0              0              9.4969155      9.6204162      0.2            91.36428     
      9200   0.16896247     0.0015457948   0.0015457948   0              0              1367.5356      2494.5885      240.26011      0              179.7619       0              0              9.4959575      9.6251719      0.2            91.400223    
      9300   0.19916216     0.0019018093   0.0019018093   0              0              1972.2718      4147.8225     -203.46798      0              30.60189       0              0              9.4949995      9.6308147      0.2            91.444581    
      9400   0.18463554     0.0016076462   0.0016076462   0              0              1721.7978      3219.8981      223.48867      0             -635.83506      0              0              9.4940416      9.6311584      0.2            91.438619    
      9500   0.18837807     0.0016648567   0.0016648567   0              0              1477.3229      3174.433      -219.99289      0              333.29481      0              0              9.4930836      9.6341986      0.2            91.458253    
      9600   0.2013458      0.0018504805   0.0018504805   0              0              1559.8159      2824.2658      295.16931      0              242.21916      0              0              9.4921256      9.6257846      0.2            91.369157    
      9700   0.22303185     0.0017871109   0.0017871109   0              0              1186.9267      2665.2585     -291.59175      0             -599.9872       0              0              9.4911677      9.6315048      0.2            91.414228    
      9800   0.23715875     0.0018330033   0.0018330033   0              0              1487.724       2682.8068      292.4895       0             -545.21253      0              0              9.4902097      9.6248253      0.2            91.341611    
      9900   0.19821937     0.0017465908   0.0017465908   0              0              955.95785      2261.2245     -349.51969      0             -577.54744      0              0              9.4892518      9.633067       0.2            91.410598    
     10000   0.19562923     0.0019203385   0.0019203385   0              0              1397.0176      2468.6625      325.17855      0             -464.89951      0              0              9.4882938      9.6213805      0.2            91.290485    
     10100   0.20013578     0.0018998036   0.0018998036   0              0              1048.2127      2517.4722     -421.22085      0             -166.56292      0              0              9.4873358      9.6211801      0.2            91.279367    
     10200   0.16254301     0.0021678316   0.0021678316   0              0              1169.8998      1978.2164      361.40463      0             -441.54621      0              0              9.4863779      9.6242984      0.2            91.299732    
     10300   0.15766312     0.0018419317   0.0018419317   0              0              1344.3277      2910.5667     -222.11097      0             -923.70875      0              0              9.4854199      9.6251184      0.2            91.29829     
     10400   0.19869132     0.0016697938   0.0016697938   0              0              828.02195      1544.4362      111.42397      0             -652.51651      0              0              9.484462       9.6305151      0.2            91.340254    
     10500   0.17762435     0.0018434853   0.0018434853   0              0              907.0484       1955.7512     -141.82686      0             -252.80449      0              0              9.483504       9.628663       0.2            91.313464    
     10600   0.1963741      0.001771824    0.001771824    0              0              853.66531      1501.4444      205.69442      0             -184.89611      0              0              9.482546       9.6354327      0.2            91.368434    
     10700   0.15601143     0.0019305908   0.0019305908   0              0              1173.0963      2548.4463     -202.45588      0             -442.70524      0              0              9.4815881      9.6317564      0.2            91.324346    
     10800   0.1844814      0.0017330414   0.0017330414   0              0              1496.4029      2835.8486      156.73237      0              60.985516      0              0              9.4806301      9.6304034      0.2            91.302293    
     10900   0.20275769     0.001777781    0.001777781    0              0              1354.0171      3030.2284     -322.3368       0             -394.88385      0              0              9.4796721      9.6409227      0.2            91.392787    
     11000   0.18622842     0.001831633    0.001831633    0              0              1282.8559      2256.1598      309.31302      0             -79.453295      0              0              9.4787142      9.638376       0.2            91.359411    
     11100   0.21024124     0.0020208358   0.0020208358   0              0              1131.4768      2575.491      -312.7182       0              377.81693      0              0              9.4777562      9.6381963      0.2            91.348475    
     11200   0.22475561     0.0020002545   0.0020002545   0              0              1318.0503      2392.7715      243.13772      0             -434.28251      0              0              9.4767983      9.6366821      0.2            91.324892    
     11300   0.18563158     0.0017399306   0.0017399306   0              0              1403.6916      3166.0039     -358.81468      0             -65.303437      0              0              9.4758403      9.6333761      0.2            91.284333    
     11400   0.17427137     0.0020653099   0.0020653099   0              0              2141.4535      3896.0666      386.66335      0             -496.44206      0              0              9.4748823      9.6277119      0.2            91.221438    
     11500   0.19743295     0.0019396254   0.0019396254   0              0              1381.962       3287.4223     -523.70484      0             -57.337062      0              0              9.4739244      9.6298599      0.2            91.232565    
     11600   0.24918483     0.0021983076   0.0021983076   0              0              1937.4534      3237.8602      636.84731      0              74.521004      0              0              9.4729664      9.622958       0.2            91.157958    
     11700   0.23093337     0.0020129605   0.0020129605   0              0              1014.1694      2859.6161     -831.51955      0              220.86063      0              0              9.4720085      9.6347868      0.2            91.260782    
     11800   0.23758749     0.0021110376   0.0021110376   0              0              2460.9603      4072.8941      848.84352      0             -38.784225      0              0              9.4710505      9.6324468      0.2            91.22939     
     11900   0.2051497      0.0023665857   0.0023665857   0              0              772.61285      2467.1071     -922.09115      0             -1137.3225      0              0              9.4700925      9.6464352      0.2            91.352634    
     12000   0.22009523     0.0021958674   0.0021958674   0              0              2062.4027      3012.8334      1111.765       0             -517.29524      0              0              9.4691346      9.6277465      0.2            91.166427    
     12100   0.18811432     0.001999199    0.001999199    0              0              600.87055      2541.095      -1339.5568      0             -1407.742       0              0              9.4681766      9.6408666      0.2            91.281428    
     12200   0.19210903     0.0019624132   0.0019624132   0              0              2608.1998      3811.0824      1405.1007      0             -922.59007      0              0              9.4672186      9.6259355      0.2            91.130836    
     12300   0.19799406     0.0019845055   0.0019845055   0              0              726.7819       2947.6999     -1494.2804      0              127.4074       0              0              9.4662607      9.6442126      0.2            91.29463     
     12400   0.1871013      0.001889016    0.001889016    0              0              2507.6919      3551.2972      1463.9062      0             -313.97828      0              0              9.4653027      9.6293043      0.2            91.14428     
     12500   0.17858118     0.0021029087   0.0021029087   0              0              555.386        2521.5079     -1410.9312      0             -322.51348      0              0              9.4643448      9.6392066      0.2            91.228775    
     12600   0.21989975     0.0022188575   0.0022188575   0              0              2792.7995      4274.1539      1311.2928      0             -868.6957       0              0              9.4633868      9.632772       0.2            91.158648    
     12700   0.22468406     0.0021367719   0.0021367719   0              0              533.98536      2382.5751     -1314.8158      0             -683.99264      0              0              9.4624288      9.6452406      0.2            91.267402    
     12800   0.22211033     0.0020561874   0.0020561874   0              0              2512.5016      3740.3652      1284.3987      0             -382.99559      0              0              9.4614709      9.6373411      0.2            91.183423    
     12900   0.19503942     0.0020427244   0.0020427244   0              0              942.79552      3040.4964     -1155.1213      0             -784.98642      0              0              9.4605129      9.6570704      0.2            91.360839    
     13000   0.15818564     0.0019881218   0.0019881218   0              0              2328.685       3660.8065      996.36477      0             -513.91719      0              0              9.459555       9.6417592      0.2            91.206751    
     13100   0.20635706     0.0021732293   0.0021732293   0              0              1228.5799      3397.4523     -940.46197      0             -804.08205      0              0              9.458597       9.6551969      0.2            91.324617    
     13200   0.22839868     0.0023575537   0.0023575537   0              0              2343.9776      3906.1472      781.5917       0             -1600.4343      0              0              9.457639       9.6449817      0.2            91.218755    
     13300   0.19513603     0.0020314298   0.0020314298   0              0              1277.077       3225.1304     -671.14325      0             -787.40336      0              0              9.4566811      9.6541093      0.2            91.295833    
     13400   0.18469895     0.0020696094   0.0020696094   0              0              1712.5339      3037.6906      387.14941      0             -529.90209      0              0              9.4557231      9.6512231      0.2            91.259293    
     13500   0.23621076     0.002049327    0.002049327    0              0              1927.267       3968.984      -114.64082      0             -905.68587      0              0              9.4547651      9.6547337      0.2            91.28324     
     13600   0.18714498     0.0023124064   0.0023124064   0              0              2206.7384      4431.4971     -18.241619      0             -354.3848       0              0              9.4538072      9.6557589      0.2            91.283683    
     13700   0.26253882     0.0022115606   0.0022115606   0              0              1656.1145      3132.9878      179.03943      0             -898.61222      0              0              9.4528492      9.6551752      0.2            91.268915    
     13800   0.21557651     0.002367473    0.002367473    0              0              1439.0457      3301.5113     -423.63065      0             -925.61711      0              0              9.4518913      9.6587808      0.2            91.293746    
     13900   0.19243289     0.0021451825   0.0021451825   0              0              1810.0559      3200.8322      419.0888       0             -736.94492      0              0              9.4509333      9.6568908      0.2            91.266631    
     14000   0.19071306     0.0021758435   0.0021758435   0              0              924.79945      2287.9879     -438.58329      0             -277.43505      0              0              9.4499753      9.6635696      0.2            91.320494    
     14100   0.21513072     0.0022709271   0.0022709271   0              0              2062.9919      3629.1698      496.60073      0             -293.27171      0              0              9.4490174      9.6599119      0.2            91.276676    
     14200   0.20588077     0.0021094959   0.0021094959   0              0              1493.5112      3499.0768     -512.26508      0             -553.54583      0              0              9.4480594      9.6608223      0.2            91.276023    
     14300   0.18953939     0.0021478978   0.0021478978   0              0              1804.108       3136.4031      471.62076      0             -644.08249      0              0              9.4471015      9.6571841      0.2            91.232398    
     14400   0.17781812     0.0023093473   0.0023093473   0              0              1877.1805      4214.2002     -460.04103      0             -168.31696      0              0              9.4461435      9.666325       0.2            91.309493    
     14500   0.22297102     0.0021990748   0.0021990748   0              0              2158.7677      3889.6869      427.6733       0             -738.08354      0              0              9.4451855      9.6704541      0.2            91.339233    
     14600   0.19931009     0.002310938    0.002310938    0              0              1871.2886      4163.8253     -421.42495      0             -292.40812      0              0              9.4442276      9.6686538      0.2            91.312966    
     14700   0.21971299     0.0022682129   0.0022682129   0              0              2076.9979      3855.3024      298.48551      0              12.588068      0              0              9.4432696      9.6663583      0.2            91.282028    
     14800   0.21813153     0.0025723931   0.0025723931   0              0              2419.5889      5066.0711     -227.13973      0             -219.53739      0              0              9.4423116      9.664238       0.2            91.252747    
     14900   0.30329144     0.0025559264   0.0025559264   0              0              1724.6883      3282.0594      167.10596      0             -59.379509      0              0              9.4413537      9.6624272      0.2            91.226393    
     15000   0.25280343     0.0025165237   0.0025165237   0              0              1797.0911      3528.066       65.917044      0             -216.10857      0              0              9.4403957      9.6659998      0.2            91.250864    
     15100   0.20617964     0.0021905222   0.0021905222   0              0              1732.4727      3594.9696     -130.23232      0             -530.55829      0              0              9.4394378      9.676093       0.2            91.336878    
     15200   0.21925872     0.0022596044   0.0022596044   0              0              2172.7411      4247.8116      97.46818       0              9.2038388      0              0              9.4384798      9.674305       0.2            91.310732    
     15300   0.23204361     0.0021604469   0.0021604469   0              0              1479.1914      2996.755      -38.559962      0             -233.24427      0              0              9.4375218      9.6755109      0.2            91.312845    
     15400   0.22839787     0.0023101404   0.0023101404   0              0              1917.5538      3678.4697      156.44037      0             -328.27564      0              0              9.4365639      9.6785296      0.2            91.332063    
     15500   0.21538053     0.0025569347   0.0025569347   0              0              1481.42        3232.1186     -269.43131      0             -677.28002      0              0              9.4356059      9.6780575      0.2            91.318337    
     15600   0.19337628     0.0024717011   0.0024717011   0              0              1880.11        3370.7839      389.24084      0             -367.72443      0              0              9.434648       9.6727319      0.2            91.25882     
     15700   0.21697105     0.0027255246   0.0027255246   0              0              2041.4347      4376.3459     -293.68433      0             -705.08699      0              0              9.43369        9.6819188      0.2            91.33622     
     15800   0.22858515     0.0023976188   0.0023976188   0              0              1936.6997      3700.9516      172.23055      0             -246.12687      0              0              9.432732       9.674267       0.2            91.254768    
     15900   0.23393252     0.00232733     0.00232733     0              0              1647.5174      3499.5157     -204.65306      0             -373.95879      0              0              9.4317741      9.676528       0.2            91.266826    
     16000   0.2759902      0.0023603728   0.0023603728   0              0              1528.0987      3024.6526      31.326978      0             -944.50884      0              0              9.4308161      9.673917       0.2            91.232932    
     16100   0.18191567     0.0023572692   0.0023572692   0              0              1166.0508      2346.6583     -14.757919      0             -249.60113      0              0              9.4298581      9.679937       0.2            91.280433    
     16200   0.19494271     0.0025182181   0.0025182181   0              0              1362.07        2685.6881      38.249548      0              161.39875      0              0              9.4289002      9.6831915      0.2            91.301846    
     16300   0.22317231     0.0023130796   0.0023130796   0              0              1833.5535      3520.3091      146.57713      0             -55.241234      0              0              9.4279422      9.6830516      0.2            91.291251    
     16400   0.16144964     0.0025332023   0.0025332023   0              0              2132.7783      4491.9208     -226.58123      0             -317.12269      0              0              9.4269843      9.6768717      0.2            91.223717    
     16500   0.18515562     0.0027449501   0.0027449501   0              0              2638.5643      4823.2567      453.65853      0             -184.40802      0              0              9.4260263      9.6799006      0.2            91.242998    
     16600   0.21477916     0.0025131781   0.0025131781   0              0              1512.4884      3716.7418     -691.99858      0             -149.61024      0              0              9.4250683      9.6865575      0.2            91.296467    
     16700   0.19060954     0.002454838    0.002454838    0              0              1997.0652      3196.6736      797.21663      0             -520.05349      0              0              9.4241104      9.6830698      0.2            91.254319    
     16800   0.1993366      0.0025924215   0.0025924215   0              0              609.50767      1950.1988     -731.37726      0             -636.59571      0              0              9.4231524      9.6943663      0.2            91.351491    
     16900   0.19346811     0.0024212011   0.0024212011   0              0              1659.0009      2712.3739      605.43323      0              66.866511      0              0              9.4221944      9.6912904      0.2            91.313223    
     17000   0.24803083     0.0023708352   0.0023708352   0              0              1204.4027      2915.356      -506.7688       0             -0.57863289     0              0              9.4212365      9.6916169      0.2            91.307015    
     17100   0.26002813     0.0026970723   0.0026970723   0              0              2662.1889      4964.9998      359.17755      0              519.62409      0              0              9.4202785      9.6836503      0.2            91.222683    
     17200   0.17976626     0.0025141193   0.0025141193   0              0              1308.3122      2825.884      -209.44405      0             -45.917419      0              0              9.4193206      9.6883197      0.2            91.257389    
     17300   0.20880358     0.0025383985   0.0025383985   0              0              1561.2451      3231.6187     -109.3178       0             -47.74485       0              0              9.4183626      9.6861645      0.2            91.22781     
     17400   0.17651493     0.0025446745   0.0025446745   0              0              1790.3987      3116.1629      464.41595      0             -367.62083      0              0              9.4174046      9.6902538      0.2            91.257041    
     17500   0.2190058      0.0025597449   0.0025597449   0              0              773.42703      2335.416      -788.78425      0             -661.22473      0              0              9.4164467      9.6912437      0.2            91.25708     
     17600   0.20488817     0.0028033456   0.0028033456   0              0              2229.8768      3525.3946      934.13255      0             -791.27246      0              0              9.4154887      9.6879288      0.2            91.216585    
     17700   0.24871608     0.0025488615   0.0025488615   0              0              880.33522      2759.4798     -999.01293      0             -1122.994       0              0              9.4145308      9.6933816      0.2            91.258639    
     17800   0.27928929     0.0026385978   0.0026385978   0              0              1656.8426      2304.4092      1009.0565      0             -90.07703       0              0              9.4135728      9.6852121      0.2            91.172449    
     17900   0.20616658     0.0027255802   0.0027255802   0              0              1029.8364      2818.9972     -759.5363       0             -667.4118       0              0              9.4126148      9.6818614      0.2            91.131632    
     18000   0.21062471     0.002511214    0.002511214    0              0              1604.2379      2712.2801      495.9811       0             -782.59852      0              0              9.4116569      9.6838115      0.2            91.140712    
     18100   0.19083021     0.0025561699   0.0025561699   0              0              1271.2369      2895.5735     -353.28207      0             -524.66324      0              0              9.4106989      9.6914417      0.2            91.20324     
     18200   0.1873716      0.0022600651   0.0022600651   0              0              1381.8457      2741.1863      22.319815      0             -541.74915      0              0              9.4097409      9.6835602      0.2            91.119793    
     18300   0.18097542     0.0024172851   0.0024172851   0              0              1259.0801      2097.9033      420.04424      0             -115.14706      0              0              9.408783       9.6738876      0.2            91.019509    
     18400   0.24696475     0.0023040731   0.0023040731   0              0              1094.6386      2859.8664     -670.76527      0             -642.68508      0              0              9.407825       9.684032       0.2            91.105679    
     18500   0.21498843     0.0026427696   0.0026427696   0              0              2094.4065      3421.1744      767.4456       0             -826.25504      0              0              9.4068671      9.680556       0.2            91.063703    
     18600   0.21942444     0.0026211222   0.0026211222   0              0              971.53326      2878.3032     -935.45537      0             -355.66702      0              0              9.4059091      9.6926493      0.2            91.168178    
     18700   0.1908642      0.0024786107   0.0024786107   0              0              2380.9866      3837.3743      924.44958      0             -395.93773      0              0              9.4049511      9.6885223      0.2            91.120079    
     18800   0.2124969      0.0024791079   0.0024791079   0              0              1027.2435      2987.2612     -932.98008      0             -627.30376      0              0              9.4039932      9.6986936      0.2            91.206448    
     18900   0.19904281     0.0025465045   0.0025465045   0              0              2158.8485      3499.519       817.99192      0             -713.90906      0              0              9.4030352      9.694106       0.2            91.15402     
     19000   0.21493038     0.0025612609   0.0025612609   0              0              831.30559      2279.2286     -616.82229      0             -626.04819      0              0              9.4020773      9.699259       0.2            91.193183    
     19100   0.18833236     0.0023989453   0.0023989453   0              0              2144.0989      3784.1082      503.86679      0             -395.43489      0              0              9.4011193      9.7009742      0.2            91.200016    
     19200   0.22955807     0.0024155974   0.0024155974   0              0              1248.0935      2605.677      -109.67853      0             -509.98061      0              0              9.4001613      9.7004626      0.2            91.185913    
     19300   0.22203611     0.0026302444   0.0026302444   0              0              1625.9638      3423.1733     -171.42872      0             -790.04493      0              0              9.3992034      9.6930705      0.2            91.107141    
     19400   0.2010328      0.0025244668   0.0025244668   0              0              1325.1144      2129.8684      520.1182       0             -224.7747       0              0              9.3982454      9.6925147      0.2            91.092632    
     19500   0.1921807      0.0026118429   0.0026118429   0              0              1554.7027      3828.3792     -719.17773      0             -854.4044       0              0              9.3972874      9.6961535      0.2            91.117541    
     19600   0.20363821     0.0026335364   0.0026335364   0              0              2375.5663      3833.0741      917.87314      0             -857.73971      0              0              9.3963295      9.6879567      0.2            91.031233    
     19700   0.20080348     0.0025554276   0.0025554276   0              0              1220.5715      3418.1022     -977.14332      0             -128.66576      0              0              9.3953715      9.6974541      0.2            91.111184    
     19800   0.18670898     0.0027693348   0.0027693348   0              0              2565.4055      4257.6652      872.97911      0             -433.7164       0              0              9.3944136      9.6921605      0.2            91.052164    
     19900   0.18015937     0.0026781986   0.0026781986   0              0              1173.5105      3007.6013     -660.80153      0             -441.25018      0              0              9.3934556      9.6927395      0.2            91.048318    
     20000   0.24163737     0.0026598076   0.0026598076   0              0              2330.8162      4197.1503      464.26009      0             -795.79576      0              0              9.3924976      9.6908102      0.2            91.020911    
     20100   0.18366398     0.0026480648   0.0026480648   0              0              2030.3199      4167.4282     -106.95538      0              273.92422      0              0              9.3915397      9.6926283      0.2            91.028704    
     20200   0.23574073     0.0027587315   0.0027587315   0              0              1266.5689      2812.2123     -279.23255      0              174.59414      0              0              9.3905817      9.6984931      0.2            91.074492    
     20300   0.24420178     0.0026897921   0.0026897921   0              0              1383.334       2339.3055      427.16319      0             -278.19031      0              0              9.3896238      9.6986689      0.2            91.066852    
     20400   0.18999797     0.002734773    0.002734773    0              0              1201.4385      2971.3058     -568.64112      0             -379.30698      0              0              9.3886658      9.704205       0.2            91.109538    
     20500   0.19932502     0.0026550613   0.0026550613   0              0              2011.3185      3298.717       723.70723      0             -98.800386      0              0              9.3877078      9.6952687      0.2            91.01635     
     20600   0.21883517     0.0027780126   0.0027780126   0              0              1159.5896      3028.1021     -709.12812      0              87.698677      0              0              9.3867499      9.7029013      0.2            91.078707    
     20700   0.26471757     0.0029888702   0.0029888702   0              0              2520.6408      4351.1361      689.93561      0             -72.358245      0              0              9.3857919      9.6918757      0.2            90.965928    
     20800   0.1892555      0.0028351723   0.0028351723   0              0              1142.1845      2829.1772     -545.03019      0             -249.75982      0              0              9.3848339      9.7086577      0.2            91.11414     
     20900   0.24274784     0.0025783364   0.0025783364   0              0              1620.3277      2795.6306      444.82694      0             -416.50758      0              0              9.383876       9.7055553      0.2            91.075727    
     21000   0.18461965     0.0028187053   0.0028187053   0              0              1786.9212      3815.5456     -241.90467      0             -220.46966      0              0              9.382918       9.7062476      0.2            91.072925    
     21100   0.21701908     0.0023340444   0.0023340444   0              0              1601.1407      3154.6         47.468036      0             -337.80023      0              0              9.3819601      9.7064537      0.2            91.065561    
     21200   0.23072648     0.00258622     0.00258622     0              0              1852.1101      3557.5446      146.48056      0              223.343        0              0              9.3810021      9.7056611      0.2            91.048827    
     21300   0.27878086     0.0026520552   0.0026520552   0              0              1012.8766      2323.5922     -298.06622      0              75.458789      0              0              9.3800441      9.7084418      0.2            91.065613    
     21400   0.2988278      0.0025480446   0.0025480446   0              0              1387.2951      2406.0583      368.32446      0             -799.27046      0              0              9.3790862      9.7064033      0.2            91.037193    
     21500   0.17866608     0.0027147232   0.0027147232   0              0              1196.4785      2703.5952     -310.82265      0             -411.48016      0              0              9.3781282      9.7056237      0.2            91.020583    
     21600   0.20991436     0.0024983433   0.0024983433   0              0              1853.0863      3392.16        313.82023      0             -285.15189      0              0              9.3771703      9.7065972      0.2            91.020415    
     21700   0.25909505     0.0026932673   0.0026932673   0              0              1913.8322      4005.237      -177.83106      0             -194.64762      0              0              9.3762123      9.7054924      0.2            91.000757    
     21800   0.24795167     0.0026248653   0.0026248653   0              0              1709.0143      3515.6742     -97.81049       0             -534.8402       0              0              9.3752543      9.7075069      0.2            91.010346    
     21900   0.2127996      0.0025186107   0.0025186107   0              0              1999.3596      3625.2145      373.32492      0             -622.94711      0              0              9.3742964      9.6961414      0.2            90.894503    
     22000   0.17609736     0.0027405901   0.0027405901   0              0              2015.6524      4471.9021     -440.82095      0             -323.83175      0              0              9.3733384      9.7059027      0.2            90.976711    
     22100   0.14836175     0.0028627123   0.0028627123   0              0              1824.255       3102.9286      545.38978      0             -641.65616      0              0              9.3723804      9.7078772      0.2            90.985919    
     22200   0.22019078     0.0026743954   0.0026743954   0              0              1135.5445      2788.8481     -517.96156      0             -655.77058      0              0              9.3714225      9.7051649      0.2            90.9512      
     22300   0.20758593     0.002866179    0.002866179    0              0              1147.2378      1876.0468      418.19495      0             -1204.3563      0              0              9.3704645      9.7112536      0.2            90.998958    
     22400   0.19988893     0.0029308996   0.0029308996   0              0              1583.8579      3393.2787     -225.76193      0             -1037.7879      0              0              9.3695066      9.7090177      0.2            90.968705    
     22500   0.19909531     0.0028834924   0.0028834924   0              0              1311.5411      2581.5818      41.324323      0             -1019.824       0              0              9.3685486      9.7093379      0.2            90.962404    
     22600   0.20656135     0.0030099343   0.0030099343   0              0              1106.5908      2113.5219      99.45336       0             -1030.1473      0              0              9.3675906      9.7021762      0.2            90.886015    
     22700   0.19896333     0.0027370788   0.0027370788   0              0              910.98498      2073.4299     -251.64373      0             -768.77968      0              0              9.3666327      9.7071153      0.2            90.922983    
     22800   0.18687183     0.0027331959   0.0027331959   0              0              761.14801      1293.6473      228.47241      0             -214.38248      0              0              9.3656747      9.707108       0.2            90.913616    
     22900   0.21563298     0.0024768837   0.0024768837   0              0              925.35937      2005.0602     -154.52651      0             -631.70539      0              0              9.3647168      9.7088756      0.2            90.92087     
     23000   0.21118988     0.0026126238   0.0026126238   0              0              1283.1231      2449.0246      117.01287      0             -229.25805      0              0              9.3637588      9.7016769      0.2            90.844162    
     23100   0.24034065     0.0025692077   0.0025692077   0              0              919.73922      1983.548      -144.25204      0             -624.71966      0              0              9.3628008      9.7071514      0.2            90.886125    
     23200   0.21962399     0.0028931882   0.0028931882   0              0              1370.5652      2595.3646      145.59473      0             -338.53368      0              0              9.3618429      9.7071757      0.2            90.877054    
     23300   0.24621221     0.0024982234   0.0024982234   0              0              1053.9017      2251.5003     -143.92326      0             -353.14008      0              0              9.3608849      9.7056211      0.2            90.853202    
     23400   0.2197096      0.0029682785   0.0029682785   0              0              1010.4498      1856.4574      164.22753      0             -422.57881      0              0              9.3599269      9.7095096      0.2            90.880301    
     23500   0.26653889     0.0028858951   0.0028858951   0              0              644.40357      1503.8529     -215.24895      0             -266.24228      0              0              9.358969       9.7100379      0.2            90.875944    
     23600   0.19409546     0.0027726732   0.0027726732   0              0              1087.148       1922.9369      251.13969      0              89.741975      0              0              9.358011       9.7028491      0.2            90.799369    
     23700   0.20808306     0.0029383917   0.0029383917   0              0              1175.0277      2369.4655     -19.617329      0             -394.26748      0              0              9.3570531      9.7060143      0.2            90.81969     
     23800   0.18352043     0.0029103728   0.0029103728   0              0              1823.8476      3726.9421     -79.456732      0             -194.95094      0              0              9.3560951      9.7000926      0.2            90.754989    
     23900   0.211171       0.0025096425   0.0025096425   0              0              1946.2777      3770.5414      121.83146      0             -666.48896      0              0              9.3551371      9.7048656      0.2            90.790349    
     24000   0.20237955     0.0026012647   0.0026012647   0              0              1384.4863      2890.2139     -121.46221      0             -199.23045      0              0              9.3541792      9.7068152      0.2            90.799289    
     24100   0.18625607     0.0029053053   0.0029053053   0              0              2118.56        4105.8479      131.10287      0             -661.77331      0              0              9.3532212      9.6991863      0.2            90.718635    
     24200   0.22842995     0.0028846706   0.0028846706   0              0              1361.013       3020.2369     -298.39479      0             -775.23853      0              0              9.3522633      9.7009541      0.2            90.725876    
     24300   0.18586452     0.0029127913   0.0029127913   0              0              1672.3476      3047.0719      297.40233      0             -564.39348      0              0              9.3513053      9.7013354      0.2            90.720149    
     24400   0.23138194     0.0026608376   0.0026608376   0              0              1294.0671      2751.4947     -163.52808      0             -776.08987      0              0              9.3503473      9.6991565      0.2            90.690482    
     24500   0.21151226     0.0027327276   0.0027327276   0              0              1225.645       2321.106       129.96108      0              254.97634      0              0              9.3493894      9.6948999      0.2            90.641394    
     24600   0.24523879     0.0027079955   0.0027079955   0              0              990.28211      2013.2722     -32.912786      0              88.812449      0              0              9.3484314      9.7050329      0.2            90.726834    
     24700   0.21642568     0.0025996925   0.0025996925   0              0              816.78055      1664.5169     -31.149381      0             -340.28469      0              0              9.3474734      9.6996054      0.2            90.666804    
     24800   0.19262231     0.0027921856   0.0027921856   0              0              1690.9919      3244.3822      137.39525      0             -209.0627       0              0              9.3465155      9.6964146      0.2            90.627689    
     24900   0.22430144     0.0026789331   0.0026789331   0              0              668.74333      1625.6764     -288.41377      0              841.17313      0              0              9.3455575      9.7002039      0.2            90.653814    
     25000   0.26971003     0.0026337577   0.0026337577   0              0              2047.3917      3709.7018      384.92857      0              231.64559      0              0              9.3445996      9.696609       0.2            90.610928    
     25100   0.20783988     0.0024654713   0.0024654713   0              0              950.26814      2186.1334     -285.81392      0             -250.58548      0              0              9.3436416      9.7010446      0.2            90.643084    
     25200   0.21335781     0.0026548085   0.0026548085   0              0              1222.8518      2195.0311      250.47757      0              248.53304      0              0              9.3426836      9.6934408      0.2            90.562751    
     25300   0.21462905     0.0027426764   0.0027426764   0              0              662.75382      1523.3328     -197.98427      0              123.99841      0              0              9.3417257      9.6981657      0.2            90.597603    
     25400   0.20156226     0.0026837487   0.0026837487   0              0              871.59718      1685.5004      57.516443      0              29.830417      0              0              9.3407677      9.6954654      0.2            90.56309     
     25500   0.20631514     0.0025192246   0.0025192246   0              0              1305.3898      2528.9295      81.619232      0             -298.5017       0              0              9.3398097      9.6945637      0.2            90.545381    
     25600   0.23778917     0.0026131836   0.0026131836   0              0              1071.7127      2387.6919     -244.44474      0              0.74331317     0              0              9.3388518      9.694412       0.2            90.534677    
     25700   0.20967942     0.0028847452   0.0028847452   0              0              1264.3912      1992.2761      536.31748      0             -902.19005      0              0              9.3378938      9.6960208      0.2            90.540412    
     25800   0.20449681     0.0025230999   0.0025230999   0              0              485.17953      1624.7896     -654.61216      0             -829.45746      0              0              9.3369359      9.7069702      0.2            90.633358    
     25900   0.20721114     0.0027502662   0.0027502662   0              0              785.04808      865.40038      704.51542      0             -181.10144      0              0              9.3359779      9.708533       0.2            90.638649    
     26000   0.20427131     0.0025070424   0.0025070424   0              0              482.07563      1694.217      -730.27272      0             -951.42453      0              0              9.3350199      9.7110072      0.2            90.652446    
     26100   0.15090438     0.0025692299   0.0025692299   0              0              1308.188       2061.5016      554.68659      0             -1071.4495      0              0              9.334062       9.6964051      0.2            90.506846    
     26200   0.17888721     0.0027106178   0.0027106178   0              0              1300.4211      2963.5171     -362.8602       0             -1779.3437      0              0              9.333104       9.706893       0.2            90.595442    
     26300   0.19744778     0.0026002421   0.0026002421   0              0              1021.6697      1912.6431      130.53488      0             -1062.7881      0              0              9.3321461      9.7047322      0.2            90.565978    
     26400   0.16850246     0.0027422635   0.0027422635   0              0              1517.9119      2958.4302      77.183358      0             -1261.7619      0              0              9.3311881      9.7003902      0.2            90.516166    
     26500   0.2115324      0.0024496257   0.0024496257   0              0              665.33224      1697.3854     -366.93165      0             -910.78631      0              0              9.3302301      9.7012055      0.2            90.51448     
     26600   0.16411547     0.0025788447   0.0025788447   0              0              1419.5329      2186.6029      652.30975      0             -1010.9558      0              0              9.3292722      9.7047888      0.2            90.538616    
     26700   0.21234782     0.0027227515   0.0027227515   0              0              595.58185      2076.728      -885.7586       0             -1176.034       0              0              9.3283142      9.7123817      0.2            90.600149    
     26800   0.20447843     0.0025806184   0.0025806184   0              0              1953.4842      2928.6599      978.0998       0             -973.13025      0              0              9.3273562      9.6975001      0.2            90.452038    
     26900   0.21308139     0.0028950434   0.0028950434   0              0              1329.5581      3648.609      -989.63378      0             -322.59027      0              0              9.3263983      9.6991322      0.2            90.45797     
     27000   0.20096946     0.0028935426   0.0028935426   0              0              2260.0645      3478.9847      1040.9175      0             -879.41567      0              0              9.3254403      9.6969136      0.2            90.427989    
     27100   0.21413514     0.002761551    0.002761551    0              0              599.23167      2054.6867     -856.43925      0             -521.94049      0              0              9.3244824      9.7090151      0.2            90.53154     
     27200   0.26524798     0.0027588583   0.0027588583   0              0              1989.5027      3443.7417      535.06899      0              98.967341      0              0              9.3235244      9.701371       0.2            90.45097     
     27300   0.26029093     0.0025933125   0.0025933125   0              0              811.41457      1701.4829     -78.844142      0             -1229.0932      0              0              9.3225664      9.7057521      0.2            90.482519    
     27400   0.20414324     0.0024945752   0.0024945752   0              0              940.21062      2355.2138     -475.00333      0             -1228.0632      0              0              9.3216085      9.712625       0.2            90.537287    
     27500   0.1568163      0.0028856032   0.0028856032   0              0              1876.297       2841.9672      910.40503      0             -1460.5573      0              0              9.3206505      9.7034422      0.2            90.442394    
     27600   0.22070839     0.002769078    0.002769078    0              0              1068.4117      3317.5142     -1180.8984      0             -986.44657      0              0              9.3196926      9.7101469      0.2            90.495584    
     27700   0.21396389     0.0028727276   0.0028727276   0              0              2676.6344      3971.0438      1382.0421      0             -1217.2331      0              0              9.3187346      9.6995436      0.2            90.387473    
     27800   0.23402335     0.0025427494   0.0025427494   0              0              14.26312       1397.2865     -1368.9617      0             -1000.3135      0              0              9.3177766      9.7125216      0.2            90.499106    
     27900   0.20387542     0.002611155    0.002611155    0              0              2058.41        2854.3233      1262.2753      0             -1183.4598      0              0              9.3168187      9.7013317      0.2            90.385549    
     28000   0.20932041     0.0026720341   0.0026720341   0              0              752.52683      2537.2186     -1032.3543      0             -1512.4483      0              0              9.3158607      9.7128547      0.2            90.483602    
     28100   0.21722157     0.0028233664   0.0028233664   0              0              848.81874      993.9066       703.56016      0             -886.1641       0              0              9.3149027      9.7047847      0.2            90.399126    
     28200   0.24149351     0.0023524153   0.0023524153   0              0              890.24413      2070.8083     -290.53829      0             -408.66522      0              0              9.3139448      9.7049417      0.2            90.391292    
[...]
     43200   0.22390156     0.0027623057   0.0027623057   0              0              708.96458      1128.3645      289.3822       0              478.5177       0              0              9.1702505      9.6519376      0.2            88.510686    
     43300   0.21913383     0.0025431777   0.0025431777   0              0              731.29383      1555.4725     -93.094184      0              53.189205      0              0              9.1692926      9.6537212      0.2            88.517794    
     43400   0.17512495     0.0028294924   0.0028294924   0              0             -260.78619     -268.94013     -252.79757      0              888.18017      0              0              9.1683346      9.6523198      0.2            88.495698    
     43500   0.21989874     0.0027542532   0.0027542532   0              0              415.32858      309.75476      520.686        0              399.95985      0              0              9.1673767      9.6449759      0.2            88.419127    
     43600   0.1948575      0.0025920843   0.0025920843   0              0              222.85054      1011.3859     -565.9106       0              247.7719       0              0              9.1664187      9.6500749      0.2            88.456627    
     43700   0.1974636      0.0028653202   0.0028653202   0              0              674.61923      673.37546      675.64753      0             -50.483126      0              0              9.1654607      9.6415338      0.2            88.369099    
     43800   0.17652026     0.002992566    0.002992566    0              0              325.72014      1404.7301     -753.47668      0             -206.51397      0              0              9.1645028      9.6485006      0.2            88.423711    
     43900   0.16806656     0.0027485156   0.0027485156   0              0              1319.8602      1860.108       779.40169      0             -430.43677      0              0              9.1635448      9.6415098      0.2            88.350407    
     44000   0.20213294     0.0029301894   0.0029301894   0              0              145.04637      1099.1768     -809.31218      0              706.58544      0              0              9.1625868      9.6499166      0.2            88.418199    
     44100   0.2055959      0.0030476871   0.0030476871   0              0              259.43443     -380.24197      898.89234      0              711.65418      0              0              9.1616289      9.6444237      0.2            88.358631    
     44200   0.20692305     0.0029057938   0.0029057938   0              0             -65.853696      687.9152      -819.78026      0             -7.1801956      0              0              9.1606709      9.6532046      0.2            88.429831    
     44300   0.16564975     0.0028570087   0.0028570087   0              0              738.18453      755.78464      720.36355      0              314.71669      0              0              9.159713       9.6473926      0.2            88.367347    
     44400   0.17388672     0.0029790332   0.0029790332   0              0              51.811529      661.93502     -558.51571      0             -138.52         0              0              9.158755       9.6548184      0.2            88.426117    
     44500   0.20755987     0.0028164073   0.0028164073   0              0              1197.6985      2116.7345      278.45513      0             -35.460979      0              0              9.157797       9.6553402      0.2            88.421646    
     44600   0.18682413     0.0027221522   0.0027221522   0              0              756.13976      1415.2419      96.855789      0             -248.56121      0              0              9.1568391      9.6508529      0.2            88.371307    
     44700   0.2041737      0.0029288598   0.0029288598   0              0              167.51995      499.29076     -164.44229      0             -113.20158      0              0              9.1558811      9.6504871      0.2            88.358712    
     44800   0.25397179     0.0029783472   0.0029783472   0              0              864.72252      1451.7592      277.54458      0             -514.78185      0              0              9.1549232      9.6499889      0.2            88.344907    
     44900   0.23830823     0.0028339419   0.0028339419   0              0              304.29738      1152.7725     -544.41931      0             -817.5139       0              0              9.1539652      9.6522162      0.2            88.356051    
     45000   0.2158797      0.0028783296   0.0028783296   0              0              1511.9346      2272.524       751.15922      0              22.126796      0              0              9.1530072      9.6496652      0.2            88.323456    
     45100   0.21309621     0.0030697295   0.0030697295   0              0             -323.54647      24.416459     -671.70715      0             -322.95559      0              0              9.1520493      9.6541847      0.2            88.355574    
     45200   0.21296938     0.002929439    0.002929439    0              0              595.91916      481.38783      710.24839      0             -513.61726      0              0              9.1510913      9.6551274      0.2            88.354952    
     45300   0.19903853     0.0027569704   0.0027569704   0              0             -164.60046      382.67766     -712.04543      0             -336.3958       0              0              9.1501333      9.6579335      0.2            88.37138     
     45400   0.18276344     0.0028842734   0.0028842734   0              0              920.24071      1083.1784      757.09478      0             -383.36879      0              0              9.1491754      9.6570265      0.2            88.353829    
     45500   0.19116348     0.0031106084   0.0031106084   0              0              255.58706      1167.8826     -656.8899       0             -517.84378      0              0              9.1482174      9.6627449      0.2            88.396891    
     45600   0.20578425     0.003050573    0.003050573    0              0              1187.415       1897.0876      477.5376       0             -7.5172848      0              0              9.1472595      9.653028       0.2            88.298752    
     45700   0.20911276     0.0028224529   0.0028224529   0              0              369.55454      969.254       -230.37879      0             -834.75777      0              0              9.1463015      9.6551349      0.2            88.308775    
     45800   0.20842977     0.0028828279   0.0028828279   0              0              677.33741      1433.9694     -79.501691      0             -889.42815      0              0              9.1453435      9.6645804      0.2            88.385908    
     45900   0.23076523     0.0031711286   0.0031711286   0              0              997.55033      1710.5533      284.3502       0             -896.65098      0              0              9.1443856      9.6612378      0.2            88.346084    
     46000   0.22677802     0.0030938155   0.0030938155   0              0              134.31611      706.75358     -438.32873      0             -755.72728      0              0              9.1434276      9.6605612      0.2            88.330642    
     46100   0.18929436     0.0030534254   0.0030534254   0              0              1419.61        2329.9141      509.12764      0             -987.12487      0              0              9.1424697      9.6571591      0.2            88.290284    
     46200   0.21740647     0.0030266365   0.0030266365   0              0              788.89055      2174.9303     -597.32099      0             -393.67854      0              0              9.1415117      9.6648776      0.2            88.351592    
     46300   0.1782349      0.0032974922   0.0032974922   0              0              1215.981       1795.2436      636.53333      0             -911.80013      0              0              9.1405537      9.6643338      0.2            88.337362    
     46400   0.18416908     0.0031252948   0.0031252948   0              0              388.22287      1408.7292     -632.50787      0             -779.29473      0              0              9.1395958      9.6705893      0.2            88.385277    
     46500   0.19777136     0.0032618204   0.0032618204   0              0              1536.8731      2616.8182      456.74319      0             -482.72274      0              0              9.1386378      9.6717214      0.2            88.386359    
     46600   0.23160085     0.003058765    0.003058765    0              0              1036.6362      2251.5889     -178.49371      0             -172.06112      0              0              9.1376798      9.6668743      0.2            88.332803    
     46700   0.17725177     0.0034403295   0.0034403295   0              0              1159.3318      2400.1371     -81.68778       0             -85.768521      0              0              9.1367219      9.6738683      0.2            88.387444    
     46800   0.16601865     0.0031329835   0.0031329835   0              0              1582.1303      3020.9988      143.05593      0             -375.93073      0              0              9.1357639      9.6660891      0.2            88.307108    
     46900   0.18567954     0.0032148346   0.0032148346   0              0              1411.6178      3129.3372     -306.25923      0             -269.41873      0              0              9.134806       9.6634234      0.2            88.273497    
     47000   0.16207846     0.0030828176   0.0030828176   0              0              1434.9466      2423.8403      445.82638      0             -231.2788       0              0              9.133848       9.666481       0.2            88.292168    
     47100   0.26615675     0.0029857513   0.0029857513   0              0              1114.2176      2721.7799     -493.54755      0              120.25723      0              0              9.13289        9.6679147      0.2            88.296002    
     47200   0.23148794     0.0030192316   0.0030192316   0              0              1402.0603      2233.3021      570.61209      0             -123.6363       0              0              9.1319321      9.6632481      0.2            88.244125    
     47300   0.25669385     0.0031895042   0.0031895042   0              0              378.18845      1269.6093     -513.43519      0              196.07565      0              0              9.1309741      9.6690064      0.2            88.287447    
     47400   0.21271557     0.003327709    0.003327709    0              0              1174.0444      1900.0409      447.84897      0             -57.948504      0              0              9.1300162      9.6582416      0.2            88.179901    
     47500   0.17448498     0.0030989259   0.0030989259   0              0              202.90732      761.49894     -355.88815      0              367.80916      0              0              9.1290582      9.6634513      0.2            88.218209    
     47600   0.22780093     0.0030322423   0.0030322423   0              0              967.3041       1702.7615      231.62949      0             -281.47834      0              0              9.1281002      9.6620029      0.2            88.195731    
     47700   0.22289333     0.0030503638   0.0030503638   0              0              1092.2495      2313.8631     -129.54574      0             -694.74431      0              0              9.1271423      9.6620203      0.2            88.186634    
     47800   0.23226395     0.0031826967   0.0031826967   0              0              382.38665      788.02924     -23.433494      0             -108.14541      0              0              9.1261843      9.6577017      0.2            88.137966    
     47900   0.19634282     0.0032782947   0.0032782947   0              0              965.04299      1802.6477      127.27733      0              483.84143      0              0              9.1252263      9.656276       0.2            88.115704    
     48000   0.21276543     0.0031372379   0.0031372379   0              0              990.17408      2201.913      -221.75514      0             -444.5522       0              0              9.1242684      9.6578929      0.2            88.121207    
     48100   0.18427233     0.0030093026   0.0030093026   0              0              1626.462       2871.0838      381.64502      0             -166.12619      0              0              9.1233104      9.6545008      0.2            88.081008    
     48200   0.23715031     0.0032614711   0.0032614711   0              0              991.27775      2525.5598     -543.22059      0             -587.72122      0              0              9.1223525      9.6601734      0.2            88.123507    
     48300   0.18677096     0.003324434    0.003324434    0              0              1105.1279      1531.0056      679.04675      0             -819.95772      0              0              9.1213945      9.6590918      0.2            88.104386    
     48400   0.24568617     0.0034634404   0.0034634404   0              0              186.72706      1115.9306     -742.67967      0             -925.04227      0              0              9.1204365      9.6668113      0.2            88.165539    
     48500   0.20059928     0.0032512763   0.0032512763   0              0              1472.5035      2056.2801      888.55284      0             -989.08457      0              0              9.1194786      9.6470761      0.2            87.976304    
     48600   0.16254926     0.0032257075   0.0032257075   0              0              308.69959      1635.7109     -1018.5596      0             -1209.564       0              0              9.1185206      9.6605993      0.2            88.090374    
     48700   0.21294593     0.0032690712   0.0032690712   0              0              983.28348      1107.0636      859.29428      0             -681.46421      0              0              9.1175627      9.6551483      0.2            88.031419    
     48800   0.24304031     0.0033000643   0.0033000643   0              0              400.31189      1476.9453     -676.58218      0             -362.73372      0              0              9.1166047      9.6571466      0.2            88.040388    
     48900   0.24887153     0.0031700136   0.0031700136   0              0              976.65877      1475.0275      478.08648      0             -661.47166      0              0              9.1156467      9.6552139      0.2            88.013519    
     49000   0.22396463     0.0031980391   0.0031980391   0              0              791.23244      1675.9302     -93.67032       0             -158.12387      0              0              9.1146888      9.6607648      0.2            88.054864    
     49100   0.22073721     0.0033514272   0.0033514272   0              0              694.60747      1652.5897     -263.57817      0             -778.24254      0              0              9.1137308      9.6557554      0.2            87.999955    
     49200   0.18063937     0.0031266128   0.0031266128   0              0              1165.9691      1676.8196      654.89179      0             -421.7862       0              0              9.1127728      9.6509461      0.2            87.94688     
     49300   0.22754559     0.0030149032   0.0030149032   0              0              87.727774      1157.2065     -981.92334      0              109.51737      0              0              9.1118149      9.664277       0.2            88.059103    
     49400   0.21539975     0.003331115    0.003331115    0              0              1201.3832      1054.8568      1347.6978      0             -329.15923      0              0              9.1108569      9.6504654      0.2            87.924009    
     49500   0.21082056     0.0032108062   0.0032108062   0              0             -811.10847     -92.671367     -1529.7552      0             -508.30775      0              0              9.109899       9.6562669      0.2            87.967616    
     49600   0.21545551     0.0034021544   0.0034021544   0              0              1908.0722      2214.1342      1601.8175      0              84.762488      0              0              9.108941       9.6451537      0.2            87.857136    
     49700   0.19194323     0.0031967464   0.0031967464   0              0             -271.96052      825.57724     -1369.6757      0              200.45598      0              0              9.107983       9.6600934      0.2            87.983966    
     49800   0.18550806     0.0030812891   0.0030812891   0              0              1558.3325      2025.5815      1090.8948      0             -260.23016      0              0              9.1070251      9.6436891      0.2            87.825319    
     49900   0.21999031     0.0030323982   0.0030323982   0              0             -168.17098      316.85054     -653.38634      0             -700.59163      0              0              9.1060671      9.6536117      0.2            87.906436    
     50000   0.18176534     0.003096989    0.003096989    0              0              881.70626      1654.6375      108.54558      0             -272.131        0              0              9.1051092      9.6494456      0.2            87.859256    
     50100   0.22521394     0.0033410408   0.0033410408   0              0              989.26501      1716.7819      261.52852      0              93.429657      0              0              9.1041512      9.6467874      0.2            87.825811    
     50200   0.20158773     0.0030779282   0.0030779282   0              0              421.84526      1460.0828     -616.62355      0             -126.1403       0              0              9.1031932      9.6517765      0.2            87.861986    
     50300   0.20825802     0.0032267135   0.0032267135   0              0              1655.4234      2463.3803      847.22503      0              51.648681      0              0              9.1022353      9.647256       0.2            87.811594    
     50400   0.18454721     0.0032586336   0.0032586336   0              0             -80.696818      844.25836     -1005.8437      0             -412.73673      0              0              9.1012773      9.6506755      0.2            87.833474    
     50467   0.19273611     0.0034155995   0.0034155995   0              0              55.782283      1237.6817     -1126.3091      0             -418.51123      0              0              9.1006355      9.656612       0.2            87.881306    
Loop time of 1.18752 on 1 procs for 50000 steps with 65 atoms

Performance: 36378.242 ns/day, 0.001 hours/ns, 42104.446 timesteps/s
99.7% CPU use with 1 MPI tasks x 1 OpenMP threads

MPI task timing breakdown:
Section |  min time  |  avg time  |  max time  |%varavg| %total
---------------------------------------------------------------
Pair    | 0          | 0          | 0          |   0.0 |  0.00
Bond    | 0.18286    | 0.18286    | 0.18286    |   0.0 | 15.40
Neigh   | 0          | 0          | 0          |   0.0 |  0.00
Comm    | 0.4044     | 0.4044     | 0.4044     |   0.0 | 34.05
Output  | 0.0069873  | 0.0069873  | 0.0069873  |   0.0 |  0.59
Modify  | 0.5652     | 0.5652     | 0.5652     |   0.0 | 47.59
Other   |            | 0.02807    |            |       |  2.36

Nlocal:             65 ave          65 max          65 min
Histogram: 1 0 0 0 0 0 0 0 0 0
Nghost:            566 ave         566 max         566 min
Histogram: 1 0 0 0 0 0 0 0 0 0
Neighs:              0 ave           0 max           0 min
Histogram: 1 0 0 0 0 0 0 0 0 0

Total # of neighbors = 0
Ave neighs/atom = 0
Ave special neighs/atom = 25.261538
Neighbor list builds = 0
Dangerous builds = 0


Total wall time: 0:00:01
