LAMMPS data file via write_data, version 23 Jun 2022, timestep = 10000

80 atoms
4 atom types

-4.823175718871541 4.823175718871541 xlo xhi
-4.823175718871541 4.823175718871541 ylo yhi
-0.1 0.1 zlo zhi

Atoms # sphere

37 2 1.3 0.4551661356395083 -4.33245137202259 -4.532717927693939 0 0 0 0
49 3 1 1 -3.2461017417030402 -4.382005495500846 0 1 0 0
66 4 0.7 2.915451895043732 -1.934555183931665 -4.372480978812516 0 0 1 0
71 4 0.7 2.915451895043732 -0.7677762956802914 -4.197267748428811 0 0 1 0
32 2 1.3 0.4551661356395083 0.09684803913166018 -4.632851842487571 0 0 0 0
65 4 0.7 2.915451895043732 3.1214089450547293 -3.552563092481662 0 0 0 0
17 1 1.6 0.2441406249999999 4.070021099015053 -4.011766818775252 0 0 0 0
39 2 1.3 0.4551661356395083 -4.57325548591066 -3.1532985271958074 0 0 0 0
67 4 0.7 2.915451895043732 -3.6639733781098576 -2.477248997050646 0 0 0 0
48 3 1 1 -3.5579293573530832 -3.3467549767780405 0 0 1 0
58 3 1 1 -2.8208767177372085 -2.640021388407581 0 0 0 0
38 2 1.3 0.4551661356395083 -2.625813319366176 -3.639827690141665 0 0 0 0
79 4 0.7 2.915451895043732 -1.9500137501850086 -2.9516747405400796 0 1 1 0
34 2 1.3 0.4551661356395083 -1.4619472300269511 -3.6245616896774235 0 0 1 0
25 2 1.3 0.4551661356395083 -0.2311983738848955 -3.479227948719616 0 0 1 0
12 1 1.6 0.2441406249999999 1.1803537133772153 -3.634051822681977 0 0 0 0
27 2 1.3 0.4551661356395083 2.509364967958124 -2.927742333332462 0 -1 0 0
3 1 1.6 0.2441406249999999 3.793604779747932 -2.5380029772703647 0 0 0 0
35 2 1.3 0.4551661356395083 -4.390756473361368 -1.8164141911160323 0 0 0 0
15 1 1.6 0.2441406249999999 -3.0688280499198717 -1.3466547902433676 0 0 1 0
47 3 1 1 -2.060270463115254 -2.116825587101473 0 0 0 0
10 1 1.6 0.2441406249999999 -0.9131521855527267 -2.4950678188090176 0 0 0 0
36 2 1.3 0.4551661356395083 0.5141299384610596 -2.4252287521027927 0 0 1 0
42 3 1 1 1.499219469398514 -2.4050396554267683 0 -1 0 0
76 4 0.7 2.915451895043732 -1.9498567694121114 -1.2111421229933557 0 0 0 0
75 4 0.7 2.915451895043732 -1.5020160766646802 -1.345529067684447 0 0 0 0
46 3 1 1 -1.3976908992165415 -0.4162843201168762 0 0 0 0
21 2 1.3 0.4551661356395083 -0.5598091859916492 -1.0767743668782717 0 0 -1 0
80 4 0.7 2.915451895043732 0.32533495913072485 -1.4592941109773174 0 0 0 0
29 2 1.3 0.4551661356395083 0.5657084570351563 -0.5534041588473704 0 0 0 0
31 2 1.3 0.4551661356395083 1.236544090183238 -1.4633202273539272 0 0 0 0
63 4 0.7 2.915451895043732 1.3665096266301617 -0.4021240652016127 0 0 0 0
5 1 1.6 0.2441406249999999 2.557320020385644 -1.6249048639422754 0 0 0 0
20 1 1.6 0.2441406249999999 4.46317854725133 -0.6379044506483051 0 -1 0 0
52 3 1 1 3.663480550320493 -1.409124702205669 0 -1 0 0
73 4 0.7 2.915451895043732 -4.68743287987682 0.261985199383747 0 1 0 0
24 2 1.3 0.4551661356395083 -4.027237512209359 -0.41194650110863584 0 1 0 0
18 1 1.6 0.2441406249999999 -2.7331164827862495 0.056692055907110905 0 0 0 0
60 3 1 1 -0.5439835669608746 -0.08086404814434012 0 0 0 0
45 3 1 1 1.9671690253753562 -0.5280386335452167 0 0 0 0
61 4 0.7 2.915451895043732 2.3014954771957656 0.7467830597221621 0 0 0 0
14 1 1.6 0.2441406249999999 3.114662241694811 -0.192360058623116 0 0 0 0
43 3 1 1 -3.9326702135558733 0.703944496294409 0 1 0 0
1 1 1.6 0.2441406249999999 -1.4463627468426647 0.6367101401925419 0 0 0 0
50 3 1 1 0.20578752683479085 0.49037458760295927 0 0 0 0
4 1 1.6 0.2441406249999999 1.3023545127651088 0.6745126071835807 0 0 0 0
33 2 1.3 0.4551661356395083 3.0464765442454533 1.3263844802463929 0 0 0 0
57 3 1 1 3.9471892990484623 0.49044660379645144 0 0 0 0
6 1 1.6 0.2441406249999999 -4.806568879913077 1.4113279480769512 0 0 0 0
70 4 0.7 2.915451895043732 -3.411403705385119 1.767742025180996 0 0 0 0
26 2 1.3 0.4551661356395083 -3.025614663037441 2.654633497150087 0 0 0 0
40 2 1.3 0.4551661356395083 -2.500053399086836 1.5479397880560866 0 0 0 0
68 4 0.7 2.915451895043732 -1.3492327804454747 1.6523980190637797 0 0 0 0
72 4 0.7 2.915451895043732 -1.0908168621912115 2.324815052957577 0 0 0 0
19 1 1.6 0.2441406249999999 -0.33472146996876617 1.444739919685138 0 0 0 0
41 3 1 1 0.8351845332807741 1.8446268864049937 0 0 0 0
53 3 1 1 1.1508196982448995 2.8881397524839034 0 0 -1 0
13 1 1.6 0.2441406249999999 1.9754043517278737 2.1187998948808398 0 0 0 0
9 1 1.6 0.2441406249999999 3.3145484825809586 2.845901369451262 0 0 0 0
44 3 1 1 3.8254115969133977 1.8876484319749478 0 0 0 0
62 4 0.7 2.915451895043732 -3.830296059096373 2.241966506725996 0 0 -1 0
51 3 1 1 -4.281100273341511 3.1024515349746755 0 1 -1 0
56 3 1 1 -1.8453703624530133 2.5198000213186305 0 0 0 0
22 2 1.3 0.4551661356395083 -1.1031163967726614 3.2022715723986117 0 0 0 0
23 2 1.3 0.4551661356395083 0.029455935283423607 2.6408855168903633 0 0 0 0
69 4 0.7 2.915451895043732 0.8497527742003745 4.214919475844898 0 0 0 0
78 4 0.7 2.915451895043732 0.9495429285876584 3.625373997844731 0 0 0 0
7 1 1.6 0.2441406249999999 2.11090250604098 3.678894034699834 0 0 0 0
54 3 1 1 4.549879650866538 2.6207530339456007 0 -1 0 0
16 1 1.6 0.2441406249999999 -3.4727302382238525 4.051823706079331 0 0 0 0
77 4 0.7 2.915451895043732 -2.627850311545434 -4.697012010113623 0 0 0 0
28 2 1.3 0.4551661356395083 -2.2256108458489634 3.5585834579209443 0 1 0 0
64 4 0.7 2.915451895043732 -2.3572114120344434 4.497102966289084 0 1 0 0
2 1 1.6 0.2441406249999999 -1.2599666842377792 4.446154691052126 0 0 0 0
30 2 1.3 0.4551661356395083 0.04843011918064022 3.7007450685060608 0 0 -1 0
55 3 1 1 1.5088465562807905 4.7970799419552215 0 0 -1 0
11 1 1.6 0.2441406249999999 2.527282327797159 -4.44188746429529 0 0 0 0
59 3 1 1 3.1560401655683785 4.157532019055854 0 0 -1 0
74 4 0.7 2.915451895043732 3.5970820105518513 4.564224243077378 0 0 0 0
8 1 1.6 0.2441406249999999 4.624351316595439 3.9002580749089955 0 0 -1 0

Velocities

37 0.09075802253564454 -0.09578847386491678 0 0 0 0
49 -0.16484133464816705 -0.06537284753790494 0 0 0 0
66 0.10970704541546066 0.20369455565750938 0 0 0 0
71 -0.03908544910018219 0.10137580312797793 0 0 0 0
32 0.135076890336562 -0.0637945141416578 0 0 0 0
65 0.08615158069796544 0.06676546910636248 0 0 0 0
17 0.21971364188946957 -0.024548030038876838 0 0 0 0
39 0.00953846512310853 -0.004033039356793549 0 0 0 0
67 0.10049507037847803 0.10668275209307107 0 0 0 0
48 -0.04731642581407124 -0.05413434017491765 0 0 0 0
58 0.1201917001239725 -0.04549715565440151 0 0 0 0
38 0.20918346055774995 -0.15535527518512146 0 0 0 0
79 -0.14366287406398687 0.07201407936128841 0 0 0 0
34 -0.18752858717571597 -0.03715731123849228 0 0 0 0
25 -0.04605672280887139 -0.06841176700822658 0 0 0 0
12 -0.09077282411861873 0.016408128022259924 0 0 0 0
27 -0.08955652078202299 0.1146692442672895 0 0 0 0
3 -0.03560582050597516 -0.03680684582199307 0 0 0 0
35 0.010339049449846479 -0.03585655169696799 0 0 0 0
15 -0.04815641308500132 -0.15624916902542377 0 0 0 0
47 -0.12587888218571494 -0.0027295763610708425 0 0 0 0
10 -0.10142241385510495 -0.2981155860798283 0 0 0 0
36 0.2087027234249667 -0.16307407514128297 0 0 0 0
42 0.2205299100976421 0.08800885817695901 0 0 0 0
76 0.08394772839774496 -0.0948925682041298 0 0 0 0
75 0.18367526506056217 0.07162668486689185 0 0 0 0
46 -0.06362466597536126 -0.0039060293052240766 0 0 0 0
21 0.08767651731900224 -0.009303353232153777 0 0 0 0
80 0.05626457793484258 0.011780164555285735 0 0 0 0
29 -0.10384456842735865 -0.01771092667216847 0 0 0 0
31 -0.003204391639412094 0.08427116620616726 0 0 0 0
63 -0.006384369897000764 0.08737737406922089 0 0 0 0
5 0.11189753121497016 0.019431265945478855 0 0 0 0
20 -0.14839613725287193 -0.10688412507890441 0 0 0 0
52 0.0016402481692544182 -0.023058480943468636 0 0 0 0
73 0.11113401397175197 0.023874676797598835 0 0 0 0
24 0.06814219939798685 0.20969962304315046 0 0 0 0
18 -0.016857134579385365 -0.09003097319987348 0 0 0 0
60 -0.04946517185204897 -0.051357776433924925 0 0 0 0
45 -0.233179593670436 -0.12292277752588601 0 0 0 0
61 -0.1659495292424861 0.029862357717447593 0 0 0 0
14 0.007541821040567782 0.3234824963481811 0 0 0 0
43 -0.03896720901811167 -0.04262999200466944 0 0 0 0
1 -0.20153226027102383 0.08726781007192234 0 0 0 0
50 0.041276952042439315 -0.1188160054703715 0 0 0 0
4 0.1026533290831557 -0.008726868582996742 0 0 0 0
33 -0.053806132065363874 -0.12922935043324457 0 0 0 0
57 -0.2198641787273636 -0.023054184341625917 0 0 0 0
6 0.07263318366442677 0.05145968884244982 0 0 0 0
70 -0.0032315920653830676 0.012049884660661056 0 0 0 0
26 -0.08906763763043958 -0.042471677826265465 0 0 0 0
40 -0.12005712052431759 -0.05361828903794017 0 0 0 0
68 -0.08271815348081032 0.06124874837998325 0 0 0 0
72 0.06966178287951395 0.14403950819459116 0 0 0 0
19 0.01122949243463948 -0.015955656780147813 0 0 0 0
41 0.059724089363869574 0.21541052891054355 0 0 0 0
53 0.04052993478560189 0.032085406378171345 0 0 0 0
13 -0.06252228983670662 0.11188791616753561 0 0 0 0
9 0.14733074411643476 0.17950864344885614 0 0 0 0
44 -0.13904507456423779 0.17611992541722246 0 0 0 0
62 0.07819731634096433 -0.07316651557722867 0 0 0 0
51 0.07342486520221604 -0.08086715484228314 0 0 0 0
56 -0.009288257033323526 -0.09999113392539678 0 0 0 0
22 -0.20901421173671403 -0.07440293139666636 0 0 0 0
23 0.15561950050164952 -0.0583680484288056 0 0 0 0
69 0.05624316015414939 0.01091011913016157 0 0 0 0
78 0.010693599798576913 0.07959933856494988 0 0 0 0
7 0.08032193819438894 0.04494834300547638 0 0 0 0
54 0.009287032015343989 0.17166196269053247 0 0 0 0
16 0.05869707165027252 -0.01681019325459509 0 0 0 0
77 -0.017327013720300453 0.028660582252805312 0 0 0 0
28 0.1358798540488117 -0.13939218257241068 0 0 0 0
64 -0.03749503675975497 0.03888535766594047 0 0 0 0
2 0.03811047892829612 -0.1522843251627777 0 0 0 0
30 -0.1514204483524432 -0.20263466151196335 0 0 0 0
55 0.05327413744716678 -0.02401369307636804 0 0 0 0
11 0.018705149770393004 0.2686707726791678 0 0 0 0
59 -0.11632978310357925 -0.04472449999531031 0 0 0 0
74 0.015467194804538006 -0.13983497477481147 0 0 0 0
8 -0.09879204019472639 0.0225446720963779 0 0 0 0
