LAMMPS data file.

     46 atoms
     93 bonds
      0 angles
      0 dihedrals
      0 impropers
      1 atom types
     93 bond types
      0 angle types
      0 dihedral types
      0 improper types
  -4.823176   4.823176 xlo xhi
  -4.823176   4.823176 ylo yhi
  -0.100000   0.100000 zlo zhi

Masses # ['atom_id', 'mass']

1 10000.0

Atoms # ['atomID', 'moleculeID', 'atomType', 'charge', 'x', 'y', 'z']

     37      1      1   0.000000  -4.332451  -4.532718   0.000000
     49      1      1   0.000000  -3.246102  -4.382005   0.000000
     71      1      1   0.000000  -0.767776  -4.197268   0.000000
     38      1      1   0.000000  -2.625813  -3.639828   0.000000
     79      1      1   0.000000  -1.950014  -2.951675   0.000000
     34      1      1   0.000000  -1.461947  -3.624562   0.000000
     25      1      1   0.000000  -0.231198  -3.479228   0.000000
     12      1      1   0.000000   1.180354  -3.634052   0.000000
     27      1      1   0.000000   2.509365  -2.927742   0.000000
      3      1      1   0.000000   3.793605  -2.538003   0.000000
     15      1      1   0.000000  -3.068828  -1.346655   0.000000
     47      1      1   0.000000  -2.060270  -2.116826   0.000000
     10      1      1   0.000000  -0.913152  -2.495068   0.000000
     36      1      1   0.000000   0.514130  -2.425229   0.000000
     42      1      1   0.000000   1.499219  -2.405040   0.000000
     46      1      1   0.000000  -1.397691  -0.416284   0.000000
     21      1      1   0.000000  -0.559809  -1.076774   0.000000
     80      1      1   0.000000   0.325335  -1.459294   0.000000
     29      1      1   0.000000   0.565708  -0.553404   0.000000
     31      1      1   0.000000   1.236544  -1.463320   0.000000
     63      1      1   0.000000   1.366510  -0.402124   0.000000
      5      1      1   0.000000   2.557320  -1.624905   0.000000
     20      1      1   0.000000   4.463179  -0.637904   0.000000
     52      1      1   0.000000   3.663481  -1.409125   0.000000
     24      1      1   0.000000  -4.027238  -0.411947   0.000000
     18      1      1   0.000000  -2.733116   0.056692   0.000000
     60      1      1   0.000000  -0.543984  -0.080864   0.000000
     45      1      1   0.000000   1.967169  -0.528039   0.000000
     14      1      1   0.000000   3.114662  -0.192360   0.000000
      1      1      1   0.000000  -1.446363   0.636710   0.000000
     50      1      1   0.000000   0.205788   0.490375   0.000000
      4      1      1   0.000000   1.302355   0.674513   0.000000
     19      1      1   0.000000  -0.334721   1.444740   0.000000
     41      1      1   0.000000   0.835185   1.844627   0.000000
     53      1      1   0.000000   1.150820   2.888140   0.000000
     13      1      1   0.000000   1.975404   2.118800   0.000000
      9      1      1   0.000000   3.314548   2.845901   0.000000
     51      1      1   0.000000  -4.281100   3.102452   0.000000
     22      1      1   0.000000  -1.103116   3.202272   0.000000
     23      1      1   0.000000   0.029456   2.640886   0.000000
      7      1      1   0.000000   2.110903   3.678894   0.000000
     54      1      1   0.000000   4.549880   2.620753   0.000000
     16      1      1   0.000000  -3.472730   4.051824   0.000000
     28      1      1   0.000000  -2.225611   3.558583   0.000000
      2      1      1   0.000000  -1.259967   4.446155   0.000000
      8      1      1   0.000000   4.624351   3.900258   0.000000

Bond Coeffs # ['bondID', 'bondCoeff', 'd']

      1   1.505643   0.814965
      2   0.588344   1.303720
      3   0.636194   1.253733
      4   0.878509   1.066908
      5   0.625831   1.264071
      6   0.859651   1.078546
      7   0.831281   1.096797
      8   0.557965   1.338741
      9   0.555195   1.342076
     10   0.738107   1.163966
     11   0.412676   1.556666
     12   0.501969   1.411438
     13   0.779076   1.132948
     14   1.007975   0.996036
     15   1.138413   0.937239
     16   0.779286   1.132796
     17   0.620982   1.268996
     18   0.535745   1.366221
     19   0.685426   1.207869
     20   0.535745   1.366221
     21   0.430666   1.523806
     22   0.727129   1.172720
     23   1.068849   0.967257
     24   0.699584   1.195584
     25   1.244560   0.896380
     26   0.697529   1.197344
     27   1.074969   0.964500
     28   0.721006   1.177689
     29   0.529476   1.374285
     30   0.773029   1.137371
     31   0.495784   1.420213
     32   1.204357   0.911218
     33   0.820333   1.104091
     34   1.234773   0.899925
     35   0.691013   1.202976
     36   0.639636   1.250356
     37   2.655012   0.613715
     38   0.524905   1.380256
     39   1.032340   0.984212
     40   0.495921   1.420018
     41   0.513411   1.395621
     42   0.513411   1.395621
     43   0.564793   1.330623
     44   0.608762   1.281670
     45   0.393862   1.593412
     46   0.644582   1.245550
     47   1.447208   0.831256
     48   1.075498   0.964262
     49   0.634222   1.255681
     50   0.629955   1.259927
     51   0.466714   1.463776
     52   1.188604   0.917237
     53   0.620291   1.269703
     54   0.899955   1.054119
     55   0.423224   1.537145
     56   0.810177   1.110989
     57   0.581310   1.311584
     58   0.831345   1.096754
     59   0.600086   1.290902
     60   0.634143   1.255760
     61   1.030069   0.985296
     62   0.423343   1.536928
     63   0.654198   1.236361
     64   1.114996   0.947029
     65   1.114996   0.947029
     66   1.125530   0.942587
     67   0.555990   1.341116
     68   0.651099   1.239300
     69   0.527880   1.376362
     70   0.758385   1.148299
     71   0.657216   1.233520
     72   1.046207   0.977668
     73   0.657216   1.233520
     74   0.649053   1.241252
     75   0.752332   1.152910
     76   0.480288   1.442943
     77   0.782492   1.130472
     78   0.787307   1.127010
     79   0.487703   1.431931
     80   0.786273   1.127752
     81   0.643182   1.246904
     82   0.808822   1.111920
     83   0.843577   1.088774
     84   0.843577   1.088774
     85   0.489713   1.428990
     86   0.801206   1.117192
     87   0.801206   1.117192
     88   1.410179   0.842098
     89   0.407788   1.565967
     90   0.774414   1.136353
     91   0.720854   1.177813
     92   0.720854   1.177813
     93   0.646391   1.243805

Bonds # ['ID', 'type', 'atom1', 'atom2']

         1         1        29        63
         2         2        27         5
         3         3        22         2
         4         4        46        21
         5         5        22        23
         6         6        63         4
         7         7        50        19
         8         8        15        24
         9         9        27         3
        10        10        38        34
        11        11        16         8
        12        12        18         1
        13        13        79        10
        14        14        21        60
        15        15        80        29
        16        16        41        23
        17        17        15        47
        18        18        16        37
        19        19        47        10
        20        20        37        16
        21        21        13         9
        22        22        41        13
        23        23        49        38
        24        24        45        14
        25        25        71        25
        26        26        25        10
        27        27        38        79
        28        28        22        28
        29        29         1        19
        30        30        27        42
        31        31        20        14
        32        32        80        31
        33        33        29        50
        34        34        71        34
        35        35        36        31
        36        36        19        23
        37        37        63        45
        38        38        12        36
        39        39        36        80
        40        40        25        12
        41        41        37         8
        42        42         8        37
        43        43        31         5
        44        44        54         8
        45        45         4        13
        46        46         5        45
        47        47        79        34
        48        48        21        80
        49        49         9        54
        50        50         4        41
        51        51         9         7
        52        52        46        60
        53        53        12        42
        54        54        46         1
        55        55         5        14
        56        56        20        52
        57        57        28         2
        58        58        37        49
        59        59        25        36
        60        60        34        10
        61        61        36        42
        62        62         3         5
        63        63        19        41
        64        64        51        54
        65        65        54        51
        66        66        60        50
        67        67        16        28
        68        68        34        25
        69        69        24        18
        70        70        53        23
        71        71        16        49
        72        72        42        31
        73        73        49        16
        74        74        21        29
        75        75        60         1
        76        76        15        18
        77        77        29        31
        78        78         5        52
        79        79        29         4
        80        80        53        13
        81        81        51        16
        82        82        50         4
        83        83        51         8
        84        84         8        51
        85        85        10        36
        86        86        71         2
        87        87         2        71
        88        88        79        47
        89        89        13         7
        90        90         3        52
        91        91        20        24
        92        92        24        20
        93        93        53         7
