ITEM: TIMESTEP
0
ITEM: NUMBER OF ATOMS
80
ITEM: BOX BOUNDS pp pp pp
-1.0000000000000000e+01 1.0000000000000000e+01
-1.0000000000000000e+01 1.0000000000000000e+01
-1.0000000000000001e-01 1.0000000000000001e-01
ITEM: ATOMS id type xs ys zs
62 4 0.451898 0.049779 0.5
51 3 0.901054 0.0181542 0.5
42 3 0.0630743 0.0897539 0.5
58 3 0.159759 0.0713447 0.5
17 1 0.716135 0.0758771 0.5
37 2 0.0644449 0.125036 0.5
10 1 0.382051 0.130861 0.5
21 2 0.375267 0.106225 0.5
11 1 0.462732 0.136411 0.5
53 3 0.531036 0.127758 0.5
55 3 0.665982 0.152601 0.5
38 2 0.242352 0.208156 0.5
47 3 0.37188 0.189346 0.5
8 1 0.710072 0.187076 0.5
59 3 0.853466 0.200407 0.5
49 3 0.998406 0.204805 0.5
77 4 0.165779 0.246099 0.5
31 2 0.598514 0.217492 0.5
14 1 0.732089 0.225985 0.5
27 2 0.205348 0.27709 0.5
76 4 0.336008 0.284897 0.5
67 4 0.344878 0.357767 0.5
50 3 0.769164 0.332783 0.5
61 4 0.919875 0.337225 0.5
65 4 0.923326 0.333306 0.5
52 3 0.140262 0.389317 0.5
30 2 0.416637 0.414653 0.5
32 2 0.433532 0.374058 0.5
60 3 0.848421 0.412167 0.5
43 3 0.897983 0.402717 0.5
3 1 0.978427 0.416208 0.5
56 3 0.346847 0.457282 0.5
75 4 0.358388 0.435402 0.5
12 1 0.397836 0.433517 0.5
5 1 0.715383 0.4386 0.5
73 4 0.965816 0.463024 0.5
20 1 0.0130588 0.479616 0.5
57 3 0.0599449 0.493798 0.5
1 1 0.367377 0.500146 0.5
18 1 0.739902 0.525531 0.5
35 2 0.0113368 0.538274 0.5
46 3 0.0372186 0.53233 0.5
26 2 0.208042 0.560337 0.5
39 2 0.261711 0.576576 0.5
69 4 0.400165 0.569112 0.5
29 2 0.552065 0.55548 0.5
41 3 0.528087 0.554345 0.5
33 2 0.851285 0.553441 0.5
4 1 0.942794 0.536187 0.5
68 4 0.363158 0.596363 0.5
78 4 0.452111 0.630186 0.5
80 4 0.445803 0.608804 0.5
13 1 0.569085 0.611076 0.5
34 2 0.682848 0.628086 0.5
44 3 0.659224 0.581073 0.5
63 4 0.671186 0.615314 0.5
7 1 0.994977 0.58194 0.5
48 3 0.228337 0.662624 0.5
24 2 0.91579 0.683868 0.5
64 4 0.997241 0.637778 0.5
16 1 0.305034 0.700061 0.5
9 1 0.734081 0.692315 0.5
45 3 0.807978 0.684789 0.5
54 3 0.0258666 0.740177 0.5
2 1 0.132728 0.762936 0.5
15 1 0.219418 0.760393 0.5
19 1 0.487937 0.758965 0.5
74 4 0.499481 0.768945 0.5
22 2 0.153734 0.814531 0.5
71 4 0.54518 0.841429 0.5
23 2 0.733017 0.823994 0.5
6 1 0.0481266 0.864263 0.5
66 4 0.0619887 0.844327 0.5
36 2 0.624852 0.885116 0.5
40 2 0.805609 0.873176 0.5
79 4 0.993983 0.877666 0.5
70 4 0.115009 0.964107 0.5
25 2 0.4961 0.949489 0.5
72 4 0.63158 0.957995 0.5
28 2 0.900812 0.952183 0.5
ITEM: TIMESTEP
10
ITEM: NUMBER OF ATOMS
80
ITEM: BOX BOUNDS pp pp pp
-9.2572925170245330e+00 9.2572925170245330e+00
-9.2572925170245330e+00 9.2572925170245330e+00
-1.0000000000000001e-01 1.0000000000000001e-01
ITEM: ATOMS id type xs ys zs
62 4 0.451898 0.049779 0.5
51 3 0.901054 0.0181542 0.5
42 3 0.0630711 0.0896706 0.5
58 3 0.159759 0.0713447 0.5
17 1 0.716135 0.0758771 0.5
37 2 0.0644481 0.125119 0.5
10 1 0.382099 0.131005 0.5
21 2 0.37522 0.106058 0.5
11 1 0.462734 0.136412 0.5
53 3 0.531036 0.127758 0.5
55 3 0.665953 0.152579 0.5
38 2 0.242352 0.208156 0.5
47 3 0.371876 0.18937 0.5
8 1 0.710036 0.186983 0.5
59 3 0.853466 0.200407 0.5
49 3 0.998406 0.204805 0.5
77 4 0.165777 0.246098 0.5
31 2 0.598514 0.217492 0.5
14 1 0.732154 0.2261 0.5
27 2 0.205349 0.277091 0.5
76 4 0.336008 0.284897 0.5
67 4 0.344878 0.357767 0.5
50 3 0.769164 0.332783 0.5
61 4 0.919802 0.337307 0.5
65 4 0.923398 0.333223 0.5
52 3 0.140262 0.389317 0.5
30 2 0.416726 0.414606 0.5
32 2 0.43357 0.373972 0.5
60 3 0.84842 0.412168 0.5
43 3 0.897985 0.402716 0.5
3 1 0.97842 0.416146 0.5
56 3 0.346755 0.457296 0.5
75 4 0.358351 0.435346 0.5
12 1 0.39782 0.433606 0.5
5 1 0.715383 0.4386 0.5
73 4 0.965778 0.463048 0.5
20 1 0.0130333 0.479556 0.5
57 3 0.0600146 0.493797 0.5
1 1 0.367394 0.500232 0.5
18 1 0.739902 0.525531 0.5
35 2 0.0112751 0.538262 0.5
46 3 0.0373336 0.532347 0.5
26 2 0.208008 0.560327 0.5
39 2 0.261745 0.576586 0.5
69 4 0.400165 0.569112 0.5
29 2 0.552173 0.555432 0.5
41 3 0.527963 0.554339 0.5
33 2 0.851285 0.553441 0.5
4 1 0.942744 0.536159 0.5
68 4 0.363158 0.596363 0.5
78 4 0.452125 0.630232 0.5
80 4 0.445789 0.608758 0.5
13 1 0.569101 0.61113 0.5
34 2 0.682939 0.628194 0.5
44 3 0.659207 0.581031 0.5
63 4 0.671112 0.615248 0.5
7 1 0.994973 0.582053 0.5
48 3 0.228337 0.662624 0.5
24 2 0.91579 0.683868 0.5
64 4 0.997242 0.637787 0.5
16 1 0.305034 0.700061 0.5
9 1 0.734081 0.692315 0.5
45 3 0.807978 0.684789 0.5
54 3 0.0258666 0.740177 0.5
2 1 0.132704 0.762876 0.5
15 1 0.219418 0.760393 0.5
19 1 0.487819 0.758863 0.5
74 4 0.499599 0.769048 0.5
22 2 0.153759 0.81459 0.5
71 4 0.54518 0.841429 0.5
23 2 0.733017 0.823994 0.5
6 1 0.0480652 0.864362 0.5
66 4 0.0620591 0.844226 0.5
36 2 0.624852 0.885116 0.5
40 2 0.805609 0.873176 0.5
79 4 0.993974 0.877669 0.5
70 4 0.115009 0.964107 0.5
25 2 0.4961 0.949489 0.5
72 4 0.63158 0.957995 0.5
28 2 0.900812 0.952183 0.5
ITEM: TIMESTEP
20
ITEM: NUMBER OF ATOMS
80
ITEM: BOX BOUNDS pp pp pp
-8.3389374925949511e+00 8.3389374925949511e+00
-8.3389374925949511e+00 8.3389374925949511e+00
-1.0000000000000001e-01 1.0000000000000001e-01
ITEM: ATOMS id type xs ys zs
62 4 0.451898 0.049779 0.5
51 3 0.901054 0.0181549 0.5
42 3 0.0630591 0.0893624 0.5
58 3 0.159759 0.0713447 0.5
17 1 0.716135 0.0758771 0.5
37 2 0.0644601 0.125428 0.5
10 1 0.382237 0.131487 0.5
21 2 0.375056 0.105461 0.5
11 1 0.462764 0.136417 0.5
53 3 0.531052 0.127756 0.5
55 3 0.665831 0.152483 0.5
38 2 0.242352 0.208156 0.5
47 3 0.371856 0.189482 0.5
8 1 0.70992 0.186658 0.5
59 3 0.853466 0.200407 0.5
49 3 0.998406 0.204805 0.5
77 4 0.165753 0.246079 0.5
31 2 0.598514 0.217492 0.5
14 1 0.732392 0.226521 0.5
27 2 0.205374 0.27711 0.5
76 4 0.336008 0.284897 0.5
67 4 0.344878 0.357767 0.5
50 3 0.769164 0.332783 0.5
61 4 0.919548 0.337596 0.5
65 4 0.923653 0.332934 0.5
52 3 0.140262 0.389317 0.5
30 2 0.41704 0.414453 0.5
32 2 0.43373 0.37362 0.5
60 3 0.848391 0.412173 0.5
43 3 0.898013 0.402711 0.5
3 1 0.978388 0.415872 0.5
56 3 0.346393 0.457345 0.5
75 4 0.358207 0.43514 0.5
12 1 0.397799 0.433911 0.5
5 1 0.715382 0.438597 0.5
73 4 0.965617 0.463149 0.5
20 1 0.0129538 0.479325 0.5
57 3 0.0602934 0.493781 0.5
1 1 0.367448 0.500588 0.5
18 1 0.739902 0.525533 0.5
35 2 0.0110875 0.538234 0.5
46 3 0.037769 0.532426 0.5
26 2 0.207862 0.560283 0.5
39 2 0.261891 0.57663 0.5
69 4 0.400165 0.569112 0.5
29 2 0.552553 0.555239 0.5
41 3 0.527511 0.554311 0.5
33 2 0.851285 0.553441 0.5
4 1 0.942508 0.536037 0.5
68 4 0.363158 0.596363 0.5
78 4 0.452175 0.630403 0.5
80 4 0.445739 0.608587 0.5
13 1 0.569172 0.611352 0.5
34 2 0.683272 0.628597 0.5
44 3 0.659129 0.580845 0.5
63 4 0.670856 0.615029 0.5
7 1 0.994954 0.582486 0.5
48 3 0.228337 0.662624 0.5
24 2 0.91579 0.683868 0.5
64 4 0.997244 0.637847 0.5
16 1 0.305034 0.700061 0.5
9 1 0.734081 0.692317 0.5
45 3 0.807979 0.684789 0.5
54 3 0.0258666 0.740177 0.5
2 1 0.132597 0.762642 0.5
15 1 0.219429 0.760393 0.5
19 1 0.487402 0.758502 0.5
74 4 0.500016 0.769409 0.5
22 2 0.153854 0.814825 0.5
71 4 0.54518 0.841429 0.5
23 2 0.733017 0.823994 0.5
6 1 0.0478717 0.864711 0.5
66 4 0.0623116 0.843862 0.5
36 2 0.624852 0.885116 0.5
40 2 0.805609 0.873176 0.5
79 4 0.993915 0.877683 0.5
70 4 0.115009 0.964107 0.5
25 2 0.4961 0.949489 0.5
72 4 0.63158 0.957995 0.5
28 2 0.900812 0.952182 0.5
ITEM: TIMESTEP
30
ITEM: NUMBER OF ATOMS
80
ITEM: BOX BOUNDS pp pp pp
-7.6584808627900074e+00 7.6584808627900074e+00
-7.6584808627900074e+00 7.6584808627900074e+00
-1.0000000000000001e-01 1.0000000000000001e-01
ITEM: ATOMS id type xs ys zs
62 4 0.451898 0.049779 0.5
51 3 0.901054 0.0181787 0.5
42 3 0.0630351 0.0887459 0.5
58 3 0.159759 0.0713447 0.5
17 1 0.716135 0.0758771 0.5
37 2 0.064484 0.126044 0.5
10 1 0.382435 0.132353 0.5
21 2 0.374738 0.104309 0.5
11 1 0.462847 0.136438 0.5
53 3 0.531138 0.127745 0.5
55 3 0.665553 0.152267 0.5
38 2 0.242355 0.208149 0.5
47 3 0.371808 0.189757 0.5
8 1 0.709727 0.186041 0.5
59 3 0.853466 0.200407 0.5
49 3 0.998406 0.204805 0.5
77 4 0.165667 0.246012 0.5
31 2 0.598514 0.217492 0.5
14 1 0.732863 0.227354 0.5
27 2 0.205456 0.277184 0.5
76 4 0.336008 0.284897 0.5
67 4 0.344878 0.357767 0.5
50 3 0.769164 0.332783 0.5
61 4 0.919064 0.338146 0.5
65 4 0.924136 0.332385 0.5
52 3 0.140262 0.389317 0.5
30 2 0.417636 0.414185 0.5
32 2 0.434081 0.372856 0.5
60 3 0.848287 0.412193 0.5
43 3 0.898116 0.402691 0.5
3 1 0.978304 0.415243 0.5
56 3 0.345623 0.45744 0.5
75 4 0.357901 0.434708 0.5
12 1 0.397832 0.434477 0.5
5 1 0.71537 0.438554 0.5
73 4 0.96525 0.463368 0.5
20 1 0.0128502 0.47882 0.5
57 3 0.0609043 0.493712 0.5
1 1 0.367544 0.501392 0.5
18 1 0.739914 0.525576 0.5
35 2 0.0107736 0.538213 0.5
46 3 0.0386599 0.532614 0.5
26 2 0.207533 0.560183 0.5
39 2 0.26222 0.57673 0.5
69 4 0.400165 0.569112 0.5
29 2 0.553279 0.554814 0.5
41 3 0.526608 0.554222 0.5
33 2 0.851285 0.553441 0.5
4 1 0.941911 0.535783 0.5
68 4 0.363158 0.596363 0.5
78 4 0.452276 0.630746 0.5
80 4 0.445638 0.608244 0.5
13 1 0.569349 0.611866 0.5
34 2 0.683909 0.629382 0.5
44 3 0.658947 0.580414 0.5
63 4 0.670373 0.614641 0.5
7 1 0.994911 0.583382 0.5
48 3 0.228337 0.662624 0.5
24 2 0.91579 0.683868 0.5
64 4 0.997251 0.63802 0.5
16 1 0.305034 0.700061 0.5
9 1 0.734079 0.692354 0.5
45 3 0.808008 0.684786 0.5
54 3 0.0258666 0.740177 0.5
2 1 0.132316 0.76215 0.5
15 1 0.219522 0.76038 0.5
19 1 0.486603 0.757811 0.5
74 4 0.500815 0.770099 0.5
22 2 0.154042 0.815329 0.5
71 4 0.54518 0.841429 0.5
23 2 0.733017 0.823994 0.5
6 1 0.0475506 0.865376 0.5
66 4 0.0628012 0.843157 0.5
36 2 0.624852 0.885116 0.5
40 2 0.805609 0.873176 0.5
79 4 0.993747 0.877724 0.5
70 4 0.115009 0.964107 0.5
25 2 0.4961 0.949489 0.5
72 4 0.63158 0.957995 0.5
28 2 0.900812 0.952159 0.5
ITEM: TIMESTEP
40
ITEM: NUMBER OF ATOMS
80
ITEM: BOX BOUNDS pp pp pp
-7.1741972458890437e+00 7.1741972458890437e+00
-7.1741972458890437e+00 7.1741972458890437e+00
-1.0000000000000001e-01 1.0000000000000001e-01
ITEM: ATOMS id type xs ys zs
62 4 0.451898 0.049779 0.5
51 3 0.901055 0.0182718 0.5
42 3 0.0629965 0.0877508 0.5
58 3 0.159759 0.0713447 0.5
17 1 0.716135 0.0758769 0.5
37 2 0.0645227 0.127039 0.5
10 1 0.382654 0.133627 0.5
21 2 0.374231 0.102499 0.5
11 1 0.463012 0.13649 0.5
53 3 0.531354 0.127717 0.5
55 3 0.665059 0.151885 0.5
38 2 0.242382 0.2081 0.5
47 3 0.371715 0.190268 0.5
8 1 0.709469 0.185086 0.5
59 3 0.853466 0.200407 0.5
49 3 0.998406 0.204805 0.5
77 4 0.165483 0.245867 0.5
31 2 0.598514 0.217492 0.5
14 1 0.733616 0.22869 0.5
27 2 0.205614 0.277378 0.5
76 4 0.336008 0.284897 0.5
67 4 0.344878 0.357767 0.5
50 3 0.769164 0.332783 0.5
61 4 0.918316 0.338995 0.5
65 4 0.924884 0.331535 0.5
52 3 0.140262 0.389317 0.5
30 2 0.418576 0.413795 0.5
32 2 0.434685 0.371544 0.5
60 3 0.848063 0.412236 0.5
43 3 0.898312 0.402644 0.5
3 1 0.978169 0.414131 0.5
56 3 0.344319 0.457589 0.5
75 4 0.357368 0.433963 0.5
12 1 0.397981 0.43534 0.5
5 1 0.715328 0.438406 0.5
73 4 0.964601 0.463741 0.5
20 1 0.0127797 0.477933 0.5
57 3 0.0619758 0.493538 0.5
1 1 0.367684 0.502818 0.5
18 1 0.739956 0.525724 0.5
35 2 0.0103212 0.538234 0.5
46 3 0.0401242 0.532965 0.5
26 2 0.206955 0.560009 0.5
39 2 0.262798 0.576904 0.5
69 4 0.40017 0.569117 0.5
29 2 0.55441 0.554077 0.5
41 3 0.525144 0.554034 0.5
33 2 0.851266 0.553444 0.5
4 1 0.940789 0.53538 0.5
68 4 0.363156 0.596365 0.5
78 4 0.45244 0.631303 0.5
80 4 0.445473 0.607687 0.5
13 1 0.569682 0.612791 0.5
34 2 0.684879 0.630592 0.5
44 3 0.658623 0.579646 0.5
63 4 0.669631 0.614079 0.5
7 1 0.994836 0.584865 0.5
48 3 0.228332 0.662621 0.5
24 2 0.91579 0.683868 0.5
64 4 0.997266 0.63837 0.5
16 1 0.305046 0.700059 0.5
9 1 0.734066 0.692486 0.5
45 3 0.808118 0.684775 0.5
54 3 0.0258666 0.740177 0.5
2 1 0.131761 0.761327 0.5
15 1 0.219799 0.760325 0.5
19 1 0.48536 0.756736 0.5
74 4 0.502058 0.771174 0.5
22 2 0.154314 0.816212 0.5
71 4 0.54518 0.841429 0.5
23 2 0.733017 0.823993 0.5
6 1 0.0471183 0.86641 0.5
66 4 0.0635717 0.842043 0.5
36 2 0.624852 0.885116 0.5
40 2 0.80561 0.873176 0.5
79 4 0.993409 0.877804 0.5
70 4 0.115009 0.964107 0.5
25 2 0.4961 0.949489 0.5
72 4 0.63158 0.957995 0.5
28 2 0.900812 0.952065 0.5
ITEM: TIMESTEP
50
ITEM: NUMBER OF ATOMS
80
ITEM: BOX BOUNDS pp pp pp
-6.8430998843398143e+00 6.8430998843398143e+00
-6.8430998843398143e+00 6.8430998843398143e+00
-1.0000000000000001e-01 1.0000000000000001e-01
ITEM: ATOMS id type xs ys zs
62 4 0.451898 0.049779 0.5
51 3 0.901055 0.0184757 0.5
42 3 0.0629418 0.0863442 0.5
58 3 0.159759 0.0713447 0.5
17 1 0.716137 0.075857 0.5
37 2 0.0645773 0.128446 0.5
10 1 0.382849 0.135291 0.5
21 2 0.373496 0.0999812 0.5
11 1 0.463304 0.136591 0.5
53 3 0.53175 0.127667 0.5
55 3 0.664302 0.151309 0.5
38 2 0.242452 0.207969 0.5
47 3 0.371567 0.191073 0.5
8 1 0.709166 0.183799 0.5
59 3 0.853466 0.200407 0.5
49 3 0.998406 0.204805 0.5
77 4 0.165171 0.245623 0.5
31 2 0.598514 0.217492 0.5
14 1 0.734673 0.230574 0.5
27 2 0.205856 0.277754 0.5
76 4 0.336008 0.284897 0.5
67 4 0.344878 0.357767 0.5
50 3 0.769164 0.332783 0.5
61 4 0.917295 0.340155 0.5
65 4 0.925906 0.330375 0.5
52 3 0.140262 0.389317 0.5
30 2 0.4199 0.413281 0.5
32 2 0.435575 0.3696 0.5
60 3 0.847681 0.412309 0.5
43 3 0.898593 0.402556 0.5
3 1 0.978009 0.412451 0.5
56 3 0.342401 0.457795 0.5
75 4 0.356554 0.432855 0.5
12 1 0.398306 0.436523 0.5
5 1 0.715241 0.438097 0.5
73 4 0.963625 0.464265 0.5
20 1 0.0128042 0.476575 0.5
57 3 0.0635911 0.493219 0.5
1 1 0.367853 0.504947 0.5
18 1 0.740043 0.526033 0.5
35 2 0.00972911 0.538323 0.5
46 3 0.0422256 0.533519 0.5
26 2 0.206087 0.559746 0.5
39 2 0.263666 0.577167 0.5
69 4 0.400213 0.569151 0.5
29 2 0.555969 0.552972 0.5
41 3 0.523067 0.553728 0.5
33 2 0.851176 0.553463 0.5
4 1 0.939056 0.534837 0.5
68 4 0.363137 0.596379 0.5
78 4 0.452673 0.632092 0.5
80 4 0.445241 0.606898 0.5
13 1 0.5702 0.614202 0.5
34 2 0.686171 0.632217 0.5
44 3 0.658136 0.578483 0.5
63 4 0.668621 0.613358 0.5
7 1 0.994723 0.587009 0.5
48 3 0.228293 0.662602 0.5
24 2 0.91579 0.683868 0.5
64 4 0.997291 0.638954 0.5
16 1 0.305133 0.700043 0.5
9 1 0.734033 0.692768 0.5
45 3 0.808355 0.68475 0.5
54 3 0.0258666 0.740177 0.5
2 1 0.130857 0.760132 0.5
15 1 0.220317 0.760221 0.5
19 1 0.483652 0.75526 0.5
74 4 0.503765 0.77265 0.5
22 2 0.154651 0.817546 0.5
71 4 0.54518 0.841429 0.5
23 2 0.732999 0.823981 0.5
6 1 0.0466077 0.867831 0.5
66 4 0.0646379 0.840495 0.5
36 2 0.624852 0.885116 0.5
40 2 0.805628 0.873189 0.5
79 4 0.992853 0.877931 0.5
70 4 0.115009 0.964107 0.5
25 2 0.4961 0.949489 0.5
72 4 0.63158 0.957995 0.5
28 2 0.900811 0.951862 0.5
ITEM: TIMESTEP
60
ITEM: NUMBER OF ATOMS
80
ITEM: BOX BOUNDS pp pp pp
-6.6064002804409512e+00 6.6064002804409512e+00
-6.6064002804409512e+00 6.6064002804409512e+00
-1.0000000000000001e-01 1.0000000000000001e-01
ITEM: ATOMS id type xs ys zs
62 4 0.451898 0.049779 0.5
51 3 0.901057 0.0188207 0.5
42 3 0.0628709 0.0845186 0.5
58 3 0.159759 0.0713447 0.5
17 1 0.716158 0.0757545 0.5
37 2 0.0646482 0.130271 0.5
10 1 0.382983 0.137306 0.5
21 2 0.372512 0.0967446 0.5
11 1 0.463755 0.136752 0.5
53 3 0.532363 0.127588 0.5
55 3 0.663238 0.150538 0.5
38 2 0.242581 0.207724 0.5
47 3 0.371353 0.192212 0.5
8 1 0.708844 0.182229 0.5
59 3 0.853466 0.200407 0.5
49 3 0.998406 0.204805 0.5
77 4 0.164714 0.245264 0.5
31 2 0.598514 0.217492 0.5
14 1 0.736038 0.233017 0.5
27 2 0.206184 0.278357 0.5
76 4 0.336008 0.284897 0.5
67 4 0.344878 0.357767 0.5
50 3 0.769164 0.332783 0.5
61 4 0.916006 0.341619 0.5
65 4 0.927195 0.328911 0.5
52 3 0.140262 0.389317 0.5
30 2 0.421629 0.412645 0.5
32 2 0.43676 0.366982 0.5
60 3 0.847117 0.412416 0.5
43 3 0.898941 0.40242 0.5
3 1 0.977848 0.410158 0.5
56 3 0.339827 0.458056 0.5
75 4 0.355432 0.431356 0.5
12 1 0.398851 0.438042 0.5
5 1 0.715097 0.437587 0.5
73 4 0.962299 0.464923 0.5
20 1 0.012977 0.474698 0.5
57 3 0.0657924 0.49273 0.5
1 1 0.368026 0.507793 0.5
18 1 0.740187 0.526543 0.5
35 2 0.00900025 0.538486 0.5
46 3 0.0449883 0.534311 0.5
26 2 0.204907 0.559389 0.5
39 2 0.264846 0.577524 0.5
69 4 0.400327 0.569243 0.5
29 2 0.557956 0.551465 0.5
41 3 0.520368 0.553301 0.5
33 2 0.850966 0.553506 0.5
4 1 0.936675 0.534177 0.5
68 4 0.363087 0.596415 0.5
78 4 0.452976 0.633119 0.5
80 4 0.444938 0.605871 0.5
13 1 0.570908 0.616137 0.5
34 2 0.687754 0.634215 0.5
44 3 0.657481 0.576897 0.5
63 4 0.667346 0.612504 0.5
7 1 0.994569 0.58984 0.5
48 3 0.228191 0.662553 0.5
24 2 0.91579 0.683868 0.5
64 4 0.99733 0.639815 0.5
16 1 0.305363 0.700003 0.5
9 1 0.733983 0.693252 0.5
45 3 0.808756 0.684708 0.5
54 3 0.0258666 0.740177 0.5
2 1 0.129562 0.758545 0.5
15 1 0.2211 0.760075 0.5
19 1 0.481489 0.75339 0.5
74 4 0.505929 0.774521 0.5
22 2 0.155036 0.81937 0.5
71 4 0.54518 0.841429 0.5
23 2 0.732937 0.823939 0.5
6 1 0.0460573 0.869642 0.5
66 4 0.0659969 0.838508 0.5
36 2 0.624852 0.885113 0.5
40 2 0.80569 0.873231 0.5
79 4 0.992044 0.878107 0.5
70 4 0.115009 0.964107 0.5
25 2 0.4961 0.949489 0.5
72 4 0.63158 0.957997 0.5
28 2 0.90081 0.951517 0.5
ITEM: TIMESTEP
70
ITEM: NUMBER OF ATOMS
80
ITEM: BOX BOUNDS pp pp pp
-6.4430891216848494e+00 6.4430891216848494e+00
-6.4430891216848494e+00 6.4430891216848494e+00
-1.0000000000000001e-01 1.0000000000000001e-01
ITEM: ATOMS id type xs ys zs
62 4 0.451898 0.0497784 0.5
51 3 0.901059 0.0193259 0.5
42 3 0.0627843 0.0822883 0.5
58 3 0.159759 0.0713447 0.5
17 1 0.716213 0.0755066 0.5
37 2 0.0647349 0.132502 0.5
10 1 0.383023 0.139621 0.5
21 2 0.371283 0.0928138 0.5
11 1 0.464379 0.136977 0.5
53 3 0.533218 0.127477 0.5
55 3 0.661832 0.149584 0.5
38 2 0.242779 0.207346 0.5
47 3 0.371063 0.193714 0.5
8 1 0.708532 0.18044 0.5
59 3 0.853466 0.200407 0.5
49 3 0.998406 0.204805 0.5
77 4 0.164104 0.244783 0.5
31 2 0.598514 0.217492 0.5
14 1 0.7377 0.236008 0.5
27 2 0.206595 0.279216 0.5
76 4 0.336008 0.284897 0.5
67 4 0.344878 0.357767 0.5
50 3 0.769164 0.332783 0.5
61 4 0.914471 0.343356 0.5
65 4 0.928732 0.327165 0.5
52 3 0.140262 0.389317 0.5
30 2 0.423759 0.411891 0.5
32 2 0.438227 0.363682 0.5
60 3 0.846361 0.412561 0.5
43 3 0.899332 0.402241 0.5
3 1 0.977709 0.407235 0.5
56 3 0.33659 0.458365 0.5
75 4 0.354001 0.42946 0.5
12 1 0.399646 0.439911 0.5
5 1 0.71489 0.436852 0.5
73 4 0.96062 0.465692 0.5
20 1 0.0133396 0.4723 0.5
57 3 0.0685843 0.492061 0.5
1 1 0.368177 0.511316 0.5
18 1 0.740405 0.527272 0.5
35 2 0.00814255 0.538719 0.5
46 3 0.0484004 0.535365 0.5
26 2 0.203412 0.558937 0.5
39 2 0.266341 0.577976 0.5
69 4 0.400544 0.569423 0.5
29 2 0.560356 0.549545 0.5
41 3 0.517074 0.552768 0.5
33 2 0.850593 0.553586 0.5
4 1 0.933659 0.533419 0.5
68 4 0.362996 0.596484 0.5
78 4 0.453347 0.634377 0.5
80 4 0.444567 0.604614 0.5
13 1 0.571778 0.618603 0.5
34 2 0.68958 0.63652 0.5
44 3 0.656672 0.574883 0.5
63 4 0.665822 0.611546 0.5
7 1 0.994374 0.593321 0.5
48 3 0.228003 0.662455 0.5
24 2 0.91579 0.683868 0.5
64 4 0.997386 0.640991 0.5
16 1 0.305787 0.699927 0.5
9 1 0.733918 0.693976 0.5
45 3 0.809344 0.684645 0.5
54 3 0.0258666 0.740177 0.5
2 1 0.127858 0.756571 0.5
15 1 0.222148 0.759901 0.5
19 1 0.478898 0.751149 0.5
74 4 0.50852 0.776761 0.5
22 2 0.155455 0.821691 0.5
71 4 0.54518 0.841429 0.5
23 2 0.73281 0.823853 0.5
6 1 0.0455072 0.871828 0.5
66 4 0.0676314 0.8361 0.5
36 2 0.62485 0.885093 0.5
40 2 0.805816 0.873316 0.5
79 4 0.99096 0.878329 0.5
70 4 0.115009 0.964107 0.5
25 2 0.4961 0.949489 0.5
72 4 0.631582 0.958017 0.5
28 2 0.900808 0.951011 0.5
ITEM: TIMESTEP
80
ITEM: NUMBER OF ATOMS
80
ITEM: BOX BOUNDS pp pp pp
-6.3438963129432748e+00 6.3438963129432748e+00
-6.3438963129432748e+00 6.3438963129432748e+00
-1.0000000000000001e-01 1.0000000000000001e-01
ITEM: ATOMS id type xs ys zs
62 4 0.451897 0.0497702 0.5
51 3 0.901061 0.0199981 0.5
42 3 0.0626835 0.0796928 0.5
58 3 0.159759 0.0713447 0.5
17 1 0.716318 0.0750668 0.5
37 2 0.0648357 0.135097 0.5
10 1 0.382944 0.142167 0.5
21 2 0.369834 0.0882553 0.5
11 1 0.465171 0.137268 0.5
53 3 0.534326 0.127331 0.5
55 3 0.660069 0.148468 0.5
38 2 0.243049 0.206825 0.5
47 3 0.370692 0.195589 0.5
8 1 0.70826 0.1785 0.5
59 3 0.853466 0.200407 0.5
49 3 0.998406 0.204805 0.5
77 4 0.163344 0.244182 0.5
31 2 0.598514 0.217492 0.5
14 1 0.73963 0.2395 0.5
27 2 0.207085 0.280338 0.5
76 4 0.336008 0.284897 0.5
67 4 0.344878 0.357767 0.5
50 3 0.769165 0.332786 0.5
61 4 0.912727 0.3453 0.5
65 4 0.930485 0.325174 0.5
52 3 0.140262 0.389317 0.5
30 2 0.426258 0.411035 0.5
32 2 0.439942 0.359738 0.5
60 3 0.84541 0.412744 0.5
43 3 0.899738 0.402048 0.5
3 1 0.977609 0.403706 0.5
56 3 0.332725 0.458714 0.5
75 4 0.352293 0.427194 0.5
12 1 0.400698 0.442128 0.5
5 1 0.714617 0.435883 0.5
73 4 0.958607 0.466546 0.5
20 1 0.013918 0.469433 0.5
57 3 0.071929 0.49122 0.5
1 1 0.368276 0.515391 0.5
18 1 0.740714 0.528219 0.5
35 2 0.0071728 0.539001 0.5
46 3 0.0524071 0.536687 0.5
26 2 0.20162 0.558395 0.5
39 2 0.268133 0.578518 0.5
69 4 0.400894 0.569716 0.5
29 2 0.563126 0.547228 0.5
41 3 0.513256 0.552154 0.5
33 2 0.850023 0.553715 0.5
4 1 0.930072 0.532581 0.5
68 4 0.362853 0.596616 0.5
78 4 0.45378 0.635842 0.5
80 4 0.444134 0.603148 0.5
13 1 0.572767 0.621562 0.5
34 2 0.691583 0.639037 0.5
44 3 0.655724 0.572473 0.5
63 4 0.664073 0.610521 0.5
7 1 0.994145 0.597352 0.5
48 3 0.227718 0.662288 0.5
24 2 0.91579 0.683868 0.5
64 4 0.997462 0.642505 0.5
16 1 0.30644 0.699805 0.5
9 1 0.733849 0.694974 0.5
45 3 0.810128 0.684558 0.5
54 3 0.0258663 0.740177 0.5
2 1 0.125763 0.754238 0.5
15 1 0.223437 0.759734 0.5
19 1 0.475934 0.748587 0.5
74 4 0.511483 0.779323 0.5
22 2 0.155895 0.824479 0.5
71 4 0.54518 0.841429 0.5
23 2 0.732605 0.823715 0.5
6 1 0.0449982 0.874358 0.5
66 4 0.0695078 0.83331 0.5
36 2 0.624845 0.885042 0.5
40 2 0.806021 0.873455 0.5
79 4 0.989593 0.878589 0.5
70 4 0.115009 0.964107 0.5
25 2 0.4961 0.949489 0.5
72 4 0.631586 0.958068 0.5
28 2 0.900806 0.950339 0.5
ITEM: TIMESTEP
90
ITEM: NUMBER OF ATOMS
80
ITEM: BOX BOUNDS pp pp pp
-6.3018131948805047e+00 6.3018131948805047e+00
-6.3018131948805047e+00 6.3018131948805047e+00
-1.0000000000000001e-01 1.0000000000000001e-01
ITEM: ATOMS id type xs ys zs
62 4 0.451893 0.0497477 0.5
51 3 0.901064 0.0208303 0.5
42 3 0.0625709 0.0767952 0.5
58 3 0.159759 0.0713447 0.5
17 1 0.716479 0.0744088 0.5
37 2 0.0649483 0.137995 0.5
10 1 0.382731 0.144864 0.5
21 2 0.368213 0.0831761 0.5
11 1 0.466105 0.137615 0.5
53 3 0.535682 0.127151 0.5
55 3 0.657956 0.147214 0.5
38 2 0.243388 0.206165 0.5
47 3 0.37024 0.197828 0.5
8 1 0.708056 0.176483 0.5
59 3 0.853466 0.200407 0.5
49 3 0.998406 0.204805 0.5
77 4 0.16245 0.243469 0.5
31 2 0.598514 0.217492 0.5
14 1 0.741776 0.243396 0.5
27 2 0.20764 0.281711 0.5
76 4 0.336008 0.284897 0.5
67 4 0.344878 0.357767 0.5
50 3 0.769175 0.33282 0.5
61 4 0.910811 0.347362 0.5
65 4 0.932407 0.322989 0.5
52 3 0.140262 0.389317 0.5
30 2 0.429072 0.410088 0.5
32 2 0.441852 0.355232 0.5
60 3 0.844279 0.412962 0.5
43 3 0.900129 0.401875 0.5
3 1 0.977574 0.399643 0.5
56 3 0.328316 0.459091 0.5
75 4 0.35037 0.424615 0.5
12 1 0.401991 0.444672 0.5
5 1 0.71428 0.434692 0.5
73 4 0.956307 0.467452 0.5
20 1 0.0147214 0.466182 0.5
57 3 0.0757479 0.49023 0.5
1 1 0.368288 0.519844 0.5
18 1 0.741115 0.529364 0.5
35 2 0.00611876 0.539307 0.5
46 3 0.056911 0.538267 0.5
26 2 0.19957 0.557774 0.5
39 2 0.270183 0.579139 0.5
69 4 0.401394 0.570139 0.5
29 2 0.566202 0.544562 0.5
41 3 0.509023 0.551496 0.5
33 2 0.849243 0.553905 0.5
4 1 0.926021 0.531682 0.5
68 4 0.362655 0.596849 0.5
78 4 0.454263 0.637481 0.5
80 4 0.443655 0.601512 0.5
13 1 0.573828 0.624937 0.5
34 2 0.693684 0.641654 0.5
44 3 0.654658 0.569729 0.5
63 4 0.662139 0.609467 0.5
7 1 0.993888 0.601791 0.5
48 3 0.227333 0.662038 0.5
24 2 0.91579 0.683868 0.5
64 4 0.997563 0.644367 0.5
16 1 0.307335 0.69963 0.5
9 1 0.733788 0.696262 0.5
45 3 0.811104 0.684445 0.5
54 3 0.0258546 0.740175 0.5
2 1 0.123333 0.751603 0.5
15 1 0.224918 0.759605 0.5
19 1 0.472675 0.745769 0.5
74 4 0.514743 0.782141 0.5
22 2 0.156344 0.827671 0.5
71 4 0.54518 0.841429 0.5
23 2 0.732317 0.823519 0.5
6 1 0.0445674 0.877181 0.5
66 4 0.0715789 0.830204 0.5
36 2 0.624837 0.884953 0.5
40 2 0.806309 0.87365 0.5
79 4 0.987952 0.878873 0.5
70 4 0.115009 0.964107 0.5
25 2 0.4961 0.949489 0.5
72 4 0.631595 0.958158 0.5
28 2 0.900802 0.949507 0.5
ITEM: TIMESTEP
100
ITEM: NUMBER OF ATOMS
80
ITEM: BOX BOUNDS pp pp pp
-6.3069960367419675e+00 6.3069960367419675e+00
-6.3069960367419675e+00 6.3069960367419675e+00
-1.0000000000000001e-01 1.0000000000000001e-01
ITEM: ATOMS id type xs ys zs
62 4 0.451888 0.0497103 0.5
51 3 0.901068 0.0218038 0.5
42 3 0.0624497 0.0736754 0.5
58 3 0.159759 0.0713447 0.5
17 1 0.716696 0.073528 0.5
37 2 0.0650695 0.141115 0.5
10 1 0.382379 0.147621 0.5
21 2 0.366483 0.0777123 0.5
11 1 0.467138 0.137996 0.5
53 3 0.537268 0.126935 0.5
55 3 0.655522 0.145848 0.5
38 2 0.243787 0.20538 0.5
47 3 0.369708 0.200406 0.5
8 1 0.707943 0.17446 0.5
59 3 0.853466 0.200407 0.5
49 3 0.998406 0.204805 0.5
77 4 0.161445 0.242664 0.5
31 2 0.598514 0.217492 0.5
14 1 0.744076 0.247569 0.5
27 2 0.208246 0.283302 0.5
76 4 0.336008 0.284897 0.5
67 4 0.344878 0.357767 0.5
50 3 0.769205 0.332917 0.5
61 4 0.90876 0.349446 0.5
65 4 0.934437 0.320661 0.5
52 3 0.140262 0.389317 0.5
30 2 0.432133 0.409064 0.5
32 2 0.443894 0.350279 0.5
60 3 0.842991 0.413211 0.5
43 3 0.900481 0.401756 0.5
3 1 0.977628 0.395155 0.5
56 3 0.32348 0.459486 0.5
75 4 0.348301 0.421779 0.5
12 1 0.403485 0.447493 0.5
5 1 0.713889 0.433305 0.5
73 4 0.953786 0.468375 0.5
20 1 0.0157413 0.462651 0.5
57 3 0.0799318 0.489129 0.5
1 1 0.368184 0.5245 0.5
18 1 0.741591 0.530675 0.5
35 2 0.00501866 0.539602 0.5
46 3 0.0617823 0.540077 0.5
26 2 0.197315 0.557092 0.5
39 2 0.272433 0.579824 0.5
69 4 0.402045 0.570699 0.5
29 2 0.5695 0.541618 0.5
41 3 0.504513 0.550835 0.5
33 2 0.848254 0.55417 0.5
4 1 0.921651 0.530737 0.5
68 4 0.3624 0.597212 0.5
78 4 0.454784 0.639248 0.5
80 4 0.443153 0.59976 0.5
13 1 0.5749 0.628613 0.5
34 2 0.695802 0.644249 0.5
44 3 0.653505 0.566733 0.5
63 4 0.660074 0.608418 0.5
7 1 0.993616 0.606473 0.5
48 3 0.226855 0.661706 0.5
24 2 0.915781 0.683877 0.5
64 4 0.997693 0.646571 0.5
16 1 0.308466 0.699396 0.5
9 1 0.733749 0.697844 0.5
45 3 0.812255 0.684305 0.5
54 3 0.025809 0.74017 0.5
2 1 0.120665 0.748741 0.5
15 1 0.226529 0.759538 0.5
19 1 0.469212 0.742775 0.5
74 4 0.518206 0.785136 0.5
22 2 0.156795 0.831171 0.5
71 4 0.54518 0.841429 0.5
23 2 0.731949 0.82327 0.5
6 1 0.0442445 0.880233 0.5
66 4 0.0737888 0.826858 0.5
36 2 0.624825 0.884824 0.5
40 2 0.806677 0.873899 0.5
79 4 0.986065 0.879165 0.5
70 4 0.115009 0.964107 0.5
25 2 0.4961 0.949489 0.5
72 4 0.631607 0.958287 0.5
28 2 0.900799 0.948533 0.5
ITEM: TIMESTEP
110
ITEM: NUMBER OF ATOMS
80
ITEM: BOX BOUNDS pp pp pp
-6.3429418859764164e+00 6.3429418859764164e+00
-6.3429418859764164e+00 6.3429418859764164e+00
-1.0000000000000001e-01 1.0000000000000001e-01
ITEM: ATOMS id type xs ys zs
62 4 0.45188 0.0496628 0.5
51 3 0.901072 0.0228926 0.5
42 3 0.0623231 0.0704158 0.5
58 3 0.159759 0.0713447 0.5
17 1 0.716963 0.0724365 0.5
37 2 0.0651962 0.144374 0.5
10 1 0.381892 0.150355 0.5
21 2 0.364699 0.0719979 0.5
11 1 0.468232 0.138389 0.5
53 3 0.53906 0.126687 0.5
55 3 0.652808 0.144392 0.5
38 2 0.244231 0.204492 0.5
47 3 0.369102 0.203289 0.5
8 1 0.707938 0.172488 0.5
59 3 0.853466 0.200407 0.5
49 3 0.998406 0.204805 0.5
77 4 0.160359 0.241787 0.5
31 2 0.598514 0.217492 0.5
14 1 0.74647 0.251899 0.5
27 2 0.208888 0.285067 0.5
76 4 0.336008 0.284897 0.5
67 4 0.344878 0.357767 0.5
50 3 0.769262 0.333106 0.5
61 4 0.906613 0.351474 0.5
65 4 0.936512 0.318233 0.5
52 3 0.140262 0.389317 0.5
30 2 0.435389 0.407968 0.5
32 2 0.446006 0.345012 0.5
60 3 0.841574 0.413485 0.5
43 3 0.900781 0.401723 0.5
3 1 0.977785 0.390359 0.5
56 3 0.318351 0.459893 0.5
75 4 0.346142 0.41875 0.5
12 1 0.405126 0.450525 0.5
5 1 0.713452 0.431761 0.5
73 4 0.951123 0.469274 0.5
20 1 0.0169527 0.458963 0.5
57 3 0.0843645 0.487955 0.5
1 1 0.367952 0.529195 0.5
18 1 0.742122 0.532117 0.5
35 2 0.00391403 0.539856 0.5
46 3 0.0668802 0.542077 0.5
26 2 0.194915 0.556366 0.5
39 2 0.274802 0.580568 0.5
69 4 0.402844 0.57139 0.5
29 2 0.572914 0.538474 0.5
41 3 0.49986 0.550201 0.5
33 2 0.847063 0.55452 0.5
4 1 0.917118 0.529757 0.5
68 4 0.362094 0.597725 0.5
78 4 0.45533 0.641097 0.5
80 4 0.442657 0.597946 0.5
13 1 0.57594 0.632474 0.5
34 2 0.697858 0.646708 0.5
44 3 0.652313 0.563584 0.5
63 4 0.657935 0.607402 0.5
7 1 0.993348 0.611217 0.5
48 3 0.226299 0.661304 0.5
24 2 0.915747 0.683911 0.5
64 4 0.997858 0.649106 0.5
16 1 0.309809 0.699099 0.5
9 1 0.733748 0.699718 0.5
45 3 0.813556 0.684139 0.5
54 3 0.0257108 0.74016 0.5
2 1 0.117863 0.745732 0.5
15 1 0.228199 0.759549 0.5
19 1 0.465637 0.739683 0.5
74 4 0.521781 0.788227 0.5
22 2 0.157239 0.834876 0.5
71 4 0.54518 0.841429 0.5
23 2 0.731512 0.822974 0.5
6 1 0.0440489 0.883448 0.5
66 4 0.0760815 0.823359 0.5
36 2 0.62481 0.884658 0.5
40 2 0.807114 0.874196 0.5
79 4 0.983967 0.879452 0.5
70 4 0.115009 0.964107 0.5
25 2 0.4961 0.949489 0.5
72 4 0.631622 0.958453 0.5
28 2 0.900795 0.947445 0.5
ITEM: TIMESTEP
120
ITEM: NUMBER OF ATOMS
80
ITEM: BOX BOUNDS pp pp pp
-6.3865729149906185e+00 6.3865729149906185e+00
-6.3865729149906185e+00 6.3865729149906185e+00
-1.0000000000000001e-01 1.0000000000000001e-01
ITEM: ATOMS id type xs ys zs
62 4 0.451872 0.0496127 0.5
51 3 0.901076 0.0240706 0.5
42 3 0.0621937 0.067086 0.5
58 3 0.159759 0.0713447 0.5
17 1 0.717269 0.0711544 0.5
37 2 0.0653288 0.147701 0.5
10 1 0.381274 0.152998 0.5
21 2 0.362888 0.066132 0.5
11 1 0.469369 0.138777 0.5
53 3 0.541035 0.126408 0.5
55 3 0.649857 0.142862 0.5
38 2 0.24471 0.203525 0.5
47 3 0.368427 0.206453 0.5
8 1 0.708052 0.17061 0.5
59 3 0.853466 0.200407 0.5
49 3 0.998402 0.204808 0.5
77 4 0.159216 0.240859 0.5
31 2 0.598514 0.217492 0.5
14 1 0.748912 0.256284 0.5
27 2 0.209552 0.286961 0.5
76 4 0.336008 0.284897 0.5
67 4 0.344878 0.357767 0.5
50 3 0.769352 0.333411 0.5
61 4 0.904403 0.353385 0.5
65 4 0.938582 0.315739 0.5
52 3 0.140262 0.389317 0.5
30 2 0.438803 0.406802 0.5
32 2 0.448138 0.339541 0.5
60 3 0.840051 0.413781 0.5
43 3 0.901021 0.401801 0.5
3 1 0.978045 0.385352 0.5
56 3 0.313053 0.460307 0.5
75 4 0.343936 0.415586 0.5
12 1 0.406854 0.453698 0.5
5 1 0.712981 0.430094 0.5
73 4 0.948388 0.470106 0.5
20 1 0.0183238 0.455234 0.5
57 3 0.0889672 0.486733 0.5
1 1 0.367582 0.533803 0.5
18 1 0.742688 0.533655 0.5