ITEM: TIMESTEP
500
ITEM: NUMBER OF ATOMS
70
ITEM: BOX BOUNDS pp pp pp
-4.8237545762112255e+00 4.8237545762112255e+00
-4.8270079582187577e+00 4.8270079582187577e+00
-1.0000000000000001e-01 1.0000000000000001e-01
ITEM: ATOMS id type xs ys zs
2 1 0.0879019 0.052586 0.499801
29 1 0.205647 0.00210079 0.500103
77 1 0.305538 0.0198178 0.501724
17 1 0.411041 0.035074 0.500879
32 1 0.544525 0.0648143 0.499572
33 1 0.665433 0.0261299 0.500121
80 1 0.726884 0.0741306 0.499559
48 1 0.807068 0.0906379 0.500823
71 1 0.917324 0.097681 0.49982
67 1 0.873009 0.0440579 0.499731
55 1 0.959567 0.029255 0.499823
69 1 0.0554246 0.152945 0.499583
6 1 0.265429 0.122903 0.501461
49 1 0.503991 0.172482 0.500517
39 1 0.650006 0.139999 0.500607
75 1 0.747855 0.145299 0.500564
11 1 0.865781 0.192555 0.500304
50 1 0.0445232 0.312353 0.499916
10 1 0.150852 0.222999 0.499221
62 1 0.232344 0.301041 0.500572
5 1 0.444533 0.274406 0.500272
34 1 0.574643 0.249613 0.500001
13 1 0.724122 0.256594 0.499887
66 1 0.84043 0.304571 0.499912
45 1 0.0168216 0.224759 0.499207
38 1 0.00820402 0.417726 0.498881
1 1 0.148299 0.369701 0.499981
20 1 0.307883 0.373059 0.499319
59 1 0.424305 0.388039 0.499859
7 1 0.545695 0.394025 0.499786
23 1 0.679262 0.381622 0.4994
47 1 0.793819 0.368851 0.501543
28 1 0.936416 0.319496 0.500205
8 1 0.2533 0.501811 0.500171
19 1 0.405778 0.511276 0.499349
56 1 0.753397 0.454949 0.499641
27 1 0.653069 0.502194 0.499433
3 1 0.883567 0.454835 0.499891
4 1 0.990604 0.56553 0.501595
31 1 0.212846 0.644904 0.500237
35 1 0.333172 0.624959 0.499594
76 1 0.418671 0.613534 0.500255
15 1 0.530027 0.591898 0.500809
24 1 0.770317 0.563922 0.500624
54 1 0.877276 0.601664 0.499492
9 1 0.0680896 0.695928 0.501238
30 1 0.185242 0.773249 0.5007
64 1 0.267521 0.710619 0.499289
43 1 0.335504 0.73789 0.500587
41 1 0.533486 0.717187 0.500556
26 1 0.642076 0.671377 0.499848
63 1 0.609554 0.751617 0.49894
74 1 0.612559 0.805314 0.499514
16 1 0.78397 0.701932 0.499689
21 1 0.937511 0.691788 0.500934
51 1 0.09439 0.826807 0.499378
61 1 0.317497 0.820371 0.498293
40 1 0.250779 0.880818 0.499966
36 1 0.376843 0.896931 0.500588
18 1 0.509555 0.835034 0.499942
25 1 0.696767 0.803136 0.501132
12 1 0.825207 0.862724 0.500844
14 1 0.981789 0.827963 0.501325
57 1 0.146878 0.901189 0.500345
68 1 0.307394 0.959931 0.500265
78 1 0.463403 0.929699 0.500123
60 1 0.540143 0.955741 0.499966
37 1 0.631549 0.902935 0.499073
53 1 0.736179 0.931568 0.500269
44 1 0.928773 0.941745 0.499409
ITEM: TIMESTEP
750
ITEM: NUMBER OF ATOMS
70
ITEM: BOX BOUNDS pp pp pp
-4.8225484711246702e+00 4.8225484711246702e+00
-4.8247339531616955e+00 4.8247339531616955e+00
-1.0000000000000001e-01 1.0000000000000001e-01
ITEM: ATOMS id type xs ys zs
2 1 0.0875813 0.0540867 0.501342
29 1 0.205119 0.00315387 0.501154
77 1 0.305278 0.0191943 0.502064
17 1 0.41105 0.035409 0.502603
32 1 0.54429 0.0653166 0.499763
33 1 0.664972 0.0265122 0.500529
80 1 0.727026 0.0742651 0.498714
48 1 0.807924 0.0907622 0.502709
71 1 0.91652 0.0976244 0.499483
67 1 0.872645 0.0431457 0.499733
55 1 0.959155 0.0295434 0.499436
69 1 0.0542994 0.153671 0.497063
6 1 0.265051 0.122621 0.502916
49 1 0.50408 0.172753 0.499952
39 1 0.649595 0.140158 0.503063
75 1 0.747599 0.145122 0.501683
11 1 0.865762 0.193308 0.500864
50 1 0.0446675 0.312631 0.498456
10 1 0.150685 0.222239 0.499406
62 1 0.233128 0.300427 0.499754
5 1 0.444592 0.274135 0.500515
34 1 0.574434 0.24918 0.500529
13 1 0.723838 0.256871 0.499484
66 1 0.840677 0.305268 0.501262
45 1 0.016042 0.225205 0.49972
38 1 0.00880363 0.418165 0.500209
1 1 0.148899 0.369135 0.498406
20 1 0.308422 0.373319 0.49967
59 1 0.424882 0.388223 0.500221
7 1 0.546018 0.39425 0.500605
23 1 0.679282 0.382463 0.500242
47 1 0.794227 0.369731 0.502297
28 1 0.936663 0.319841 0.500244
8 1 0.25357 0.501706 0.49936
19 1 0.406015 0.511343 0.500402
56 1 0.753985 0.455965 0.500485
27 1 0.652998 0.503352 0.49778
3 1 0.884316 0.455446 0.501296
4 1 0.99067 0.566086 0.50043
31 1 0.213274 0.644267 0.501338
35 1 0.333709 0.624806 0.498234
76 1 0.419194 0.613118 0.500372
15 1 0.530948 0.591447 0.499961
24 1 0.771865 0.56428 0.501651
54 1 0.877731 0.602507 0.49999
9 1 0.0680458 0.696153 0.500981
30 1 0.185959 0.773312 0.499452
64 1 0.26707 0.710291 0.498662
43 1 0.33482 0.737557 0.50097
41 1 0.533651 0.716995 0.500065
26 1 0.642109 0.671142 0.499815
63 1 0.609703 0.751806 0.500206
74 1 0.612808 0.805269 0.499943
16 1 0.783941 0.702427 0.499115
21 1 0.936782 0.693201 0.498924
51 1 0.0951023 0.827771 0.498769
61 1 0.317776 0.81984 0.498319
40 1 0.251086 0.881164 0.498619
36 1 0.377618 0.896294 0.500805
18 1 0.509625 0.834879 0.49836
25 1 0.697503 0.802921 0.500744
12 1 0.825223 0.863172 0.502086
14 1 0.982651 0.828984 0.49997
57 1 0.148176 0.901888 0.502639
68 1 0.30841 0.959637 0.501622
78 1 0.464119 0.930156 0.501443
60 1 0.541244 0.955765 0.499134
37 1 0.632494 0.902974 0.49935
53 1 0.736519 0.931857 0.498622
44 1 0.928412 0.941844 0.500344
ITEM: TIMESTEP
1000
ITEM: NUMBER OF ATOMS
70
ITEM: BOX BOUNDS pp pp pp
-4.8213423660381158e+00 4.8213423660381158e+00
-4.8282797643490678e+00 4.8282797643490678e+00
-1.0000000000000001e-01 1.0000000000000001e-01
ITEM: ATOMS id type xs ys zs
2 1 0.0877973 0.0535632 0.500625
29 1 0.205873 0.00304341 0.501423
77 1 0.306623 0.0190136 0.50024
17 1 0.412214 0.035039 0.501705
32 1 0.544686 0.0652173 0.499925
33 1 0.665115 0.0260674 0.499591
80 1 0.727319 0.073411 0.498321
48 1 0.807548 0.091753 0.503183
71 1 0.915621 0.0980844 0.500203
67 1 0.871943 0.0429228 0.498216
55 1 0.959264 0.0300875 0.498304
69 1 0.0548649 0.153864 0.496243
6 1 0.267403 0.122345 0.501543
49 1 0.502047 0.172293 0.500916
39 1 0.649964 0.139463 0.504692
75 1 0.747834 0.145962 0.500527
11 1 0.865728 0.194288 0.500088
50 1 0.0456685 0.312727 0.500584
10 1 0.15151 0.222294 0.496852
62 1 0.232762 0.300534 0.499444
5 1 0.444227 0.275324 0.500365
34 1 0.573731 0.248234 0.502709
13 1 0.723421 0.257248 0.499359
66 1 0.841036 0.305609 0.501832
45 1 0.0169183 0.225647 0.497759
38 1 0.00900043 0.417828 0.499395
1 1 0.148886 0.369969 0.498462
20 1 0.307968 0.373659 0.50048
59 1 0.424434 0.389168 0.501044
7 1 0.545995 0.393903 0.499609
23 1 0.679348 0.383047 0.500115
47 1 0.794276 0.369576 0.50174
28 1 0.937294 0.320413 0.500231
8 1 0.254135 0.501894 0.501348
19 1 0.406539 0.512217 0.500783
56 1 0.754415 0.455429 0.500934
27 1 0.65375 0.504016 0.497494
3 1 0.884452 0.455234 0.500345
4 1 0.991638 0.56583 0.49816
31 1 0.212162 0.644717 0.501697
35 1 0.333103 0.624838 0.499289
76 1 0.419279 0.614117 0.500375
15 1 0.530337 0.592462 0.501112
24 1 0.771976 0.563843 0.504008
54 1 0.878388 0.602469 0.499102
9 1 0.0693837 0.695926 0.50153
30 1 0.186514 0.773028 0.501135
64 1 0.267657 0.709501 0.495944
43 1 0.335041 0.73774 0.501792
41 1 0.534635 0.71771 0.499139
26 1 0.642265 0.670534 0.499234
63 1 0.610422 0.751414 0.498737
74 1 0.613268 0.804836 0.50162
16 1 0.784597 0.701924 0.497972
21 1 0.938612 0.691927 0.499986
51 1 0.0954789 0.826988 0.501082
61 1 0.317717 0.820016 0.499472
40 1 0.251189 0.880925 0.497958
36 1 0.377862 0.896209 0.499316
18 1 0.510195 0.834993 0.499137
25 1 0.698054 0.802888 0.501875
12 1 0.825622 0.862342 0.501854
14 1 0.982815 0.828167 0.499962
57 1 0.148525 0.901533 0.503104
68 1 0.308041 0.959241 0.501381
78 1 0.464224 0.929473 0.502101
60 1 0.540815 0.955641 0.499734
37 1 0.632798 0.902929 0.500105
53 1 0.73726 0.931944 0.497825
44 1 0.928976 0.942084 0.501315
ITEM: TIMESTEP
1250
ITEM: NUMBER OF ATOMS
70
ITEM: BOX BOUNDS pp pp pp
-4.8201362609515614e+00 4.8201362609515614e+00
-4.8280893062077537e+00 4.8280893062077537e+00
-1.0000000000000001e-01 1.0000000000000001e-01
ITEM: ATOMS id type xs ys zs
2 1 0.0874417 0.0541022 0.500024
29 1 0.205443 0.00243771 0.502834
77 1 0.305555 0.0191062 0.497246
17 1 0.410649 0.0351898 0.501663
32 1 0.543969 0.0648849 0.499672
33 1 0.665169 0.0261294 0.498772
80 1 0.727186 0.0743262 0.499008
48 1 0.807691 0.0920205 0.505751
71 1 0.915565 0.0977647 0.500256
67 1 0.871881 0.0432596 0.498959
55 1 0.959062 0.0306852 0.497926
69 1 0.0555381 0.154371 0.494515
6 1 0.265873 0.122436 0.501399
49 1 0.502857 0.172123 0.500931
39 1 0.649577 0.139977 0.50276
75 1 0.747097 0.14591 0.50055
11 1 0.865675 0.193519 0.501077
50 1 0.0451593 0.312485 0.500189
10 1 0.151232 0.223328 0.496172
62 1 0.232584 0.301071 0.499221
5 1 0.444207 0.274212 0.499631
34 1 0.574483 0.248698 0.5012
13 1 0.724026 0.256997 0.500692
66 1 0.840652 0.305368 0.504208
45 1 0.01603 0.225044 0.49524
38 1 0.00837427 0.41764 0.499173
1 1 0.149188 0.370471 0.497831
20 1 0.308578 0.372984 0.502552
59 1 0.424446 0.388162 0.501192
7 1 0.545085 0.39267 0.498797
23 1 0.678835 0.382431 0.500395
47 1 0.794205 0.369384 0.502983
28 1 0.936898 0.319846 0.503789
8 1 0.253913 0.5013 0.500527
19 1 0.406368 0.511541 0.502618
56 1 0.753672 0.455289 0.500104
27 1 0.653525 0.504244 0.499268
3 1 0.883961 0.455661 0.500024
4 1 0.991422 0.565462 0.497909
31 1 0.212294 0.644597 0.500759
35 1 0.332554 0.624713 0.497984
76 1 0.418838 0.613465 0.499539
15 1 0.530109 0.592679 0.500243
24 1 0.771586 0.56418 0.504703
54 1 0.878518 0.602314 0.500594
9 1 0.0692412 0.695825 0.50131
30 1 0.187231 0.773892 0.501669
64 1 0.267706 0.709634 0.496084
43 1 0.335601 0.737178 0.501678
41 1 0.534659 0.717748 0.498051
26 1 0.642651 0.670775 0.49996
63 1 0.61071 0.751368 0.499546
74 1 0.61322 0.805223 0.50152
16 1 0.785126 0.702353 0.499022
21 1 0.938344 0.692274 0.500358
51 1 0.0954036 0.826907 0.501004
61 1 0.318295 0.819665 0.499031
40 1 0.251611 0.880731 0.499188
36 1 0.378117 0.896622 0.499645
18 1 0.510061 0.835137 0.499047
25 1 0.698203 0.803511 0.501575
12 1 0.826508 0.863134 0.502174
14 1 0.982659 0.828109 0.499319
57 1 0.148388 0.901422 0.502984
68 1 0.308439 0.959352 0.502018
78 1 0.464713 0.930534 0.501843
60 1 0.541758 0.95566 0.498892
37 1 0.632888 0.902725 0.499815
53 1 0.737238 0.931735 0.498144
44 1 0.930581 0.942112 0.499807
ITEM: TIMESTEP
1500
ITEM: NUMBER OF ATOMS
70
ITEM: BOX BOUNDS pp pp pp
-4.8189301558650062e+00 4.8189301558650062e+00
-4.8251310652645394e+00 4.8251310652645394e+00
-1.0000000000000001e-01 1.0000000000000001e-01
ITEM: ATOMS id type xs ys zs
2 1 0.0863419 0.0537986 0.50161
29 1 0.204812 0.00249508 0.504545
77 1 0.304963 0.0191686 0.49788
17 1 0.410578 0.0368799 0.500995
32 1 0.544207 0.065716 0.501053
33 1 0.664763 0.0266067 0.499546
80 1 0.726684 0.0740223 0.500025
48 1 0.806635 0.0905108 0.507735
71 1 0.913975 0.0969841 0.501527
67 1 0.871115 0.0417245 0.498429
55 1 0.958179 0.0299552 0.499532
69 1 0.0548989 0.154016 0.494759
6 1 0.26597 0.122532 0.502438
49 1 0.501987 0.172183 0.50215
39 1 0.649462 0.140252 0.503854
75 1 0.747961 0.146023 0.50041
11 1 0.865406 0.193564 0.503393
50 1 0.0456102 0.312054 0.500917
10 1 0.151238 0.222888 0.496328
62 1 0.233498 0.300748 0.499856
5 1 0.443498 0.274215 0.499002
34 1 0.573508 0.248422 0.501748
13 1 0.723166 0.257124 0.504032
66 1 0.840384 0.305503 0.504919
45 1 0.0162863 0.225252 0.493181
38 1 0.00921818 0.416972 0.498564
1 1 0.148967 0.369691 0.497998
20 1 0.308283 0.373381 0.502552
59 1 0.424144 0.388628 0.501262
7 1 0.545027 0.393914 0.498325
23 1 0.678971 0.382568 0.501865
47 1 0.793613 0.36954 0.503359
28 1 0.936985 0.319202 0.502447
8 1 0.252535 0.501054 0.499566
19 1 0.405157 0.511648 0.501601
56 1 0.753748 0.45533 0.501326
27 1 0.653317 0.50389 0.498105
3 1 0.884063 0.455299 0.500367
4 1 0.992466 0.564878 0.497745
31 1 0.212165 0.64519 0.501082
35 1 0.331927 0.624574 0.496456
76 1 0.417605 0.613553 0.499675
15 1 0.52907 0.592327 0.500081
24 1 0.772126 0.564223 0.504524
54 1 0.879404 0.600963 0.500799
9 1 0.0699098 0.694911 0.499102
30 1 0.186275 0.773155 0.502433
64 1 0.267345 0.710902 0.497045
43 1 0.33577 0.737036 0.502723
41 1 0.533294 0.718212 0.498606
26 1 0.641597 0.670578 0.499708
63 1 0.609704 0.751058 0.500416
74 1 0.612962 0.804848 0.500761
16 1 0.784762 0.701951 0.500651
21 1 0.93897 0.691075 0.501427
51 1 0.0953864 0.826405 0.500251
61 1 0.319142 0.819787 0.4989
40 1 0.2523 0.880235 0.499929
36 1 0.378252 0.897453 0.499524
18 1 0.510161 0.836162 0.498869
25 1 0.697829 0.802507 0.502445
12 1 0.826271 0.862458 0.503022
14 1 0.983285 0.827124 0.501388
57 1 0.149228 0.900071 0.503061
68 1 0.307981 0.959409 0.501827
78 1 0.464502 0.93149 0.503084
60 1 0.541779 0.956327 0.499388
37 1 0.63297 0.902624 0.499391
53 1 0.73711 0.931846 0.498369
44 1 0.930456 0.941055 0.498336
ITEM: TIMESTEP
1750
ITEM: NUMBER OF ATOMS
70
ITEM: BOX BOUNDS pp pp pp
-4.8177240507784518e+00 4.8177240507784518e+00
-4.8247398989005887e+00 4.8247398989005887e+00
-1.0000000000000001e-01 1.0000000000000001e-01
ITEM: ATOMS id type xs ys zs
2 1 0.0868102 0.0520286 0.502285
29 1 0.205631 0.00284603 0.505718
77 1 0.305483 0.0196103 0.49924
17 1 0.411574 0.0362681 0.500736
32 1 0.545013 0.0657917 0.502139
33 1 0.665306 0.026261 0.499071
80 1 0.727184 0.0745199 0.500416
48 1 0.80762 0.0914591 0.508561
71 1 0.915429 0.0971715 0.500059
67 1 0.871888 0.0422969 0.498175
55 1 0.95852 0.0295867 0.498202
69 1 0.054868 0.152782 0.494992
6 1 0.265823 0.12315 0.500464
49 1 0.501243 0.171741 0.500661
39 1 0.650192 0.140239 0.505678
75 1 0.748084 0.145818 0.498884
11 1 0.865199 0.193249 0.504284
50 1 0.0460055 0.311875 0.502525
10 1 0.150768 0.22315 0.495783
62 1 0.232864 0.301206 0.499953
5 1 0.443983 0.275068 0.496951
34 1 0.573485 0.248255 0.499659
13 1 0.723678 0.25716 0.504634
66 1 0.840997 0.305448 0.503346
45 1 0.0164764 0.224519 0.4912
38 1 0.00862884 0.417042 0.499593
1 1 0.149351 0.370097 0.495978
20 1 0.307639 0.374166 0.500324
59 1 0.423639 0.388953 0.501244
7 1 0.544989 0.393327 0.498701
23 1 0.678946 0.382846 0.502011
47 1 0.793806 0.369422 0.503186
28 1 0.937393 0.318571 0.501374
8 1 0.252623 0.502112 0.499527
19 1 0.405734 0.512204 0.50228
56 1 0.753622 0.45523 0.502352
27 1 0.652981 0.503585 0.497213
3 1 0.884238 0.454601 0.500625
4 1 0.991635 0.56501 0.498679
31 1 0.211605 0.644609 0.502758
35 1 0.332467 0.624757 0.496243
76 1 0.418366 0.614485 0.501155
15 1 0.530389 0.592369 0.498657
24 1 0.770922 0.564051 0.504222
54 1 0.878096 0.601653 0.499245
9 1 0.069435 0.695073 0.497553
30 1 0.186737 0.773616 0.502513
64 1 0.26731 0.709147 0.495765
43 1 0.33488 0.737991 0.503738
41 1 0.533392 0.717635 0.499501
26 1 0.641948 0.670766 0.500247
63 1 0.610012 0.751329 0.501878
74 1 0.613456 0.805043 0.500249
16 1 0.784574 0.70192 0.500712
21 1 0.938551 0.69207 0.5019
51 1 0.0953154 0.826993 0.500453
61 1 0.318721 0.820483 0.499581
40 1 0.252202 0.880906 0.499137
36 1 0.378363 0.897223 0.500928
18 1 0.510874 0.835935 0.498854
25 1 0.697896 0.803139 0.504192
12 1 0.825206 0.862234 0.501262
14 1 0.982883 0.828092 0.499458
57 1 0.149605 0.900815 0.504212
68 1 0.308852 0.959776 0.49897
78 1 0.464609 0.930845 0.501603
60 1 0.541708 0.95628 0.498614
37 1 0.633067 0.903065 0.49853
53 1 0.737344 0.932452 0.499153
44 1 0.929299 0.941087 0.499951
ITEM: TIMESTEP
2000
ITEM: NUMBER OF ATOMS
70
ITEM: BOX BOUNDS pp pp pp
-4.8165179456918965e+00 4.8165179456918965e+00
-4.8270872702648067e+00 4.8270872702648067e+00
-1.0000000000000001e-01 1.0000000000000001e-01
ITEM: ATOMS id type xs ys zs
2 1 0.0875926 0.0526499 0.50189
29 1 0.206009 0.00171446 0.505711
77 1 0.30592 0.0203328 0.500085
17 1 0.411455 0.0367049 0.500327
32 1 0.54454 0.0655187 0.503378
33 1 0.665156 0.0263454 0.497446
80 1 0.726858 0.0741276 0.4997
48 1 0.807103 0.0910666 0.509281
71 1 0.91436 0.0973721 0.498787
67 1 0.871578 0.0420158 0.498724
55 1 0.958577 0.0302503 0.497786
69 1 0.0563607 0.152726 0.494941
6 1 0.26522 0.122603 0.502058
49 1 0.501202 0.17238 0.49982
39 1 0.649902 0.140426 0.506219
75 1 0.747204 0.145546 0.499379
11 1 0.865002 0.193582 0.503214
50 1 0.044979 0.31178 0.501859
10 1 0.150822 0.223429 0.494896
62 1 0.232564 0.301147 0.499781
5 1 0.443424 0.275437 0.495428
34 1 0.572895 0.248379 0.498473
13 1 0.723012 0.256728 0.50304
66 1 0.840395 0.305531 0.504018
45 1 0.0166106 0.22374 0.491842
38 1 0.00851902 0.417433 0.499812
1 1 0.148809 0.37102 0.49552
20 1 0.307954 0.373526 0.502751
59 1 0.423713 0.389451 0.502985
7 1 0.544748 0.393215 0.496606
23 1 0.678215 0.382568 0.500737
47 1 0.793108 0.369218 0.501517
28 1 0.936697 0.3195 0.499844
8 1 0.25192 0.501773 0.500891
19 1 0.405122 0.511781 0.501997
56 1 0.753292 0.455353 0.502726
27 1 0.65235 0.50345 0.497404
3 1 0.883741 0.454815 0.499586
4 1 0.991333 0.564991 0.500767
31 1 0.211802 0.645271 0.503001
35 1 0.332022 0.625166 0.496252
76 1 0.417991 0.613633 0.500042
15 1 0.528936 0.593 0.500649
24 1 0.771374 0.564041 0.504488
54 1 0.878267 0.601957 0.498296
9 1 0.0694414 0.695753 0.499398
30 1 0.186945 0.774079 0.501824
64 1 0.267376 0.709865 0.496309
43 1 0.334695 0.73814 0.50291
41 1 0.533379 0.718312 0.499019
26 1 0.641428 0.67144 0.500051
63 1 0.609718 0.751742 0.502012
74 1 0.613186 0.805378 0.499591
16 1 0.784108 0.701618 0.500953
21 1 0.938412 0.691706 0.500858
51 1 0.0952729 0.827185 0.501361
61 1 0.319328 0.820442 0.500067
40 1 0.253175 0.880907 0.499988
36 1 0.378829 0.897684 0.499035
18 1 0.510268 0.836056 0.497372
25 1 0.697994 0.802511 0.504249
12 1 0.825413 0.862358 0.500903
14 1 0.982749 0.828299 0.498531
57 1 0.149895 0.8999 0.502831
68 1 0.309282 0.960696 0.500094
78 1 0.465144 0.931521 0.500525
60 1 0.542819 0.956421 0.498652
37 1 0.633476 0.902656 0.498804
53 1 0.737349 0.932779 0.501288
44 1 0.928615 0.942216 0.498715
ITEM: TIMESTEP
2250
ITEM: NUMBER OF ATOMS
70
ITEM: BOX BOUNDS pp pp pp
-4.8153118406053421e+00 4.8153118406053421e+00
-4.8289900533407186e+00 4.8289900533407186e+00
-1.0000000000000001e-01 1.0000000000000001e-01
ITEM: ATOMS id type xs ys zs
2 1 0.088002 0.0518849 0.500253
29 1 0.206566 0.000822012 0.505867
77 1 0.30609 0.0191777 0.497459
17 1 0.411362 0.0358941 0.500463
32 1 0.544469 0.0656458 0.502672
33 1 0.665033 0.0267055 0.497366
80 1 0.726371 0.0743442 0.498535
48 1 0.807069 0.0902044 0.509026
71 1 0.914547 0.0968763 0.498301
67 1 0.871774 0.0417164 0.498581
55 1 0.959273 0.0299666 0.497684
69 1 0.0554051 0.152276 0.495115
6 1 0.265234 0.122032 0.502233
49 1 0.501352 0.172514 0.500147
39 1 0.649639 0.140073 0.50681
75 1 0.748008 0.145614 0.49952
11 1 0.864957 0.192384 0.500881
50 1 0.0449281 0.311659 0.503602
10 1 0.151371 0.222521 0.49494
62 1 0.232203 0.301062 0.49977
5 1 0.443641 0.275323 0.494488
34 1 0.573183 0.248603 0.497485
13 1 0.722946 0.257055 0.503993
66 1 0.840174 0.304434 0.503355
45 1 0.0168459 0.223778 0.491013
38 1 0.0084055 0.417126 0.499546
1 1 0.148554 0.369984 0.493804
20 1 0.308203 0.373324 0.501095
59 1 0.424462 0.389251 0.502786
7 1 0.545944 0.393532 0.496664
23 1 0.6787 0.382573 0.502273
47 1 0.79343 0.368968 0.502178
28 1 0.936059 0.319703 0.501678
8 1 0.252942 0.501688 0.501207
19 1 0.405704 0.512229 0.502513
56 1 0.753139 0.455322 0.504122
27 1 0.652587 0.503697 0.499302
3 1 0.884005 0.454852 0.501162
4 1 0.991684 0.564919 0.498976
31 1 0.210924 0.644207 0.5028
35 1 0.331946 0.624421 0.495983
76 1 0.418345 0.614762 0.500589
15 1 0.529696 0.592799 0.499899
24 1 0.771055 0.563658 0.503423
54 1 0.878188 0.601007 0.498566
9 1 0.0694253 0.694962 0.500081
30 1 0.186261 0.77352 0.501244
64 1 0.266523 0.709001 0.495259
43 1 0.333937 0.737507 0.501455
41 1 0.533225 0.717736 0.499262
26 1 0.642093 0.671289 0.498612
63 1 0.609148 0.75159 0.502842
74 1 0.613488 0.805292 0.499548
16 1 0.784511 0.702089 0.500653
21 1 0.937963 0.691622 0.500738
51 1 0.0948171 0.8265 0.501877
61 1 0.319078 0.820297 0.501336
40 1 0.251847 0.880272 0.500201
36 1 0.378137 0.897072 0.498818
18 1 0.510367 0.835689 0.499432
25 1 0.697429 0.802114 0.502814
12 1 0.825053 0.862608 0.50126
14 1 0.982116 0.827541 0.499009
57 1 0.148561 0.900409 0.503868
68 1 0.308243 0.959527 0.500093
78 1 0.464715 0.930812 0.501456
60 1 0.542109 0.956108 0.499862
37 1 0.633413 0.902972 0.499767
53 1 0.73726 0.933023 0.501869
44 1 0.929712 0.941439 0.498007
ITEM: TIMESTEP
2500
ITEM: NUMBER OF ATOMS
70
ITEM: BOX BOUNDS pp pp pp
-4.8141057355187877e+00 4.8141057355187877e+00
-4.8284283013705762e+00 4.8284283013705762e+00
-1.0000000000000001e-01 1.0000000000000001e-01
ITEM: ATOMS id type xs ys zs
2 1 0.0873128 0.0535729 0.499007
29 1 0.205232 0.0014325 0.507693
77 1 0.305547 0.0190619 0.498096
17 1 0.411023 0.035197 0.502499
32 1 0.544064 0.0656821 0.502865
33 1 0.665069 0.026784 0.494907
80 1 0.72681 0.074916 0.498469
48 1 0.807496 0.090841 0.507371
71 1 0.915626 0.0970357 0.496932
67 1 0.872105 0.0421112 0.497097
55 1 0.95899 0.0296249 0.497401
69 1 0.0542598 0.153 0.495245
6 1 0.265939 0.121982 0.501595
49 1 0.5016 0.172849 0.498334
39 1 0.649836 0.140536 0.506536
75 1 0.747823 0.145454 0.500642
11 1 0.865356 0.192898 0.499912
50 1 0.0444396 0.31108 0.502933
10 1 0.150297 0.2223 0.495528
62 1 0.232145 0.300876 0.498782
5 1 0.443462 0.274972 0.494535
34 1 0.573408 0.249155 0.495584
13 1 0.72411 0.256746 0.503067
66 1 0.839726 0.304245 0.502721
45 1 0.0150739 0.223959 0.492736
38 1 0.00784937 0.416485 0.499642
1 1 0.148326 0.369467 0.493324
20 1 0.306798 0.373253 0.499488
59 1 0.423341 0.388982 0.503614
7 1 0.545198 0.394033 0.49546
23 1 0.678928 0.382069 0.503544
47 1 0.793673 0.368965 0.502961
28 1 0.936018 0.319031 0.5015
8 1 0.253046 0.500975 0.500692
19 1 0.405362 0.511511 0.502047
56 1 0.753526 0.45493 0.504327
27 1 0.652553 0.502453 0.497444
3 1 0.884021 0.454597 0.502293
4 1 0.991547 0.563992 0.499114
31 1 0.211034 0.644105 0.502942
35 1 0.330873 0.624318 0.49512
76 1 0.417286 0.613403 0.499506
15 1 0.52853 0.592718 0.500854
24 1 0.770405 0.563944 0.506427
54 1 0.87799 0.600665 0.49839
9 1 0.0689182 0.694577 0.500099
30 1 0.186681 0.773091 0.501863
64 1 0.266915 0.709078 0.496937
43 1 0.33421 0.737404 0.501297
41 1 0.532977 0.718289 0.499092
26 1 0.641087 0.671161 0.499792
63 1 0.608824 0.75163 0.503442
74 1 0.612376 0.805211 0.500075
16 1 0.783631 0.701973 0.501704
21 1 0.937848 0.691078 0.501255
51 1 0.0949244 0.825672 0.499032
61 1 0.318183 0.819797 0.500798
40 1 0.251777 0.880371 0.500891
36 1 0.377923 0.896825 0.497786
18 1 0.509332 0.83565 0.499594
25 1 0.69708 0.803062 0.503098
12 1 0.825437 0.863446 0.500418
14 1 0.982055 0.826834 0.498473
57 1 0.147743 0.900282 0.504684
68 1 0.30819 0.959348 0.501416
78 1 0.463876 0.930298 0.501519
60 1 0.541211 0.956118 0.499921
37 1 0.632457 0.903092 0.498811
53 1 0.736855 0.932887 0.500947
44 1 0.929896 0.941115 0.498853
ITEM: TIMESTEP
2750
ITEM: NUMBER OF ATOMS
70
ITEM: BOX BOUNDS pp pp pp
-4.8128996304322325e+00 4.8128996304322325e+00
-4.8333710971518684e+00 4.8333710971518684e+00
-1.0000000000000001e-01 1.0000000000000001e-01
ITEM: ATOMS id type xs ys zs
2 1 0.0868542 0.0533975 0.498786
29 1 0.204772 0.00188742 0.508946
77 1 0.304869 0.0192306 0.498607
17 1 0.410107 0.0359608 0.503512
32 1 0.543422 0.0660584 0.501209
33 1 0.663786 0.0264415 0.495341
80 1 0.725439 0.0743016 0.497688
48 1 0.806209 0.0896281 0.507989
71 1 0.91571 0.0971413 0.49685
67 1 0.871554 0.0428611 0.49953
55 1 0.958312 0.0292524 0.496972
69 1 0.0543333 0.153061 0.494629
6 1 0.264335 0.121741 0.502449
49 1 0.500962 0.173209 0.500648
39 1 0.648976 0.140483 0.507636
75 1 0.747288 0.144861 0.50191
11 1 0.864593 0.191723 0.499364
50 1 0.0437559 0.312088 0.502991
10 1 0.150275 0.22267 0.495741
62 1 0.232258 0.300844 0.498281
5 1 0.443041 0.275631 0.491637
34 1 0.5732 0.249576 0.495436
13 1 0.723089 0.256478 0.504298
66 1 0.839232 0.303645 0.504089
45 1 0.0154096 0.224536 0.493664
38 1 0.00708065 0.417064 0.498986
1 1 0.147941 0.369572 0.49463
20 1 0.30751 0.373883 0.497361
59 1 0.423905 0.389237 0.502746
7 1 0.545732 0.393982 0.493248
23 1 0.679108 0.38196 0.503564
47 1 0.793901 0.36869 0.502636
28 1 0.935131 0.319296 0.501254
8 1 0.250668 0.501608 0.500845
19 1 0.404575 0.512052 0.499637
56 1 0.753842 0.454553 0.502439
27 1 0.652785 0.502747 0.498602
3 1 0.884051 0.454693 0.501944
4 1 0.991968 0.564559 0.498859
31 1 0.210526 0.644506 0.500549
35 1 0.331512 0.624363 0.494452
76 1 0.417167 0.613991 0.498676
15 1 0.528487 0.593142 0.502813
24 1 0.7715 0.56339 0.506796
54 1 0.878292 0.601006 0.497925
9 1 0.069085 0.694812 0.500331
30 1 0.185699 0.773111 0.503927
64 1 0.265955 0.709153 0.495681
43 1 0.333438 0.73769 0.499499
41 1 0.532596 0.718408 0.498207
26 1 0.640888 0.671145 0.500517
63 1 0.608393 0.752189 0.502411
74 1 0.612841 0.805448 0.500407
16 1 0.784285 0.701631 0.504389
21 1 0.93818 0.69102 0.503512
51 1 0.0944404 0.825972 0.497962
61 1 0.316898 0.820197 0.501576
40 1 0.250264 0.880916 0.500277
36 1 0.377052 0.897004 0.499071
18 1 0.509834 0.836023 0.50244
25 1 0.697379 0.801797 0.502567
12 1 0.824682 0.862003 0.500761
14 1 0.981535 0.826762 0.497689
57 1 0.147057 0.900746 0.505015
68 1 0.307546 0.959754 0.500961
78 1 0.463804 0.930763 0.502601
60 1 0.541099 0.956273 0.500216
37 1 0.632631 0.902588 0.499159
53 1 0.736956 0.932742 0.502077
44 1 0.928505 0.941165 0.500797
ITEM: TIMESTEP
3000
ITEM: NUMBER OF ATOMS
70
ITEM: BOX BOUNDS pp pp pp
-4.8116935253456781e+00 4.8116935253456781e+00
-4.8298214286752419e+00 4.8298214286752419e+00
-1.0000000000000001e-01 1.0000000000000001e-01
ITEM: ATOMS id type xs ys zs
2 1 0.0863753 0.0542317 0.498962
29 1 0.204744 0.00209927 0.508873
77 1 0.304439 0.0194024 0.497835
17 1 0.410125 0.0358721 0.503156
32 1 0.543717 0.0650529 0.500974
33 1 0.663828 0.0265699 0.496907
80 1 0.725407 0.075057 0.498185
48 1 0.806441 0.0905271 0.505695
71 1 0.914717 0.0969964 0.497412
67 1 0.871211 0.0425752 0.49878
55 1 0.9581 0.0293069 0.496672
69 1 0.0535547 0.153875 0.493373
6 1 0.264593 0.122888 0.502094
49 1 0.501433 0.172506 0.50098
39 1 0.648404 0.140378 0.506524
75 1 0.747009 0.145052 0.500993
11 1 0.865075 0.192482 0.501032
50 1 0.0441327 0.312177 0.502895
10 1 0.149449 0.223338 0.495891
62 1 0.231956 0.300403 0.497238
5 1 0.443871 0.27502 0.492551
34 1 0.572976 0.248886 0.496497
13 1 0.723464 0.256309 0.505331
66 1 0.839413 0.303784 0.503505
45 1 0.0145522 0.225259 0.492556
38 1 0.00749809 0.416984 0.499005
1 1 0.148168 0.370381 0.496269
20 1 0.307346 0.373126 0.497169
59 1 0.423865 0.388831 0.502531
7 1 0.54524 0.393716 0.493123
23 1 0.678426 0.381147 0.504837
47 1 0.793911 0.368705 0.502394
28 1 0.935691 0.318868 0.502224
8 1 0.251915 0.50144 0.500532
19 1 0.404421 0.51152 0.49966
56 1 0.75297 0.454249 0.504153
27 1 0.652051 0.501881 0.499504
3 1 0.884228 0.454708 0.500631
4 1 0.992016 0.564711 0.497053
31 1 0.210325 0.644176 0.500769
35 1 0.331619 0.624897 0.495521
76 1 0.417444 0.61313 0.498609
15 1 0.528831 0.591773 0.505194
24 1 0.770834 0.562934 0.507324
54 1 0.8778 0.60085 0.499389
9 1 0.069212 0.695083 0.501205
30 1 0.186235 0.772915 0.503229
64 1 0.266996 0.708376 0.498633
43 1 0.333807 0.738232 0.499013
41 1 0.532417 0.717177 0.497984
26 1 0.640598 0.671643 0.501595
63 1 0.608661 0.751927 0.502532
74 1 0.612638 0.805151 0.500987
16 1 0.784013 0.700876 0.503771
21 1 0.937773 0.690733 0.502214
51 1 0.094539 0.826004 0.497902
61 1 0.317295 0.821002 0.499528
40 1 0.250224 0.880758 0.500454
36 1 0.37729 0.897503 0.498165
18 1 0.509517 0.835426 0.503165
25 1 0.697577 0.801975 0.504272
12 1 0.82497 0.862662 0.500235
14 1 0.981715 0.82698 0.495901
57 1 0.14698 0.900927 0.505084
68 1 0.307201 0.959684 0.500475
78 1 0.463549 0.931248 0.500875
60 1 0.541805 0.955382 0.50047
37 1 0.633563 0.902287 0.497737
53 1 0.737377 0.933967 0.501021
44 1 0.929467 0.9409 0.498012
ITEM: TIMESTEP
3250
ITEM: NUMBER OF ATOMS
70
ITEM: BOX BOUNDS pp pp pp
-4.8104874202591228e+00 4.8104874202591228e+00
-4.8277400226475962e+00 4.8277400226475962e+00
-1.0000000000000001e-01 1.0000000000000001e-01
ITEM: ATOMS id type xs ys zs
2 1 0.0867744 0.0540888 0.499635
29 1 0.204408 0.00147474 0.510129
77 1 0.303972 0.0195712 0.499252
17 1 0.409811 0.0357758 0.501933
32 1 0.543421 0.0660468 0.500613
33 1 0.663891 0.0264761 0.495433
80 1 0.725898 0.0741716 0.498069
48 1 0.806528 0.0907024 0.505105
71 1 0.91511 0.0970736 0.496643
67 1 0.87148 0.0425249 0.497001
55 1 0.958374 0.0294005 0.496646
69 1 0.0534647 0.153444 0.494137
6 1 0.26338 0.122125 0.503003
49 1 0.501538 0.173049 0.501933
39 1 0.648782 0.139859 0.50615
75 1 0.747127 0.145112 0.501666
11 1 0.865037 0.192724 0.500881
50 1 0.0440609 0.311806 0.50473
10 1 0.148831 0.222905 0.494405
62 1 0.230869 0.300442 0.495773
5 1 0.44293 0.275324 0.491485
34 1 0.57372 0.249378 0.496923
13 1 0.722809 0.255713 0.505097
66 1 0.839261 0.303931 0.504561
45 1 0.0135854 0.224413 0.493385
38 1 0.00806954 0.417167 0.500448
1 1 0.147841 0.370422 0.493471
20 1 0.307369 0.371856 0.494333
59 1 0.423103 0.389131 0.502082
7 1 0.544659 0.393841 0.492719
23 1 0.678611 0.381208 0.504253
47 1 0.793983 0.368586 0.503077
28 1 0.935423 0.319445 0.500731
8 1 0.252541 0.500972 0.501673
19 1 0.405597 0.511846 0.502107
56 1 0.752675 0.454503 0.50509
27 1 0.651748 0.502236 0.500595
3 1 0.883475 0.455199 0.499653
4 1 0.990937 0.564942 0.499991
31 1 0.211998 0.64402 0.500466
35 1 0.332222 0.624475 0.494862
76 1 0.41788 0.613217 0.498286
15 1 0.529865 0.592478 0.505467
24 1 0.770996 0.562749 0.508546
54 1 0.877527 0.602297 0.498953
9 1 0.069446 0.694938 0.501379
30 1 0.187191 0.772733 0.503311
64 1 0.267395 0.709016 0.49688
43 1 0.334563 0.737946 0.498129
41 1 0.533258 0.717289 0.498096
26 1 0.641801 0.671259 0.502363
63 1 0.609229 0.751454 0.504591
74 1 0.612855 0.804791 0.502054
16 1 0.784864 0.700878 0.503404
21 1 0.938298 0.69183 0.50219
51 1 0.0954429 0.825608 0.497853
61 1 0.316995 0.820214 0.501097
40 1 0.251041 0.881481 0.501365
36 1 0.377081 0.896643 0.497956
18 1 0.509974 0.835423 0.50483
25 1 0.697878 0.802094 0.50517
12 1 0.825359 0.861864 0.500138
14 1 0.982534 0.827666 0.495305
57 1 0.147387 0.900543 0.504835
68 1 0.308205 0.959986 0.500841
78 1 0.463567 0.930769 0.501274
60 1 0.541195 0.956155 0.500854
37 1 0.632871 0.902491 0.499503
53 1 0.737483 0.932729 0.500567
44 1 0.928249 0.941068 0.496446
ITEM: TIMESTEP
3500
ITEM: NUMBER OF ATOMS
70
ITEM: BOX BOUNDS pp pp pp
-4.8092813151725684e+00 4.8092813151725684e+00
-4.8339817045646738e+00 4.8339817045646738e+00
-1.0000000000000001e-01 1.0000000000000001e-01
ITEM: ATOMS id type xs ys zs
2 1 0.0871534 0.0542797 0.499957
29 1 0.204939 0.00157764 0.507468
77 1 0.304869 0.0187679 0.497573