LAMMPS (23 Jun 2022 - Update 4)
  using 1 OpenMP thread(s) per MPI task
# Compute elastic constant tensor for a crystal
#
# Written by Aidan Thompson (Sandia, athomps@sandia.gov)
#
#  This script uses the following three include files.
#
#   init.mod      (must be modified for different crystal structures)
# 	       	  Define units, deformation parameters and initial
#		  configuration of the atoms and simulation cell.
#
#
#   potential.mod    (must be modified for different pair styles)
# 		     Define pair style and other attributes
#		     not stored in restart file
#
#
#   displace.mod    (displace.mod should not need to be modified)
# 		    Perform positive and negative box displacements
# 		    in direction ${dir} and size ${up}.
# 		    It uses the resultant changes
#		    in stress to compute one
# 		    row of the elastic stiffness tensor
#
#		    Inputs variables:
#		    	   dir = the Voigt deformation component
#		    		    (1,2,3,4,5,6)
#		    Global constants:
#       	    	   up = the deformation magnitude (strain units)
#       		   cfac = conversion from LAMMPS pressure units to
#               	   output units for elastic constants
#
#
#  To run this on a different system, it should only be necessary to
#  modify the files init.mod and potential.mod. In order to calculate
#  the elastic constants correctly, care must be taken to specify
#  the correct units in init.mod (units, cfac and cunits). It is also
#  important to verify that the minimization of energy w.r.t atom
#  positions in the deformed cell is fully converged.
#  One indication of this is that the elastic constants are insensitive
#  to the choice of the variable ${up} in init.mod. Another is to check
#  the final max and two-norm forces reported in the log file. If you know
#  that minimization is not required, you can set maxiter = 0.0 in
#  init.mod.
#



variable dt equal 0.01
variable strain equal 0.05
variable srate equal 1e-4
variable M equal 1000 # averaging time for properties
variable strainsteps equal ${strain}/${dt}/${srate}
variable strainsteps equal 0.05/${dt}/${srate}
variable strainsteps equal 0.05/0.01/${srate}
variable strainsteps equal 0.05/0.01/0.0001


dimension 2
include init.mod
# NOTE: This script can be modified for different atomic structures,
# units, etc. See in.elastic for more info.
#

# Define the finite deformation size. Try several values of this
# variable to verify that results do not depend on it.
variable up equal 1.0e-1

# Define the amount of random jiggle for atoms
# This prevents atoms from staying on saddle points
variable atomjiggle equal 1.0e-6

# Uncomment one of these blocks, depending on what units
# you are using in LAMMPS and for output

# metal units, elastic constants in eV/A^3
#units		metal
#variable cfac equal 6.2414e-7
#variable cunits string eV/A^3

# Choose potential
# metal units, elastic constants in GPa
units		metal
atom_style	full
#pair_style      lj/cut 1.0
#pair_style      yukawa 1.0 2.0
#pair_modify     mix arithmetic
bond_style      harmonic
angle_style     harmonic
dihedral_style  zero
special_bonds   amber
variable cfac equal 1.0e-4
variable cunits string GPa
boundary	p p p

# Need to set mass to something, just to satisfy LAMMPS
#mass 1 1.0e-20
read_data network.lmp
Reading data file ...
  orthogonal box = (-4.824421 -4.824421 -0.1) to (4.824421 4.824421 0.1)
  1 by 1 by 1 MPI processor grid
WARNING: Atom style in data file differs from currently defined atom style (src/read_data.cpp:538)
  reading atoms ...
  70 atoms
WARNING: Bond style in data file differs from currently defined bond style (src/read_data.cpp:630)
  scanning bonds ...
  5 = max bonds/atom
  reading bonds ...
  160 bonds
Finding 1-2 1-3 1-4 neighbors ...
  special bond factors lj:    0        0        0.5     
  special bond factors coul:  0        0        0.8333333333333334
     8 = max # of 1-2 neighbors
    40 = max # of 1-3 neighbors
   218 = max # of 1-4 neighbors
    32 = max # of special neighbors
  special bonds CPU = 0.000 seconds
  read_data CPU = 0.003 seconds

# real units, elastic constants in GPa
#units		real
#variable cfac equal 1.01325e-4
#variable cunits string GPa

# Define minimization parameters
variable etol equal 0.0
variable ftol equal 5.0e-10
variable maxiter equal 100000
variable maxeval equal 20000
variable dmax equal 1.0e-2


include potential.mod
# NOTE: This script can be modified for different pair styles
# See in.elastic for more info.

# Setup neighbor style
neighbor 3.0 nsq
neigh_modify once no every 1 delay 0 check yes
comm_modify cutoff 2.0

# Setup minimization style
min_style	     cg
min_modify	     dmax ${dmax} line quadratic
min_modify	     dmax 0.01 line quadratic

timestep	0.001


# Setup output
thermo		500
thermo_style custom step temp pe ebond eangle edihed press pxx pyy pzz pxy pxz pyz lx ly lz vol
thermo_modify norm no


#change_box all triclinic
comm_modify mode single cutoff 10.0 vel yes
atom_modify sort 0 0



# Compute initial state

#dump rela all atom 1 traj_relax.lmpstrj
fix 3 all box/relax x 0 y 0 # xy 0  #MS comment: relax if the network is periodic
minimize ${etol} ${ftol} ${maxiter} ${maxeval}
minimize 0 ${ftol} ${maxiter} ${maxeval}
minimize 0 5e-10 ${maxiter} ${maxeval}
minimize 0 5e-10 100000 ${maxeval}
minimize 0 5e-10 100000 20000
Neighbor list info ...
  update every 1 steps, delay 0 steps, check yes
  max neighbors/atom: 2000, page size: 100000
  master list distance cutoff = 0
  ghost atom cutoff = 10
  0 neighbor lists, perpetual/occasional/extra = 0 0 0
WARNING: Inconsistent image flags (src/domain.cpp:819)
Per MPI rank memory allocation (min/avg/max) = 8.974 | 8.974 | 8.974 Mbytes
   Step          Temp          PotEng         E_bond        E_angle        E_dihed         Press           Pxx            Pyy            Pzz            Pxy            Pxz            Pyz             Lx             Ly             Lz           Volume    
         0   0              6.3919402e-11  6.3919402e-11  0              0             -0.31357315    -0.21039957    -0.41674672     0             -0.064721357    0              0              9.648842       9.648842       0.2            93.100152    
       362   0              1.416884e-13   1.416884e-13   0              0             -1.1985141e-07 -8.8083223e-07  6.4112941e-07  0              0.0032553069   0              0              9.6488407      9.6488418      0.2            93.100137    
Loop time of 0.0239262 on 1 procs for 362 steps with 70 atoms

99.9% CPU use with 1 MPI tasks x 1 OpenMP threads

Minimization stats:
  Stopping criterion = force tolerance
  Energy initial, next-to-last, final = 
    6.39194023286752e-11 1.41688432714286e-13 1.41688397321668e-13
  Force two-norm initial, final = 4.6813051e-05 4.5907195e-10
  Force max component initial, final = 2.4216547e-05 1.530472e-10
  Final line search alpha, max atom move = 1 1.530472e-10
  Iterations, force evaluations = 362 724

MPI task timing breakdown:
Section |  min time  |  avg time  |  max time  |%varavg| %total
---------------------------------------------------------------
Pair    | 0          | 0          | 0          |   0.0 |  0.00
Bond    | 0.0035313  | 0.0035313  | 0.0035313  |   0.0 | 14.76
Neigh   | 0          | 0          | 0          |   0.0 |  0.00
Comm    | 0.0070846  | 0.0070846  | 0.0070846  |   0.0 | 29.61
Output  | 0          | 0          | 0          |   0.0 |  0.00
Modify  | 0          | 0          | 0          |   0.0 |  0.00
Other   |            | 0.01331    |            |       | 55.63

Nlocal:             70 ave          70 max          70 min
Histogram: 1 0 0 0 0 0 0 0 0 0
Nghost:            587 ave         587 max         587 min
Histogram: 1 0 0 0 0 0 0 0 0 0
Neighs:              0 ave           0 max           0 min
Histogram: 1 0 0 0 0 0 0 0 0 0

Total # of neighbors = 0
Ave neighs/atom = 0
Ave special neighs/atom = 24.914286
Neighbor list builds = 0
Dangerous builds = 0
#dump rela all atom 1 traj_relax.lmpstrj
thermo 100
unfix 3

fix 2d all enforce2d



#dump dump0 all xyz 1000000 cfg0.xyz
#dump_modify dump0 format line "%d %20.10g %20.10g %20.10g"
#minimize ${etol} ${ftol} ${maxiter} ${maxeval}

#undump rela

#write_restart restart.equil

# These formulas define the derivatives w.r.t. strain components
# Constants uses $, variables use v_


timestep        ${dt}
timestep        0.01
variable nsteps equal round(${strainsteps})
variable nsteps equal round(50000)

fix             4 all nve
fix             5 all langevin 0.1 0.1 1 904297
#fix		6 all press/berendsen y  0.0 0.0 1 x 0.0 0.0 10
fix             6 all nph y 0.0 0.0 10 ptemp 0.1 # x 0.0 0.0 10

# For PLUMED2
# fix 22 all plumed plumedfile plumed.dat outfile plumed.out

#fix             6 all nph x 0.0 0.0 10
fix     	9 all deform 1 x erate -${srate} units box remap x
fix     	9 all deform 1 x erate -0.0001 units box remap x

#fix     8 all deform 1 xy erate ${srate} units box remap x



#fix    10 all ave/time

dump 1 all atom 250 deform_dump.lammpstrj


#To avoid flying ice cube phenomenon:
#fix 21 all momentum 100 linear 1 1 1 angular


run  ${nsteps}
run  50000
WARNING: One or more atoms are time integrated more than once (src/modify.cpp:292)
WARNING: Inconsistent image flags (src/domain.cpp:819)
Per MPI rank memory allocation (min/avg/max) = 7.849 | 7.849 | 7.849 Mbytes
   Step          Temp          PotEng         E_bond        E_angle        E_dihed         Press           Pxx            Pyy            Pzz            Pxy            Pxz            Pyz             Lx             Ly             Lz           Volume    
       362   0              1.416884e-13   1.416884e-13   0              0             -1.1985141e-07 -8.8083223e-07  6.4112941e-07  0              0.0032553069   0              0              9.6488407      9.6488418      0.2            93.100137    
       400   0.12704765     0.00036363444  0.00036363444  0              0             -10.35739      -89.083856      68.170989      0              400.04143      0              0              9.648474       9.6478526      0.2            93.087056    
       500   0.20065582     0.00096596551  0.00096596551  0              0              245.60888      575.94982     -84.945006      0             -173.01045      0              0              9.6475092      9.6540159      0.2            93.137207    
       600   0.19282806     0.00092591185  0.00092591185  0              0             -45.701057     -173.23827      81.589871      0             -135.94516      0              0              9.6465443      9.644952       0.2            93.040457    
       700   0.18343734     0.0011415116   0.0011415116   0              0             -252.84159     -507.80042      1.8989855      0             -338.89086      0              0              9.6455794      9.6488575      0.2            93.068821    
       800   0.25390828     0.0010153858   0.0010153858   0              0              349.45622      738.27991     -39.520656      0             -622.88073      0              0              9.6446145      9.6519899      0.2            93.089722    
       900   0.20110984     0.0012853378   0.0012853378   0              0              471.13686      803.35942      138.73369      0              214.84009      0              0              9.6436496      9.6497941      0.2            93.059234    
      1000   0.20423072     0.0010516998   0.0010516998   0              0             -142.46182     -26.328226     -258.81433      0              663.60078      0              0              9.6426847      9.6565595      0.2            93.115159    
      1100   0.2204909      0.0012240444   0.0012240444   0              0              10.348962     -139.25317      159.73081      0             -323.96049      0              0              9.6417198      9.6544985      0.2            93.085969    
      1200   0.21221169     0.00092092542  0.00092092542  0              0              349.30262      631.84373      66.548556      0              322.33673      0              0              9.640755       9.6537982      0.2            93.069903    
      1300   0.21568306     0.0011970422   0.0011970422   0              0             -85.569323     -12.462562     -158.86315      0              381.42605      0              0              9.6397901      9.6559384      0.2            93.08122     
      1400   0.22349998     0.0013622042   0.0013622042   0              0              489.22361      753.28164      224.94849      0              153.51135      0              0              9.6388252      9.6554335      0.2            93.067036    
      1500   0.21513835     0.0013996177   0.0013996177   0              0              350.23506      857.2893      -157.01571      0             -248.02204      0              0              9.6378603      9.6502621      0.2            93.007878    
      1600   0.19548429     0.0013990008   0.0013990008   0              0              471.76242      1116.2092     -172.86252      0              36.141357      0              0              9.6368954      9.6628935      0.2            93.120294    
      1700   0.21981979     0.0011873984   0.0011873984   0              0              1007.7294      1661.0369      354.18976      0              396.14         0              0              9.6359305      9.6550631      0.2            93.035517    
      1800   0.2192849      0.001163505    0.001163505    0              0             -252.05352      114.46306     -618.80314      0              211.4602       0              0              9.6349657      9.6520313      0.2            92.99699     
      1900   0.17935978     0.0012266273   0.0012266273   0              0              893.17553      1437.0593      349.08106      0              482.39232      0              0              9.6340008      9.6497319      0.2            92.965525    
      2000   0.20127413     0.0011916438   0.0011916438   0              0              1093.2108      1860.2663      325.95416      0             -230.46281      0              0              9.6330359      9.6541745      0.2            92.99901     
      2100   0.18273664     0.0012309527   0.0012309527   0              0              87.092785      1019.3813     -845.37463      0             -0.26369831     0              0              9.632071       9.6547146      0.2            92.994897    
      2200   0.20758673     0.0012398145   0.0012398145   0              0              879.73871      970.36528      788.89782      0              112.99051      0              0              9.6311061      9.6501988      0.2            92.942089    
      2300   0.20909671     0.0012614689   0.0012614689   0              0              430.55396      819.54675      41.387307      0             -112.07206      0              0              9.6301412      9.6548991      0.2            92.978042    
      2400   0.18460753     0.0015104109   0.0015104109   0              0              125.98714      1075.2648     -823.48154      0             -511.65313      0              0              9.6291764      9.6616392      0.2            93.033628    
      2500   0.17183063     0.0013327413   0.0013327413   0              0              1251.116       1315.5181      1186.5137      0             -726.54461      0              0              9.6282115      9.6568566      0.2            92.978258    
      2600   0.21154849     0.0011373725   0.0011373725   0              0             -266.70811      299.79751     -833.43259      0              647.12989      0              0              9.6272466      9.6652905      0.2            93.050135    
      2700   0.21769447     0.0010926473   0.0010926473   0              0              347.51937      783.94361     -89.095069      0             -24.671769      0              0              9.6262817      9.6621738      0.2            93.010807    
      2800   0.19801592     0.0013279681   0.0013279681   0              0              994.93738      897.23548      1092.4273      0             -345.77441      0              0              9.6253168      9.6620055      0.2            92.999864    
      2900   0.2233131      0.0012792663   0.0012792663   0              0             -768.26167     -212.70198     -1324.0593      0              130.92449      0              0              9.6243519      9.6758183      0.2            93.123481    
      3000   0.22552432     0.0012618261   0.0012618261   0              0              234.16982     -32.047465      500.15724      0             -825.13678      0              0              9.6233871      9.6596429      0.2            92.958482    
      3100   0.2047993      0.0013316982   0.0013316982   0              0              542.56328      505.26904      579.64903      0             -388.8298       0              0              9.6224222      9.6562712      0.2            92.916718    
      3200   0.1822856      0.0011878926   0.0011878926   0              0             -480.32201      347.07508     -1307.9157      0              182.83147      0              0              9.6214573      9.6670636      0.2            93.01124     
      3300   0.22756796     0.0011764123   0.0011764123   0              0              1090.4517      1179.3922      1001.3103      0              758.61918      0              0              9.6204924      9.652865       0.2            92.865315    
      3400   0.20933779     0.001351341    0.001351341    0              0              659.51941      1404.8324     -86.010268      0              246.96668      0              0              9.6195275      9.6670351      0.2            92.99231     
      3500   0.22530197     0.0010087869   0.0010087869   0              0             -436.03836     -51.847311     -820.40376      0              718.94232      0              0              9.6185626      9.6679634      0.2            92.991912    
      3600   0.20540923     0.0013758646   0.0013758646   0              0              1204.6026      1374.5553      1034.4252      0              1016.8448      0              0              9.6175977      9.6591829      0.2            92.898135    
      3700   0.22221737     0.0015194151   0.0015194151   0              0              489.71284      1624.3484     -645.1363       0             -502.6679       0              0              9.6166329      9.6729972      0.2            93.021663    
      3800   0.18795481     0.0011516635   0.0011516635   0              0              470.66509      983.75726     -42.627218      0              285.39129      0              0              9.615668       9.672532       0.2            93.007856    
      3900   0.20465867     0.0013569357   0.0013569357   0              0              699.29108      628.78342      769.58923      0              602.54902      0              0              9.6147031      9.6663071      0.2            92.938673    
      4000   0.21752857     0.001357342    0.001357342    0              0              668.458        2177.5157     -840.83475      0              440.22801      0              0              9.6137382      9.6694978      0.2            92.96002     
      4100   0.20326705     0.0012790008   0.0012790008   0              0              1421.296       2423.9935      418.35998      0              612.08687      0              0              9.6127733      9.6595568      0.2            92.85513     
      4200   0.19136849     0.0014298904   0.0014298904   0              0              941.31963      1708.7204      173.69496      0              91.934288      0              0              9.6118084      9.6548328      0.2            92.800403    
      4300   0.23013918     0.0013799007   0.0013799007   0              0             -128.68332      536.64246     -794.21538      0              498.38468      0              0              9.6108436      9.669776       0.2            92.934704    
      4400   0.28114625     0.0012279914   0.0012279914   0              0              1221.5589      1700.2272      742.66672      0              681.29736      0              0              9.6098787      9.6644276      0.2            92.873976    
      4500   0.17862654     0.0013412923   0.0013412923   0              0              452.07175      1205.5127     -301.59425      0              404.25723      0              0              9.6089138      9.6694365      0.2            92.912781    
      4600   0.24066061     0.0014134623   0.0014134623   0              0              1057.0371      2442.0786     -328.21727      0              391.23332      0              0              9.6079489      9.6649297      0.2            92.860151    
      4700   0.26944833     0.0014400408   0.0014400408   0              0              1844.6707      2944.162       745.00696      0              504.5624       0              0              9.606984       9.6610064      0.2            92.813134    
      4800   0.25149004     0.0012628852   0.0012628852   0              0              704.43595      1955.4475     -546.76026      0              738.68599      0              0              9.6060191      9.6698353      0.2            92.888623    
      4900   0.24194869     0.0012384215   0.0012384215   0              0              838.05565      1568.1392      107.78925      0              727.25024      0              0              9.6050543      9.6634722      0.2            92.818175    
      5000   0.23162725     0.0013416753   0.0013416753   0              0              1645.714       2888.8213      402.38503      0              508.4199       0              0              9.6040894      9.6608123      0.2            92.783305    
      5100   0.18970673     0.0014421056   0.0014421056   0              0              563.07055      1729.6026     -603.65699      0              946.94338      0              0              9.6031245      9.6587431      0.2            92.754113    
      5200   0.1943532      0.0013721025   0.0013721025   0              0              2173.3892      3782.1635      564.40213      0              664.87732      0              0              9.6021596      9.6522864      0.2            92.682794    
      5300   0.17442844     0.0015764446   0.0015764446   0              0              1430.8673      2957.2316     -95.696312      0              6.1793607      0              0              9.6011947      9.6562926      0.2            92.711946    
      5400   0.18633821     0.0013067295   0.0013067295   0              0              1051.1742      2611.0855     -508.99689      0              159.54644      0              0              9.6002298      9.662913       0.2            92.766186    
      5500   0.21276629     0.001434314    0.001434314    0              0              1510.8934      2454.3416      567.27374      0              69.199277      0              0              9.5992649      9.6589008      0.2            92.718348    
      5600   0.20359863     0.0013311394   0.0013311394   0              0              1472.9867      3181.0599     -235.30009      0             -27.83897       0              0              9.5983001      9.66077        0.2            92.726969    
      5700   0.21253439     0.0015474147   0.0015474147   0              0              703.12273      1678.5066     -272.40825      0             -68.705145      0              0              9.5973352      9.666445       0.2            92.772113    
      5800   0.20433551     0.0018448499   0.0018448499   0              0              1428.8984      2191.3148      666.25477      0              108.4396       0              0              9.5963703      9.6628488      0.2            92.728275    
      5900   0.20853549     0.0017169106   0.0017169106   0              0              266.13361      1189.3074     -657.21322      0              287.0796       0              0              9.5954054      9.6741589      0.2            92.827477    
      6000   0.1843423      0.0015201953   0.0015201953   0              0              1480.5545      2647.0757      313.85649      0              757.01761      0              0              9.5944405      9.6694935      0.2            92.773381    
      6100   0.2114276      0.0014931192   0.0014931192   0              0              1050.6189      1930.6931      170.31244      0              231.16184      0              0              9.5934756      9.6678618      0.2            92.748396    
      6200   0.15944215     0.0012923618   0.0012923618   0              0              797.32029      1979.9849     -385.52407      0             -368.16313      0              0              9.5925108      9.6727073      0.2            92.785549    
      6300   0.23590404     0.0012621494   0.0012621494   0              0              1431.4533      2394.3759      468.32579      0              458.17327      0              0              9.5915459      9.6682081      0.2            92.733062    
      6400   0.25933941     0.0013719024   0.0013719024   0              0              1241.7385      2507.7535     -24.50546       0              577.78648      0              0              9.590581       9.6699278      0.2            92.740226    
      6500   0.19552119     0.0015554399   0.0015554399   0              0              1162.6421      2651.141      -326.0836       0              784.83534      0              0              9.5896161      9.6677216      0.2            92.709739    
      6600   0.16635823     0.0013680728   0.0013680728   0              0              2166.1345      3750.9105      581.20741      0              288.71876      0              0              9.5886512      9.6661073      0.2            92.684932    
      6700   0.19784687     0.0015791938   0.0015791938   0              0              794.85056      1926.0628     -336.56284      0              642.43675      0              0              9.5876863      9.6672533      0.2            92.686593    
      6800   0.2079968      0.0013083432   0.0013083432   0              0              1111.4564      2283.9153     -61.228017      0             -14.996384      0              0              9.5867215      9.6690546      0.2            92.694533    
      6900   0.21185465     0.0015816757   0.0015816757   0              0              1445.7713      2552.8237      338.53512      0              407.57544      0              0              9.5857566      9.6757027      0.2            92.74893     
      7000   0.21700061     0.0014644537   0.0014644537   0              0              626.50329      1420.2686     -167.48384      0              303.09424      0              0              9.5847917      9.6744312      0.2            92.727408    
      7100   0.17936708     0.0014587616   0.0014587616   0              0              1236.631       2629.2381     -156.16117      0              417.97969      0              0              9.5838268      9.6740188      0.2            92.714121    
      7200   0.16090211     0.0014488426   0.0014488426   0              0              1837.6496      3325.343       349.75863      0              1381.9937      0              0              9.5828619      9.6719048      0.2            92.684528    
      7300   0.18871102     0.0015180998   0.0015180998   0              0              1416.767       3207.9868     -374.68581      0              594.14407      0              0              9.581897       9.6733514      0.2            92.689057    
      7400   0.1740262      0.0015207737   0.0015207737   0              0              1416.3765      2676.3409      156.1747       0              144.41664      0              0              9.5809322      9.6713502      0.2            92.66055     
      7500   0.18898289     0.0015017194   0.0015017194   0              0              1383.3399      2495.9478      270.54226      0              118.93583      0              0              9.5799673      9.6715927      0.2            92.653542    
      7600   0.18288794     0.0014913593   0.0014913593   0              0              1051.3975      2569.8186     -467.20905      0              325.01779      0              0              9.5790024      9.671947       0.2            92.647603    
      7700   0.21305277     0.0015474057   0.0015474057   0              0              1574.4573      2747.5827      401.1209       0              751.68033      0              0              9.5780375      9.6675985      0.2            92.596621    
      7800   0.19340232     0.001912358    0.001912358    0              0              1509.37        3146.2093     -127.69834      0              101.62539      0              0              9.5770726      9.6731161      0.2            92.640135    
      7900   0.26946797     0.0016204478   0.0016204478   0              0              1513.0628      3039.0139     -13.090854      0              1038.9574      0              0              9.5761077      9.6698621      0.2            92.599641    
      8000   0.18704477     0.0014945299   0.0014945299   0              0              1528.298       2897.5995      158.78516      0              971.34027      0              0              9.5751428      9.6695849      0.2            92.587656    
      8100   0.20837182     0.0016028893   0.0016028893   0              0              1641.496       3474.2441     -191.47734      0              552.95938      0              0              9.574178       9.6628574      0.2            92.513916    
      8200   0.20442133     0.0015663792   0.0015663792   0              0              1946.1024      3789.7255      102.27132      0              506.60154      0              0              9.5732131      9.6588863      0.2            92.466577    
      8300   0.18327593     0.0018719354   0.0018719354   0              0              1973.5357      4112.6365     -165.74259      0              500.27555      0              0              9.5722482      9.661866       0.2            92.485779    
      8400   0.2644579      0.0016990266   0.0016990266   0              0              1747.9438      3527.3034     -31.618313      0              513.09062      0              0              9.5712833      9.6651703      0.2            92.508083    
      8500   0.18984181     0.0015406789   0.0015406789   0              0              1960.7117      3677.1968      243.97677      0              683.48404      0              0              9.5703184      9.6647368      0.2            92.494608    
      8600   0.19599664     0.0015343122   0.0015343122   0              0              1083.229       2395.0862     -228.86374      0              261.22863      0              0              9.5693535      9.6697058      0.2            92.532833    
      8700   0.20616571     0.0018143906   0.0018143906   0              0              1057.4798      1922.1782      192.60854      0              1916.6142      0              0              9.5683887      9.6703053      0.2            92.52924     
      8800   0.19224179     0.0018448767   0.0018448767   0              0              1169.8368      2315.7472      23.73653       0              809.57743      0              0              9.5674238      9.6776127      0.2            92.589822    
      8900   0.18596161     0.0018136067   0.0018136067   0              0              1116.1427      2514.2752     -282.21786      0              1179.5018      0              0              9.5664589      9.6866446      0.2            92.666888    
      9000   0.24787319     0.0016663245   0.0016663245   0              0              1393.8353      2420.3505      367.12277      0              396.52069      0              0              9.565494       9.6773496      0.2            92.568629    
      9100   0.26396565     0.0017842591   0.0017842591   0              0              1513.0762      3255.0398     -229.11513      0              155.83557      0              0              9.5645291      9.6852242      0.2            92.634609    
      9200   0.2630213      0.0017753878   0.0017753878   0              0              1381.6749      2837.8688     -74.726522      0              415.13633      0              0              9.5635642      9.6869608      0.2            92.641872    
      9300   0.21111077     0.001713581    0.001713581    0              0              1311.5286      2309.1088      313.73677      0              766.2285       0              0              9.5625994      9.6851487      0.2            92.615197    
      9400   0.19896035     0.0019098704   0.0019098704   0              0              1374.7701      3023.4774     -274.14083      0              1575.0427      0              0              9.5616345      9.6856652      0.2            92.61079     
      9500   0.2004629      0.0020393832   0.0020393832   0              0              1218.5442      2465.7943     -28.942853      0              1155.9793      0              0              9.5606696      9.6864374      0.2            92.608827    
      9600   0.20582449     0.0020073532   0.0020073532   0              0              1676.5748      3131.6379      221.24914      0             -7.2998497      0              0              9.5597047      9.6818007      0.2            92.555156    
      9700   0.23115182     0.0019681349   0.0019681349   0              0              1587.4017      3466.5728     -292.00034      0              352.34023      0              0              9.5587398      9.6859396      0.2            92.585377    
      9800   0.19716099     0.0019131916   0.0019131916   0              0              1551.972       2880.7456      222.95622      0              813.69899      0              0              9.5577749      9.6811177      0.2            92.529944    
      9900   0.19671513     0.0018699299   0.0018699299   0              0              1460.1119      3028.5913     -108.56168      0              470.52977      0              0              9.55681        9.6860026      0.2            92.567287    
     10000   0.21602089     0.0017369603   0.0017369603   0              0              1487.4133      3149.5847     -174.95305      0              925.89539      0              0              9.5558452      9.6850626      0.2            92.548958    
     10100   0.19878313     0.0018073773   0.0018073773   0              0              1750.362       2934.2156      566.30207      0              918.85392      0              0              9.5548803      9.6846283      0.2            92.535464    
     10200   0.21473876     0.0023290597   0.0023290597   0              0              1842.7579      4315.8547     -630.53882      0              1418.271       0              0              9.5539154      9.6829284      0.2            92.509879    
     10300   0.19940356     0.0022288796   0.0022288796   0              0              2270.044       4238.9596      300.87484      0              1255.433       0              0              9.5529505      9.6776398      0.2            92.450014    
     10400   0.19003197     0.0019931257   0.0019931257   0              0              2842.4607      5243.6042      441.09328      0              555.40309      0              0              9.5519856      9.6865556      0.2            92.52584     
     10500   0.16514723     0.0020992089   0.0020992089   0              0              1603.9582      4274.7564     -1067.0657      0              569.80834      0              0              9.5510207      9.6883403      0.2            92.533539    
     10600   0.1993038      0.0021572255   0.0021572255   0              0              2277.5254      3417.9401      1136.9276      0             -13.935477      0              0              9.5500559      9.6796026      0.2            92.440745    
     10700   0.18793185     0.0021524367   0.0021524367   0              0              1628.3483      3952.3878     -695.89938      0              197.00254      0              0              9.549091       9.6942829      0.2            92.57159     
     10800   0.21067824     0.0020977074   0.0020977074   0              0              1965.1826      4008.7886     -78.62705       0              315.59801      0              0              9.5481261      9.690443       0.2            92.525572    
     10900   0.18626048     0.0022412247   0.0022412247   0              0              2569.7267      4140.1818      999.04979      0              591.1598       0              0              9.5471612      9.6871688      0.2            92.484962    
     11000   0.17797063     0.0021108677   0.0021108677   0              0              1093.2996      3634.3028     -1447.8873      0              1299.1269      0              0              9.5461963      9.7016789      0.2            92.614131    
     11100   0.19905021     0.0022616198   0.0022616198   0              0              2619.3887      4122.8041      1115.746       0              163.42395      0              0              9.5452314      9.6892861      0.2            92.486478    
     11200   0.19928703     0.0025113279   0.0025113279   0              0              817.72068      1910.2788     -275.05057      0              238.34289      0              0              9.5442666      9.7005477      0.2            92.584613    
     11300   0.22490586     0.0023141642   0.0023141642   0              0              1325.4062      3221.4687     -570.83646      0             -15.446716      0              0              9.5433017      9.6989009      0.2            92.559537    
     11400   0.17660032     0.0020528706   0.0020528706   0              0              2591.8332      3960.4866      1222.9989      0              435.74012      0              0              9.5423368      9.691443       0.2            92.479013    
     11500   0.18483535     0.0022312129   0.0022312129   0              0              542.4139       2412.6068     -1327.9223      0              567.67282      0              0              9.5413719      9.7021489      0.2            92.571811    
     11600   0.20147665     0.0023446086   0.0023446086   0              0              2050.0599      3107.1369      992.74142      0              1356.1612      0              0              9.540407       9.6952809      0.2            92.496926    
     11700   0.23243494     0.0022816344   0.0022816344   0              0              1509.0819      3157.6658     -139.63584      0              1074.1818      0              0              9.5394421      9.7006234      0.2            92.538536    
     11800   0.20729694     0.002359007    0.002359007    0              0              1038.1753      2653.0112     -576.866        0              904.64889      0              0              9.5384773      9.7030684      0.2            92.552498    
     11900   0.24982137     0.0022141703   0.0022141703   0              0              1819.003       2567.6351      1070.1502      0              340.72309      0              0              9.5375124      9.6888256      0.2            92.407294    
     12000   0.19268593     0.0023143231   0.0023143231   0              0              557.87909      2237.0939     -1121.5413      0              955.94047      0              0              9.5365475      9.6961591      0.2            92.467881    
     12100   0.24294477     0.0020221043   0.0020221043   0              0              1907.0255      3097.7917      716.04765      0              733.84374      0              0              9.5355826      9.6935524      0.2            92.43367     
     12200   0.1820163      0.0023805142   0.0023805142   0              0              1777.9579      3625.5492     -69.844536      0              618.47363      0              0              9.5346177      9.6987491      0.2            92.473865    
     12300   0.19735083     0.0020260393   0.0020260393   0              0              929.46349      2298.801      -440.08127      0              1433.9612      0              0              9.5336528      9.698516       0.2            92.462284    
     12400   0.22408053     0.0021609247   0.0021609247   0              0              2174.5173      3617.0891      731.72756      0              624.60277      0              0              9.5326879      9.69269        0.2            92.397389    
     12500   0.16617418     0.0022828415   0.0022828415   0              0              1225.0205      3178.8445     -728.99446      0              784.42613      0              0              9.5317231      9.7004104      0.2            92.461625    
     12600   0.19524964     0.0021570192   0.0021570192   0              0              1824.3858      3175.9538      472.62282      0              31.06378       0              0              9.5307582      9.6945458      0.2            92.396372    
     12700   0.17634603     0.0022758561   0.0022758561   0              0              1814.8325      3827.8541     -198.39349      0              1267.0695      0              0              9.5297933      9.6950881      0.2            92.392186    
     12800   0.19953141     0.0023509749   0.0023509749   0              0              2022.4819      4284.9638     -240.20713      0              454.00974      0              0              9.5288284      9.6903364      0.2            92.337553    
     12900   0.17801654     0.0022189731   0.0022189731   0              0              2352.9117      4110.9647      594.64598      0              1108.3015      0              0              9.5278635      9.6893709      0.2            92.319004    
     13000   0.18541969     0.0024311916   0.0024311916   0              0              540.53996      1908.9068     -828.02113      0             -88.595576      0              0              9.5268986      9.6983355      0.2            92.395059    
     13100   0.18990874     0.0021900864   0.0021900864   0              0              1825.5081      3062.5095      588.32379      0              875.79936      0              0              9.5259338      9.6927705      0.2            92.33269     
     13200   0.18453567     0.0023506014   0.0023506014   0              0              1596.7021      3398.6937     -205.49282      0              497.54284      0              0              9.5249689      9.6932557      0.2            92.327959    
     13300   0.1654819      0.0021133116   0.0021133116   0              0              1149.1833      2462.9543     -164.76953      0              1206.0247      0              0              9.524004       9.6970678      0.2            92.354912    
     13400   0.17754197     0.0021825456   0.0021825456   0              0              1997.5478      3660.881       333.99759      0              1530.7803      0              0              9.5230391      9.6945891      0.2            92.321952    
     13500   0.22267702     0.002052449    0.002052449    0              0              1445.1576      3247.2079     -357.14861      0              697.84874      0              0              9.5220742      9.7051375      0.2            92.41304     
     13600   0.18640585     0.0023421995   0.0023421995   0              0              1387.3157      2353.4903      420.92566      0              1042.3662      0              0              9.5211093      9.706471       0.2            92.416371    
     13700   0.22200478     0.0023056375   0.0023056375   0              0              1223.0238      2774.5848     -328.75283      0              1473.3357      0              0              9.5201445      9.7068584      0.2            92.410694    
     13800   0.17461826     0.0025176272   0.0025176272   0              0              1690.8383      3239.3084      142.14628      0              1455.5444      0              0              9.5191796      9.7026234      0.2            92.361014    
     13900   0.14300701     0.0022922862   0.0022922862   0              0              1555.1999      2969.3014      140.88403      0              1514.1348      0              0              9.5182147      9.7047589      0.2            92.371979    
     14000   0.16442782     0.002241146    0.002241146    0              0              1104.8565      2463.0371     -253.53526      0              1506.9848      0              0              9.5172498      9.7053444      0.2            92.368187    
     14100   0.18076587     0.002387195    0.002387195    0              0              1854.768       3299.3661      409.99581      0              1270.2364      0              0              9.5162849      9.7017542      0.2            92.324657    
     14200   0.21265796     0.0023722512   0.0023722512   0              0              1135.9244      2643.8816     -372.21786      0              1057.7115      0              0              9.51532        9.7050125      0.2            92.3463      
     14300   0.1793403      0.0023917022   0.0023917022   0              0              1855.3401      3433.1273      277.35023      0              1081.6435      0              0              9.5143552      9.7019944      0.2            92.308221    
     14400   0.22841158     0.0026149807   0.0026149807   0              0              1451.2694      3144.8926     -242.55823      0              341.48054      0              0              9.5133903      9.7071367      0.2            92.34778     
     14500   0.1820916      0.002371446    0.002371446    0              0              1427.3459      2699.857       154.65493      0              854.19591      0              0              9.5124254      9.7077779      0.2            92.344512    
     14600   0.21209645     0.0024896909   0.0024896909   0              0              1389.9368      2786.2346     -6.591665       0              1682.6667      0              0              9.5114605      9.7147245      0.2            92.401218    
     14700   0.18986276     0.0025697367   0.0025697367   0              0              1603.5053      3319.1553     -112.33854      0              1094.1622      0              0              9.5104956      9.7129846      0.2            92.375298    
     14800   0.16022504     0.0026035439   0.0026035439   0              0              1519.9249      2869.5955      170.08004      0              1551.1083      0              0              9.5095307      9.7105812      0.2            92.34307     
     14900   0.20145366     0.0024623921   0.0024623921   0              0              1711.3619      3749.6116     -327.11096      0              1508.3069      0              0              9.5085658      9.7194054      0.2            92.417606    
     15000   0.22073736     0.002338387    0.002338387    0              0              1608.9469      2729.4459      488.24989      0              1476.4257      0              0              9.507601       9.7138354      0.2            92.355271    
     15100   0.20323035     0.0025913753   0.0025913753   0              0              1536.7168      3552.0866     -478.89039      0              1034.3545      0              0              9.5066361      9.7133781      0.2            92.34155     
     15200   0.19930249     0.0026364315   0.0026364315   0              0              1836.4154      3343.2008      329.43433      0              449.68442      0              0              9.5056712      9.702097       0.2            92.224944    
     15300   0.24435974     0.002595525    0.002595525    0              0              1413.2461      2854.1652     -27.896688      0              1904.9384      0              0              9.5047063      9.7033861      0.2            92.227835    
     15400   0.18504126     0.0023486683   0.0023486683   0              0              1674.7358      3642.2414     -292.99289      0              1236.823       0              0              9.5037414      9.7040221      0.2            92.224517    
     15500   0.24047034     0.0025513469   0.0025513469   0              0              2117.2583      3581.2143      653.06032      0              898.55096      0              0              9.5027765      9.6951936      0.2            92.131258    
     15600   0.22659342     0.0026933744   0.0026933744   0              0              872.87313      2855.8672     -1110.3418      0              1575.6975      0              0              9.5018117      9.7058304      0.2            92.222972    
     15700   0.23344337     0.00260995     0.00260995     0              0              2660.1609      3931.6433      1388.4725      0              1795.5246      0              0              9.5008468      9.6977201      0.2            92.136553    
     15800   0.18459153     0.0026768245   0.0026768245   0              0              1460.38        4153.5837     -1233.017       0              1596.5906      0              0              9.4998819      9.7078305      0.2            92.223244    
     15900   0.17479325     0.0026557317   0.0026557317   0              0              2516.6486      4196.9327      836.1713       0              1339.3547      0              0              9.498917       9.7032888      0.2            92.170735    
     16000   0.21332191     0.003029111    0.003029111    0              0              2104.363       4352.7941     -144.26338      0              1655.3978      0              0              9.4979521      9.7091734      0.2            92.217264    
     16100   0.21437063     0.0028149379   0.0028149379   0              0              1614.2213      3789.0645     -560.80967      0              1288.4193      0              0              9.4969872      9.70688        0.2            92.186115    
     16200   0.24920786     0.0030941102   0.0030941102   0              0              2653.7168      4104.4115      1202.82        0              1114.6961      0              0              9.4960224      9.7079756      0.2            92.187153    
     16300   0.24127286     0.0029241775   0.0029241775   0              0              626.14767      2847.5916     -1595.4915      0              1086.2847      0              0              9.4950575      9.7184295      0.2            92.277046    
     16400   0.1850933      0.0026467364   0.0026467364   0              0              2767.6758      3927.5945      1607.5388      0              1350.7817      0              0              9.4940926      9.7037747      0.2            92.128535    
     16500   0.18320964     0.0029402708   0.0029402708   0              0              387.22894      2357.1324     -1582.8853      0              1469.781       0              0              9.4931277      9.7121145      0.2            92.198343    
     16600   0.22108618     0.0027303058   0.0027303058   0              0              2630.7863      4115.2276      1146.0988      0              1109.8525      0              0              9.4921628      9.6984773      0.2            92.059525    
     16700   0.18336836     0.0030557831   0.0030557831   0              0              1308.339       3150.0295     -533.58338      0              1095.7545      0              0              9.4911979      9.7083185      0.2            92.143572    
     16800   0.21672544     0.0025866891   0.0025866891   0              0              1647.1157      3549.6186     -255.63628      0              1610.0236      0              0              9.490233       9.704709       0.2            92.099951    
     16900   0.23597856     0.0027706187   0.0027706187   0              0              2146.8799      3363.3833      930.15782      0              659.44091      0              0              9.4892682      9.7011712      0.2            92.057015    
     17000   0.19938504     0.0027851091   0.0027851091   0              0              1633.2116      4404.0152     -1137.7732      0              1295.1326      0              0              9.4883033      9.7125518      0.2            92.155637    
     17100   0.2177752      0.0029565959   0.0029565959   0              0              2231.273       3347.0042      1115.2948      0              1167.2641      0              0              9.4873384      9.6958644      0.2            91.987947    
     17200   0.21390585     0.0027808171   0.0027808171   0              0              980.26295      3026.229      -1065.9181      0              1434.2594      0              0              9.4863735      9.7120788      0.2            92.132407    
     17300   0.19414873     0.0028014534   0.0028014534   0              0              2448.65        4072.8499      824.22055      0              1465.888       0              0              9.4854086      9.6989281      0.2            91.998296    
     17400   0.23501216     0.0029756533   0.0029756533   0              0              1165.1023      2739.5082     -409.55786      0              1584.5602      0              0              9.4844437      9.7032922      0.2            92.030329    
     17500   0.15798597     0.0028041323   0.0028041323   0              0              1780.1331      3582.0479     -22.03781       0              1861.4759      0              0              9.4834789      9.7041566      0.2            92.029164    
     17600   0.16684994     0.0030437843   0.0030437843   0              0              2381.2832      4378.8003      383.58327      0              1459.5157      0              0              9.482514       9.6990462      0.2            91.971342    
     17700   0.16452845     0.0031758053   0.0031758053   0              0              1165.9304      2978.2111     -646.56737      0              1537.9978      0              0              9.4815491      9.7079856      0.2            92.046742    
     17800   0.20644495     0.0029745398   0.0029745398   0              0              2054.4146      3481.4469      627.1651       0              2015.6946      0              0              9.4805842      9.700485       0.2            91.966265    
     17900   0.17438918     0.0029691732   0.0029691732   0              0              863.10641      2338.8117     -612.77503      0              2092.5112      0              0              9.4796193      9.7066058      0.2            92.014928    
     18000   0.15981424     0.0029811061   0.0029811061   0              0              1762.9209      3035.4757      490.16157      0              1702.0175      0              0              9.4786544      9.698764       0.2            91.931233    
     18100   0.16248091     0.0030567489   0.0030567489   0              0              2056.0218      4403.5404     -291.67574      0              1949.7246      0              0              9.4776896      9.7054073      0.2            91.984837    
     18200   0.21535511     0.003010399    0.003010399    0              0              1824.6979      3665.687      -16.537627      0              1747.0821      0              0              9.4767247      9.7096124      0.2            92.015323    
     18300   0.21514181     0.0029005081   0.0029005081   0              0              1652.0628      2962.4399      341.48694      0              1879.1277      0              0              9.4757598      9.7084592      0.2            91.995028    
     18400   0.22092005     0.0029599065   0.0029599065   0              0              1386.5484      3270.8104     -497.93722      0              1653.9531      0              0              9.4747949      9.7067641      0.2            91.969599    
     18500   0.25339826     0.0031598475   0.0031598475   0              0              1526.0818      2480.8475      571.08863      0              2032.1979      0              0              9.47383        9.709544       0.2            91.986569    
     18600   0.17597073     0.0032978531   0.0032978531   0              0              863.38822      2306.4342     -579.85317      0              1080.9144      0              0              9.4728651      9.7207646      0.2            92.083492    
     18700   0.17518562     0.0031375514   0.0031375514   0              0              1981.2801      3442.3611      519.95247      0              1493.1167      0              0              9.4719003      9.7116094      0.2            91.987396    
     18800   0.19435361     0.0031207746   0.0031207746   0              0              1096.3573      2783.8802     -591.37313      0              1644.1636      0              0              9.4709354      9.7221794      0.2            92.078133    
     18900   0.23572976     0.0032428551   0.0032428551   0              0              2083.9091      3696.3254      471.31894      0              821.40107      0              0              9.4699705      9.7088987      0.2            91.942984    
     19000   0.25623499     0.0030614146   0.0030614146   0              0              1550.132       3404.1955     -304.1706       0              1737.6772      0              0              9.4690056      9.7146965      0.2            91.988515    
     19100   0.19830397     0.0034530221   0.0034530221   0              0              1322.6727      2527.3304      117.81488      0              1823.1017      0              0              9.4680407      9.7141984      0.2            91.974426    
     19200   0.21490987     0.0032076316   0.0032076316   0              0              1955.62        3862.1901      48.835143      0              1578.6063      0              0              9.4670758      9.7111318      0.2            91.936021    
     19300   0.24004841     0.0031809166   0.0031809166   0              0              1801.8539      3946.4699     -342.94733      0              1697.2476      0              0              9.4661109      9.7136603      0.2            91.950586    
     19400   0.20800267     0.0031890452   0.0031890452   0              0              2213.2494      3906.7669      519.52079      0              1649.6065      0              0              9.4651461      9.7124302      0.2            91.92957     
     19500   0.21424422     0.0031228801   0.0031228801   0              0              1477.7703      3627.1696     -671.8435       0              1186.7231      0              0              9.4641812      9.7194287      0.2            91.986434    
     19600   0.15914446     0.0033011299   0.0033011299   0              0              1592.3294      2549.1273      635.34037      0              1278.4171      0              0              9.4632163      9.7117189      0.2            91.904096    
     19700   0.21131437     0.0029984229   0.0029984229   0              0              1126.2718      2846.7902     -594.45681      0              1873.3529      0              0              9.4622514      9.7149677      0.2            91.925467    
     19800   0.2077834      0.0032226666   0.0032226666   0              0              2042.5387      3613.3517      471.5263       0              2199.7855      0              0              9.4612865      9.7194871      0.2            91.958852    
     19900   0.15466166     0.0032955218   0.0032955218   0              0              1212.5779      2808.8992     -383.94751      0              1464.3571      0              0              9.4603216      9.7242088      0.2            91.994143    
     20000   0.20792555     0.0033952432   0.0033952432   0              0              1691.9527      3240.5808      143.08804      0              2043.588       0              0              9.4593568      9.7226989      0.2            91.970477    
     20100   0.20854291     0.0031909781   0.0031909781   0              0              1809.9762      3559.649       60.077331      0              1464.3394      0              0              9.4583919      9.7156226      0.2            91.894166    
     20200   0.19659186     0.0032836276   0.0032836276   0              0              1654.5917      3525.7231     -216.73093      0              965.28438      0              0              9.457427       9.7163318      0.2            91.891498    
     20300   0.23059267     0.0033737913   0.0033737913   0              0              2470.4997      4399.9569      540.8663       0              1706.7172      0              0              9.4564621      9.7121002      0.2            91.842107    
     20400   0.1736826      0.0032794613   0.0032794613   0              0              1003.1707      2749.1073     -742.93987      0              2031.7667      0              0              9.4554972      9.7212393      0.2            91.919151    
     20500   0.19762305     0.003230328    0.003230328    0              0              2540.0323      4121.2778      958.55098      0              1951.9466      0              0              9.4545323      9.717451       0.2            91.873954    
     20600   0.15791559     0.0035368751   0.0035368751   0              0              1169.6999      3383.6688     -1044.4836      0              2003.2604      0              0              9.4535675      9.7246633      0.2            91.932761    
     20700   0.21887126     0.0038059077   0.0038059077   0              0              2983.2964      4854.067       1112.2964      0              2109.4157      0              0              9.4526026      9.7166379      0.2            91.847516    
     20800   0.18454012     0.0034808414   0.0034808414   0              0              663.75158      2621.1375     -1293.843       0              1195.9653      0              0              9.4516377      9.7308071      0.2            91.972063    
     20900   0.24077985     0.0037207381   0.0037207381   0              0              3043.9715      4753.1114      1334.6082      0              1584.6903      0              0              9.4506728      9.7094729      0.2            91.761051    
     21000   0.21304469     0.0035373736   0.0035373736   0              0              1291.745       3864.3099     -1281.0125      0              2022.5303      0              0              9.4497079      9.7170689      0.2            91.823463    
     21100   0.21021189     0.0034056591   0.0034056591   0              0              3059.0437      4962.9849      1154.9124      0              1822.016       0              0              9.448743       9.7151187      0.2            91.79566     
     21200   0.18762359     0.0036024964   0.0036024964   0              0              1696.9617      4531.1674     -1137.4454      0              1697.9888      0              0              9.4477782      9.7251042      0.2            91.880627    
     21300   0.20729679     0.0035668547   0.0035668547   0              0              2392.0926      3790.6776      993.27721      0              926.45974      0              0              9.4468133      9.7166377      0.2            91.791262    
     21400   0.16574679     0.0039348285   0.0039348285   0              0              1612.8866      3951.7583     -726.19282      0              1784.186       0              0              9.4458484      9.7217414      0.2            91.830095    
     21500   0.17140997     0.0038419601   0.0038419601   0              0              2858.0771      5358.3643      357.56728      0              2205.7283      0              0              9.4448835      9.7235829      0.2            91.838107    
     21600   0.23330287     0.0037458464   0.0037458464   0              0              1980.3504      3943.0891      17.401315      0              2636.1494      0              0              9.4439186      9.7220362      0.2            91.814119    
     21700   0.22943134     0.0035970015   0.0035970015   0              0              2125.9732      4421.8766     -170.14137      0              1920.1769      0              0              9.4429537      9.7213723      0.2            91.798469    
     21800   0.21350034     0.0035358915   0.0035358915   0              0              2218.9141      4072.5834      365.0536       0              1512.7979      0              0              9.4419888      9.7239942      0.2            91.813845    
     21900   0.24666873     0.0037351684   0.0037351684   0              0              1907.5284      4368.1311     -553.29485      0              1824.5539      0              0              9.441024       9.7204181      0.2            91.770701    
     22000   0.19229691     0.0034584186   0.0034584186   0              0              2385.6649      4176.9827      594.10088      0              843.55635      0              0              9.4400591      9.713346       0.2            91.69456     
     22100   0.23257688     0.003629887    0.003629887    0              0              1291.9249      3362.429      -778.78407      0              1717.9873      0              0              9.4390942      9.7177244      0.2            91.726516    
     22200   0.23495141     0.0035089949   0.0035089949   0              0              2789.2378      4722.2986      855.94385      0              822.08441      0              0              9.4381293      9.7164258      0.2            91.704883    
     22300   0.17292552     0.0036199319   0.0036199319   0              0              1513.1388      3920.2012     -894.16142      0              1251.3847      0              0              9.4371644      9.7185332      0.2            91.715396    
     22400   0.22180626     0.0034560461   0.0034560461   0              0              2584.9569      4294.4754      875.25299      0              1899.002       0              0              9.4361995      9.7151519      0.2            91.674112    
     22500   0.16750528     0.0036625154   0.0036625154   0              0              1675.2212      4249.5416     -899.30145      0              1818.9237      0              0              9.4352347      9.7179886      0.2            91.691503    
     22600   0.20345454     0.0036745294   0.0036745294   0              0              3190.906       5410.9575      970.70694      0              1968.9675      0              0              9.4342698      9.7113382      0.2            91.619385    
     22700   0.19325399     0.0034421809   0.0034421809   0              0              1777.1993      4567.7125     -1013.5366      0              2224.0048      0              0              9.4333049      9.7159694      0.2            91.653702    
     22800   0.22041132     0.0037470519   0.0037470519   0              0              2827.9068      4746.1355      909.46895      0              2032.4403      0              0              9.43234        9.7092055      0.2            91.580527    
     22900   0.23645209     0.0036789553   0.0036789553   0              0              1162.5032      3236.886      -912.10701      0              1994.8471      0              0              9.4313751      9.7102677      0.2            91.581177    
     23000   0.19881874     0.0037600742   0.0037600742   0              0              3125.9618      5298.1442      953.57784      0              1765.4894      0              0              9.4304102      9.7013121      0.2            91.487353    
     23100   0.22167454     0.0037258347   0.0037258347   0              0              1732.6484      4326.9822     -861.89803      0              1800.3625      0              0              9.4294454      9.7092849      0.2            91.553172    
     23200   0.21556456     0.0036439884   0.0036439884   0              0              2551.5163      4335.9339      766.92019      0              2370.4754      0              0              9.4284805      9.7082776      0.2            91.534306    
     23300   0.27272564     0.003957072    0.003957072    0              0              1158.891       3068.1002     -750.52544      0              2090.9632      0              0              9.4275156      9.7180778      0.2            91.61733     
     23400   0.25565312     0.0036363982   0.0036363982   0              0              2233.1798      3759.8216      706.33717      0              2176.1954      0              0              9.4265507      9.7092927      0.2            91.52514     
     23500   0.25636945     0.0034856568   0.0034856568   0              0              1563.2629      3702.3417     -576.02538      0              2094.3228      0              0              9.4255858      9.7119374      0.2            91.5407      
     23600   0.23353502     0.0035761038   0.0035761038   0              0              2582.9125      4673.3741      492.25374      0              1630.2734      0              0              9.4246209      9.7078254      0.2            91.492575    
     23700   0.18748963     0.003662931    0.003662931    0              0              1296.1895      3034.5968     -442.39365      0              1849.8203      0              0              9.423656       9.705777       0.2            91.463904    
     23800   0.1877124      0.0035534602   0.0035534602   0              0              1713.1267      2915.3549      510.67685      0              1765.2629      0              0              9.4226912      9.710049       0.2            91.494793    
     23900   0.19735235     0.0035168713   0.0035168713   0              0              1207.121       2822.0293     -407.97022      0              2125.8592      0              0              9.4217263      9.7136047      0.2            91.518925    
     24000   0.20287057     0.0036453225   0.0036453225   0              0              1330.0007      2271.0793      388.71867      0              1780.8532      0              0              9.4207614      9.7105968      0.2            91.481216    
     24100   0.22432636     0.0039087024   0.0039087024   0              0              2150.4947      4633.1935     -332.40364      0              1839.2382      0              0              9.4197965      9.7140497      0.2            91.504372    
     24200   0.21829269     0.0036082774   0.0036082774   0              0              1700.1967      3021.5108      378.66056      0              1423.3213      0              0              9.4188316      9.7126346      0.2            91.48167     
     24300   0.2163239      0.0036509275   0.0036509275   0              0              1501.1146      3448.5622     -446.56803      0              1440.0203      0              0              9.4178667      9.7149745      0.2            91.494336    
     24400   0.19444431     0.0036115177   0.0036115177   0              0              2413.4046      4326.1961      500.38373      0              1932.855       0              0              9.4169019      9.7147705      0.2            91.483041    
     24500   0.25497353     0.0038413542   0.0038413542   0              0              1564.027       3559.7505     -431.89973      0              1618.6194      0              0              9.415937       9.7205019      0.2            91.527633    
     24600   0.20452733     0.0037222201   0.0037222201   0              0              2065.1465      3627.3277      502.74222      0              1631.1085      0              0              9.4149721      9.7107262      0.2            91.426216    
     24700   0.28263756     0.0037387123   0.0037387123   0              0              1749.7463      4201.7842     -702.52865      0              1787.8452      0              0              9.4140072      9.7180625      0.2            91.48591     
     24800   0.20208088     0.0037469148   0.0037469148   0              0              2100.9587      3578.3066      623.38324      0              1925.0304      0              0              9.4130423      9.7067738      0.2            91.370273    
     24900   0.16448342     0.0035449885   0.0035449885   0              0              681.24105      2070.5475     -708.32601      0              1827.3624      0              0              9.4120774      9.7144329      0.2            91.432994    
     25000   0.18877203     0.0035625368   0.0035625368   0              0              959.51684      1177.3568      741.46612      0              1664.8321      0              0              9.4111126      9.7016606      0.2            91.30342     
     25100   0.20956748     0.003523087    0.003523087    0              0              759.20902      2210.4348     -692.29046      0              1370.6138      0              0              9.4101477      9.7063414      0.2            91.338106    
     25200   0.22815018     0.0036189092   0.0036189092   0              0              1801.831       2914.8423      688.63417      0              1162.5654      0              0              9.4091828      9.7005474      0.2            91.274223    
     25300   0.22880444     0.0035448795   0.0035448795   0              0              1160.5506      3077.7642     -756.86496      0              2268.2083      0              0              9.4082179      9.7120237      0.2            91.372835    
     25400   0.18346229     0.0037664159   0.0037664159   0              0              2487.8878      4163.6858      811.82413      0              1759.882       0              0              9.407253       9.7034217      0.2            91.282543    
     25500   0.20323429     0.0034608492   0.0034608492   0              0              742.5868       2348.6522     -863.68058      0              1959.2253      0              0              9.4062881      9.7109836      0.2            91.34431     
     25600   0.19531003     0.0032827295   0.0032827295   0              0              1941.6761      3033.5313      849.6318       0              1605.3512      0              0              9.4053233      9.7006903      0.2            91.238128    
     25700   0.18549377     0.0032727636   0.0032727636   0              0              1224.7651      3288.5332     -839.19831      0              1803.8113      0              0              9.4043584      9.7064455      0.2            91.282892    
     25800   0.17692306     0.0036447818   0.0036447818   0              0              2656.644       4523.1444      789.92678      0              1539.8927      0              0              9.4033935      9.703785       0.2            91.248509    
     25900   0.16462651     0.0036731877   0.0036731877   0              0              1828.0608      4544.4327     -888.5512       0              2125.0376      0              0              9.4024286      9.7055456      0.2            91.255699    
     26000   0.19673458     0.003421356    0.003421356    0              0              2446.3136      3960.1294      932.29827      0              1279.9278      0              0              9.4014637      9.6978681      0.2            91.174155    
     26100   0.19922062     0.003612471    0.003612471    0              0              1028.3181      2957.5959     -901.18133      0              1742.009       0              0              9.4004988      9.7005132      0.2            91.189663    
     26200   0.22669798     0.0035498192   0.0035498192   0              0              2159.7876      3566.4318      752.95716      0              1321.9093      0              0              9.3995339      9.6917562      0.2            91.097991    
     26300   0.19454883     0.0034600017   0.0034600017   0              0              1128.5789      2826.3117     -569.3831       0              1388.5146      0              0              9.3985691      9.7034014      0.2            91.198088    
     26400   0.20681894     0.003454617    0.003454617    0              0              1735.0566      2999.3341      470.52986      0              1791.0267      0              0              9.3976042      9.6937498      0.2            91.098023    
     26500   0.29048411     0.0036134806   0.0036134806   0              0              1529.3124      3396.3211     -337.91027      0              1899.5828      0              0              9.3966393      9.6992086      0.2            91.139965    
     26600   0.16153493     0.0034650836   0.0034650836   0              0              1464.005       2680.6588      247.08418      0              1876.7417      0              0              9.3956744      9.6961262      0.2            91.101645    
     26700   0.17628783     0.0032867135   0.0032867135   0              0              1952.8612      3954.7107     -49.215935      0              1240.8275      0              0              9.3947095      9.6935178      0.2            91.067784    
     26800   0.2001042      0.0034431145   0.0034431145   0              0              2034.8301      4201.9336     -132.52606      0              1627.1385      0              0              9.3937446      9.6983486      0.2            91.103811    
     26900   0.19164809     0.0036408754   0.0036408754   0              0              1552.863       2697.7704      407.71521      0              1530.6703      0              0              9.3927798      9.6921952      0.2            91.036655    
     27000   0.1926323      0.003470888    0.003470888    0              0              1186.7093      2973.4758     -600.29353      0              1815.5181      0              0              9.3918149      9.6944336      0.2            91.048325    
     27100   0.17546032     0.0032811135   0.0032811135   0              0              2286.8255      3833.4427      739.96979      0              1759.6017      0              0              9.39085        9.6832282      0.2            90.933744    
     27200   0.20599648     0.0032343632   0.0032343632   0              0              1337.216       3572.2714     -898.06345      0              1095.689       0              0              9.3898851      9.6878646      0.2            90.967936    
     27300   0.21752714     0.0034649722   0.0034649722   0              0              2080.503       3189.1474      971.69913      0              882.51227      0              0              9.3889202      9.6753394      0.2            90.84099     
     27400   0.20315505     0.0035118996   0.0035118996   0              0              1134.7275      3300.6564     -1031.416       0              1459.685       0              0              9.3879553      9.6886157      0.2            90.956292    
     27500   0.18329402     0.0033731607   0.0033731607   0              0              1982.5617      2786.5061      1178.3951      0              702.55743      0              0              9.3869905      9.6871561      0.2            90.933242    
     27600   0.23253569     0.003436217    0.003436217    0              0              211.10221      1606.2156     -1184.2267      0              1361.2844      0              0              9.3860256      9.6983651      0.2            91.029103    
     27700   0.23227599     0.0034334485   0.0034334485   0              0              2009.9928      2775.3685      1244.4092      0              1613.6093      0              0              9.3850607      9.6854557      0.2            90.89859     
     27800   0.1932279      0.0036559877   0.0036559877   0              0              382.59867      1988.2609     -1223.29        0              1215.8343      0              0              9.3840958      9.7008077      0.2            91.033309    
     27900   0.23028637     0.0033888107   0.0033888107   0              0              1795.7314      2533.7259      1057.5479      0              1291.6567      0              0              9.3831309      9.6873125      0.2            90.897322    
     28000   0.21874439     0.0033263314   0.0033263314   0              0              927.5404       2832.0448     -977.16386      0              1143.8306      0              0              9.382166       9.6911098      0.2            90.923601    
     28100   0.23061551     0.0033121182   0.0033121182   0              0              2319.7223      3837.0489      802.18481      0              1633.1704      0              0              9.3812011      9.6753308      0.2            90.766224    
[...]
     43100   0.22638605     0.003879382    0.003879382    0              0              614.00497      2118.2466     -890.48131      0              1300.6925      0              0              9.2364685      9.6102493      0.2            88.764765    
     43200   0.23999178     0.0042265047   0.0042265047   0              0              2250.1177      3858.5939      641.42635      0              1700.141       0              0              9.2355037      9.6038464      0.2            88.696359    
     43300   0.2425131      0.0039301732   0.0039301732   0              0              1932.6679      4176.2342     -311.1118       0              1233.3336      0              0              9.2345388      9.6113306      0.2            88.756206    
     43400   0.22020127     0.0040297209   0.0040297209   0              0              1229.3321      2653.638      -195.15675      0              1476.8964      0              0              9.2335739      9.6110039      0.2            88.743915    
     43500   0.22555486     0.0039909005   0.0039909005   0              0              2604.7386      4614.7034      594.54482      0              1860.2042      0              0              9.232609       9.6006526      0.2            88.639072    
     43600   0.20312946     0.0039779581   0.0039779581   0              0              1105.8981      3171.954      -960.40444      0              1429.4883      0              0              9.2316441      9.6091839      0.2            88.708566    
     43700   0.23141952     0.0041093709   0.0041093709   0              0              2854.4728      4589.8643      1118.8626      0              1751.5559      0              0              9.2306792      9.5944133      0.2            88.562952    
     43800   0.2247491      0.0040035908   0.0040035908   0              0              704.48552      2463.5152     -1054.7665      0              1716.2464      0              0              9.2297144      9.6068543      0.2            88.668521    
     43900   0.20627156     0.0040442467   0.0040442467   0              0              2257.8507      3558.9118      956.555        0              2386.7804      0              0              9.2287495      9.6015422      0.2            88.610228    
     44000   0.20092013     0.0039384057   0.0039384057   0              0              1387.8691      3506.1909     -730.64768      0              1333.27        0              0              9.2277846      9.6048063      0.2            88.631084    
     44100   0.19184738     0.0039720741   0.0039720741   0              0              1946.7152      3468.6954      424.54699      0              1926.9324      0              0              9.2268197      9.6007529      0.2            88.584416    
     44200   0.19116284     0.0041004037   0.0041004037   0              0              1306.9114      2693.7684     -80.162275      0              1366.4198      0              0              9.2258548      9.6036587      0.2            88.601961    
     44300   0.20832042     0.0038717533   0.0038717533   0              0              1883.6334      3965.1275     -198.09457      0              1479.9867      0              0              9.2248899      9.603734       0.2            88.593389    
     44400   0.17707003     0.0038114791   0.0038114791   0              0              2241.0365      4022.4674      459.40197      0              2162.9699      0              0              9.223925       9.5985029      0.2            88.535872    
     44500   0.20818452     0.0041351025   0.0041351025   0              0              1500.911       3754.5541     -752.9356       0              1041.704       0              0              9.2229602      9.6062711      0.2            88.598255    
     44600   0.23153165     0.0042123135   0.0042123135   0              0              2351.5991      3841.4417      861.52998      0              313.35432      0              0              9.2219953      9.5955726      0.2            88.490325    
     44700   0.16456364     0.0040922378   0.0040922378   0              0              1057.4309      3036.1658     -921.55688      0              1239.5686      0              0              9.2210304      9.6054565      0.2            88.572207    
     44800   0.25702714     0.0039422917   0.0039422917   0              0              2423.5033      4129.1343      717.67562      0              1675.7933      0              0              9.2200655      9.5947274      0.2            88.464015    
     44900   0.22578605     0.004221053    0.004221053    0              0              1559.2702      3543.6193     -425.31264      0              1492.3978      0              0              9.2191006      9.6025304      0.2            88.526694    
     45000   0.18572108     0.0039988097   0.0039988097   0              0              1442.4349      2722.2779      162.33363      0              1995.999       0              0              9.2181357      9.5965919      0.2            88.462687    
     45100   0.2116116      0.0040014565   0.0040014565   0              0              2345.8026      4428.8895      262.4636       0              1438.0972      0              0              9.2171709      9.6016975      0.2            88.500486    
     45200   0.22437467     0.0043494536   0.0043494536   0              0              1082.7886      2755.1418     -589.80633      0              1711.5434      0              0              9.216206       9.5973065      0.2            88.450754    
     45300   0.1984217      0.0040272547   0.0040272547   0              0              2488.6672      4102.7325      874.41884      0              1717.4089      0              0              9.2152411      9.591827       0.2            88.390998    
     45400   0.18252802     0.0039245967   0.0039245967   0              0              617.27287      2261.6651     -1027.328       0              1736.2231      0              0              9.2142762      9.5961973      0.2            88.422012    
     45500   0.22553635     0.0037312205   0.0037312205   0              0              2216.1092      3376.6299      1055.3986      0              951.75596      0              0              9.2133113      9.5898285      0.2            88.354076    
     45600   0.23092146     0.0038058646   0.0038058646   0              0              1105.5176      3190.8563     -980.06635      0              1024.2126      0              0              9.2123464      9.5965404      0.2            88.406655    
     45700   0.2327298      0.0038604764   0.0038604764   0              0              2793.1904      4878.0188      708.17805      0              826.41194      0              0              9.2113816      9.5891558      0.2            88.329373    
     45800   0.25810609     0.0036532973   0.0036532973   0              0              1310.7116      3163.1868     -541.98535      0              1079.1936      0              0              9.2104167      9.5933287      0.2            88.358555    
     45900   0.17514655     0.0040218684   0.0040218684   0              0              1445.1726      2898.3214     -8.1658289      0              1138.737       0              0              9.2094518      9.5900914      0.2            88.319484    
     46000   0.26518613     0.0040548056   0.0040548056   0              0              1682.8441      2818.5102      546.94226      0              1978.1672      0              0              9.2084869      9.5868142      0.2            88.280053    
     46100   0.1748269      0.0042039081   0.0042039081   0              0              549.10147      1919.4528     -821.46633      0              1701.2511      0              0              9.207522       9.5844475      0.2            88.249011    
     46200   0.21437342     0.00406051     0.00406051     0              0              1875.9744      2687.6667      1064.0792      0              1843.4088      0              0              9.2065571      9.5809968      0.2            88.207994    
     46300   0.18639403     0.0038232438   0.0038232438   0              0              1135.5242      3267.1724     -996.32179      0              1494.2055      0              0              9.2055922      9.5883922      0.2            88.266829    
     46400   0.24685799     0.0038494836   0.0038494836   0              0              2184.8124      3482.7529      886.64591      0              1898.9803      0              0              9.2046274      9.5904902      0.2            88.276888    
     46500   0.22310636     0.0037858577   0.0037858577   0              0              1340.3265      3353.5188     -673.06236      0              2341.5931      0              0              9.2036625      9.5936983      0.2            88.297161    
     46600   0.21260425     0.0040914321   0.0040914321   0              0              2485.3147      4503.403       467.02959      0              1191.7833      0              0              9.2026976      9.5875939      0.2            88.231727    
     46700   0.19880644     0.0037465609   0.0037465609   0              0              1823.9316      3870.1874     -222.55692      0              1858.9909      0              0              9.2017327      9.5861121      0.2            88.208841    
     46800   0.17302639     0.0039070604   0.0039070604   0              0              1411.8615      3048.9448     -225.45244      0              1274.5717      0              0              9.2007678      9.5790668      0.2            88.134769    
     46900   0.19744525     0.0037417811   0.0037417811   0              0              1876.0394      3336.8714      415.04219      0              1756.7185      0              0              9.1998029      9.5729642      0.2            88.069385    
     47000   0.2222372      0.0037672488   0.0037672488   0              0              1448.6589      3669.0927     -772.00343      0              1771.9042      0              0              9.1988381      9.5827194      0.2            88.149884    
     47100   0.23551731     0.0037604273   0.0037604273   0              0              2351.3334      3766.2756      936.17544      0              1147.9682      0              0              9.1978732      9.5776907      0.2            88.094384    
     47200   0.20135904     0.0038258179   0.0038258179   0              0              1006.1832      2930.5066     -918.36285      0              1476.0775      0              0              9.1969083      9.5861661      0.2            88.16309     
     47300   0.20216487     0.0038638697   0.0038638697   0              0              1845.5538      2966.5825      724.31209      0              1270.1022      0              0              9.1959434      9.5812217      0.2            88.108373    
     47400   0.21927413     0.0039103684   0.0039103684   0              0              1756.3286      4006.1667     -493.75595      0              1521.549       0              0              9.1949785      9.5835532      0.2            88.120566    
     47500   0.2277692      0.003767165    0.003767165    0              0              1720.9881      3342.8278      98.973644      0              1940.0379      0              0              9.1940136      9.5832641      0.2            88.108661    
     47600   0.2053545      0.0039912911   0.0039912911   0              0              1596.5411      3103.2165      89.622321      0              1949.4672      0              0              9.1930488      9.5825175      0.2            88.09255     
     47700   0.23113889     0.0038520621   0.0038520621   0              0              1114.1142      2688.4204     -460.42964      0              1481.131       0              0              9.1920839      9.5850857      0.2            88.106912    
     47800   0.19341034     0.0039226817   0.0039226817   0              0              1669.9713      2698.4715      641.27532      0              1147.111       0              0              9.191119       9.5815342      0.2            88.06502     
     47900   0.16124113     0.0040019681   0.0040019681   0              0              375.08355      1667.34       -917.36393      0              2026.2644      0              0              9.1901541      9.5887079      0.2            88.121703    
     48000   0.21010475     0.004071421    0.004071421    0              0              2205.2912      3427.5536      982.81388      0              1042.463       0              0              9.1891892      9.5792446      0.2            88.025491    
     48100   0.20928872     0.004073841    0.004073841    0              0              1442.9046      3853.5608     -967.95124      0              1697.0143      0              0              9.1882243      9.5871337      0.2            88.088735    
     48200   0.2308797      0.0042877841   0.0042877841   0              0              1716.8278      2563.051       870.37709      0              1922.0787      0              0              9.1872595      9.5749318      0.2            87.967382    
     48300   0.20750955     0.0040908651   0.0040908651   0              0              1462.0855      3628.739      -704.77871      0              2355.7912      0              0              9.1862946      9.5858774      0.2            88.058694    
     48400   0.2108354      0.0039044343   0.0039044343   0              0              2436.7237      4528.0903      345.16738      0              1677.3158      0              0              9.1853297      9.5789913      0.2            87.986193    
     48500   0.19564042     0.0041155267   0.0041155267   0              0              1674.3769      3412.0603     -63.529309      0              2354.9976      0              0              9.1843648      9.585908       0.2            88.040476    
     48600   0.18969958     0.0040638101   0.0040638101   0              0              1299.8802      2949.3875     -349.87899      0              1991.6219      0              0              9.1833999      9.5849856      0.2            88.022756    
     48700   0.21597381     0.0038480819   0.0038480819   0              0              1839.5015      3046.3128      632.45131      0              1887.6205      0              0              9.182435       9.5852822      0.2            88.016231    
     48800   0.2284336      0.0040166095   0.0040166095   0              0              1213.4555      3473.9314     -1047.1864      0              1602.3685      0              0              9.1814701      9.5908191      0.2            88.057819    
     48900   0.16904234     0.0043950728   0.0043950728   0              0              2462.9685      3688.1594      1237.5372      0              1039.3119      0              0              9.1805053      9.5847509      0.2            87.992856    
     49000   0.207099       0.0044355178   0.0044355178   0              0              589.36746      2318.2117     -1139.6907      0              2142.2323      0              0              9.1795404      9.594652       0.2            88.074495    
     49100   0.20553745     0.0043753367   0.0043753367   0              0              2897.9453      4792.2858      1003.3829      0              2882.911       0              0              9.1785755      9.5867213      0.2            87.992445    
     49200   0.24708898     0.0040585791   0.0040585791   0              0              1478.702       3502.9786     -545.76412      0              2064.2707      0              0              9.1776106      9.5914477      0.2            88.026572    
     49300   0.21888516     0.004018537    0.004018537    0              0              1604.9898      3093.4271      116.32546      0              2301.4944      0              0              9.1766457      9.5865038      0.2            87.971949    
     49400   0.18611247     0.0040332716   0.0040332716   0              0              1396.2275      2541.4488      250.82099      0              2206.9784      0              0              9.1756808      9.5817887      0.2            87.919435    
     49500   0.21362969     0.0041282038   0.0041282038   0              0              846.43834      2176.0773     -483.39411      0              1650.5268      0              0              9.174716       9.5811074      0.2            87.903939    
     49600   0.21034752     0.004169572    0.004169572    0              0              1643.7458      2550.9373      736.30923      0              1204.4532      0              0              9.1737511      9.5803105      0.2            87.887383    
     49700   0.20456733     0.0037007365   0.0037007365   0              0              815.01836      2336.368      -706.56125      0              2348.0642      0              0              9.1727862      9.5838036      0.2            87.910182    
     49800   0.19114483     0.0041359409   0.0041359409   0              0              1917.9619      3243.9079      591.78965      0              2546.8613      0              0              9.1718213      9.578755       0.2            87.854629    
     49900   0.208661       0.0038357679   0.0038357679   0              0              1305.7792      3037.4625     -426.12173      0              1869.9996      0              0              9.1708564      9.585385       0.2            87.906189    
     50000   0.21235971     0.0041932934   0.0041932934   0              0              2202.8309      4112.4636      292.98448      0              2184.3531      0              0              9.1698915      9.5858021      0.2            87.900766    
     50100   0.18121094     0.0043737847   0.0043737847   0              0              1668.4071      3442.4588     -105.83437      0              1810.0997      0              0              9.1689267      9.5838737      0.2            87.873835    
     50200   0.14774336     0.0041682236   0.0041682236   0              0              1930.4333      3847.6824      12.988803      0              1639.0001      0              0              9.1679618      9.5820736      0.2            87.848085    
     50300   0.19605107     0.0039644396   0.0039644396   0              0              1367.6895      2586.6119      148.53525      0              2323.0577      0              0              9.1669969      9.5804628      0.2            87.824073    
     50362   0.19393324     0.0040749981   0.0040749981   0              0              1188.9465      2944.7704     -567.10502      0              1623.4069      0              0              9.1663987      9.5812969      0.2            87.825987    
Loop time of 1.24643 on 1 procs for 50000 steps with 70 atoms

Performance: 34658.894 ns/day, 0.001 hours/ns, 40114.461 timesteps/s
99.4% CPU use with 1 MPI tasks x 1 OpenMP threads

MPI task timing breakdown:
Section |  min time  |  avg time  |  max time  |%varavg| %total
---------------------------------------------------------------
Pair    | 0          | 0          | 0          |   0.0 |  0.00
Bond    | 0.19326    | 0.19326    | 0.19326    |   0.0 | 15.51
Neigh   | 0          | 0          | 0          |   0.0 |  0.00
Comm    | 0.41788    | 0.41788    | 0.41788    |   0.0 | 33.53
Output  | 0.0073347  | 0.0073347  | 0.0073347  |   0.0 |  0.59
Modify  | 0.59794    | 0.59794    | 0.59794    |   0.0 | 47.97
Other   |            | 0.03003    |            |       |  2.41

Nlocal:             70 ave          70 max          70 min
Histogram: 1 0 0 0 0 0 0 0 0 0
Nghost:            587 ave         587 max         587 min
Histogram: 1 0 0 0 0 0 0 0 0 0
Neighs:              0 ave           0 max           0 min
Histogram: 1 0 0 0 0 0 0 0 0 0

Total # of neighbors = 0
Ave neighs/atom = 0
Ave special neighs/atom = 24.914286
Neighbor list builds = 0
Dangerous builds = 0


Total wall time: 0:00:01
