LAMMPS data file via write_data, version 23 Jun 2022, timestep = 10000

80 atoms
4 atom types

-4.806913185981779 4.806913185981779 xlo xhi
-4.806913185981779 4.806913185981779 ylo yhi
-0.1 0.1 zlo zhi

Atoms # sphere

19 1 1.6 0.2441406249999999 -3.6685728981240056 -4.308977805812844 0 1 1 0
2 1 1.6 0.2441406249999999 -2.3168726366549546 -3.976362851350097 0 1 0 0
54 3 1 1 -1.601481761291876 4.532443144934689 0 1 -1 0
53 3 1 1 -0.6531697818060307 -4.642420085982497 0 0 0 0
70 4 0.7 2.915451895043732 -0.39210235362039825 -4.003101248028508 0 0 0 0
24 2 1.3 0.4551661356395083 1.6745066966682298 -4.207755020268262 0 0 1 0
26 2 1.3 0.4551661356395083 2.8072066281693653 -3.645215206838713 0 -1 1 0
73 4 0.7 2.915451895043732 2.4680296342167996 -4.747695168293619 0 0 1 0
69 4 0.7 2.915451895043732 3.6564479228494076 -4.117264128729899 0 0 0 0
60 3 1 1 4.71114390944571 -4.262530829432363 0 0 0 0
22 2 1.3 0.4551661356395083 -4.383553669435503 -3.3854562741366983 0 0 0 0
41 3 1 1 -3.2633294406268796 -3.1210951583482656 0 0 0 0
15 1 1.6 0.2441406249999999 -1.0075238313886672 -3.2442579558012117 0 0 0 0
9 1 1.6 0.2441406249999999 0.45625003642260964 -3.5427487413246537 0 0 0 0
21 2 1.3 0.4551661356395083 1.881637102041732 -2.828158016573335 0 0 0 0
11 1 1.6 0.2441406249999999 3.9289960955784355 -3.0413854128946953 0 0 1 0
17 1 1.6 0.2441406249999999 -3.9512167778402056 -2.0827102839545173 0 1 1 0
68 4 0.7 2.915451895043732 -3.072445648683737 -1.6680680740990748 0 1 0 0
18 1 1.6 0.2441406249999999 -2.163699238759148 -2.2767292704282167 0 1 0 0
64 4 0.7 2.915451895043732 -1.2284049604894869 -2.0543972141844584 0 0 0 0
27 2 1.3 0.4551661356395083 -0.19692287386197282 -2.2397435615923 0 0 0 0
48 3 1 1 0.8552162939311181 -2.50073446834145 0 0 0 0
72 4 0.7 2.915451895043732 0.4153004453856406 -1.5703014764283036 0 0 0 0
55 3 1 1 2.791944726648312 -2.457628265660645 0 -1 0 0
35 2 1.3 0.4551661356395083 4.388783861840176 -1.7996783453492537 0 0 0 0
58 3 1 1 -4.5471437611335235 -1.0358896362075014 0 0 0 0
38 2 1.3 0.4551661356395083 -3.3988386684530187 -0.8543625915917468 0 0 0 0
34 2 1.3 0.4551661356395083 -2.2996754276841296 -0.9579837181360658 0 0 1 0
45 3 1 1 -1.1006391717078117 -1.437664403085519 0 0 0 0
23 2 1.3 0.4551661356395083 -1.2268845392477448 -0.36250600535069566 0 0 0 0
46 3 1 1 -0.22821129889482172 -1.2866279962003944 0 0 1 0
51 3 1 1 0.7203909239393207 -0.6788043896278388 0 0 0 0
1 1 1.6 0.2441406249999999 1.5184737726286164 -1.4178756701127915 0 0 0 0
74 4 0.7 2.915451895043732 2.6134296251545255 -1.6727386976551477 0 0 0 0
56 3 1 1 3.352284679420645 -1.7102676751928674 0 0 0 0
12 1 1.6 0.2441406249999999 -4.300489627599589 0.06348799326487153 0 0 0 0
43 3 1 1 -3.037071325588042 0.2357761191863732 0 0 0 0
78 4 0.7 2.915451895043732 -2.454591835092203 -0.11707286719951426 0 1 0 0
37 2 1.3 0.4551661356395083 -1.1661493518819892 0.8213505298208563 0 0 0 0
63 4 0.7 2.915451895043732 -0.1008632690687401 -0.5444572973168675 0 0 0 0
6 1 1.6 0.2441406249999999 0.13269049480808093 0.3733285628590499 0 0 0 0
5 1 1.6 0.2441406249999999 1.5797142674062554 0.05271353076561702 0 0 0 0
7 1 1.6 0.2441406249999999 2.8440655408868487 -0.5993021183495975 0 0 0 0
57 3 1 1 4.197427496714852 -0.5328368844601679 0 0 0 0
50 3 1 1 -3.49713709099497 1.0508650903291752 0 0 0 0
67 4 0.7 2.915451895043732 -2.841274239610197 1.2011204703154954 0 0 0 0
80 4 0.7 2.915451895043732 -2.5922990745216334 0.7956346113378752 0 0 -1 0
77 4 0.7 2.915451895043732 -2.071011615720009 0.44460469844172845 0 0 0 0
4 1 1.6 0.2441406249999999 1.0835523199906838 1.444814465179304 0 0 0 0
40 2 1.3 0.4551661356395083 2.3166356614755355 1.012037954629288 0 0 0 0
14 1 1.6 0.2441406249999999 3.752771263468418 0.7352999124844075 0 0 0 0
25 2 1.3 0.4551661356395083 -4.576909423901311 1.3701066756380387 0 0 0 0
28 2 1.3 0.4551661356395083 -3.334987360560736 1.9641677820240702 0 0 0 0
13 1 1.6 0.2441406249999999 -1.9784162901311206 1.8947719636051001 0 0 -1 0
20 1 1.6 0.2441406249999999 -0.4179143819289779 2.0722227204878267 0 0 0 0
31 2 1.3 0.4551661356395083 0.7825836591638469 2.831147046220834 0 0 0 0
79 4 0.7 2.915451895043732 1.8147423707434696 2.2889546048719724 0 0 0 0
71 4 0.7 2.915451895043732 2.125074089566242 1.759321297888894 0 -1 0 0
76 4 0.7 2.915451895043732 2.4884827642208203 2.3230483033505793 0 0 0 0
52 3 1 1 2.9308272304272993 1.9316528799750126 0 0 0 0
10 1 1.6 0.2441406249999999 4.132215093590387 2.181539740765719 0 -1 0 0
33 2 1.3 0.4551661356395083 -4.117006816869269 2.6545791804211936 0 0 0 0
16 1 1.6 0.2441406249999999 -2.837959998644296 3.209733479551783 0 1 0 0
36 2 1.3 0.4551661356395083 -1.3985217821417777 3.050308460573296 0 0 0 0
42 3 1 1 -0.3253992466625286 3.2842177971714968 0 0 0 0
65 4 0.7 2.915451895043732 0.28485172653858726 3.8255798219731343 0 0 0 0
61 4 0.7 2.915451895043732 0.9602453573862899 3.826971183164698 0 0 0 0
39 2 1.3 0.4551661356395083 1.814539451183216 3.2457921431491883 0 0 0 0
3 1 1.6 0.2441406249999999 3.1918874930566066 3.225380655622832 0 0 0 0
29 2 1.3 0.4551661356395083 4.513817300093455 3.3611333508083625 0 0 -1 0
32 2 1.3 0.4551661356395083 -3.951957889441661 3.9200953670277414 0 0 -1 0
75 4 0.7 2.915451895043732 -3.137736199754177 4.232937955712682 0 0 -1 0
44 3 1 1 -2.54388713811823 4.392962041400834 0 0 0 0
62 4 0.7 2.915451895043732 -2.0378002666803727 3.8000610963754777 0 1 -1 0
59 3 1 1 -0.7361879454555362 4.095642580725707 0 0 -1 0
30 2 1.3 0.4551661356395083 0.41640431775900666 -4.791961931968135 0 -1 1 0
47 3 1 1 1.8263194603226678 4.382374803299472 0 0 0 0
66 4 0.7 2.915451895043732 2.6174941893411603 4.155602613108215 0 0 0 0
8 1 1.6 0.2441406249999999 3.6328665905294475 4.610629817081307 0 0 0 0
49 3 1 1 -4.752890869479216 4.372592304907233 0 1 0 0

Velocities

19 0.11386074583346054 -0.08202826014110633 0 0 0 0
2 0.012263738494546643 -0.1970540461149487 0 0 0 0
54 0.08156372459938599 -0.11116010046043084 0 0 0 0
53 0.007477002525693459 0.1250737166966123 0 0 0 0
70 0.13694777720464218 -0.00585495166887452 0 0 0 0
24 -0.0984646972057089 -0.011803089934613804 0 0 0 0
26 0.14730166446264406 -0.09765510816362992 0 0 0 0
73 -0.05623744429127399 0.17673430306502536 0 0 0 0
69 0.08785884560873525 0.0915487855469698 0 0 0 0
60 -0.10956455357624724 0.0560160427712585 0 0 0 0
22 -0.05584493809494526 0.14648015638660034 0 0 0 0
41 -0.18604485958238348 -0.06551087222625263 0 0 0 0
15 0.034776511710674744 -0.0860717510424921 0 0 0 0
9 -0.29980683170083855 0.00810855829088984 0 0 0 0
21 -0.011531902067927632 0.15657678579885398 0 0 0 0
11 -0.04503697866916341 0.02823447651458021 0 0 0 0
17 0.10357080130005396 0.01706333553782106 0 0 0 0
68 -0.004662685136928374 0.027959573879734242 0 0 0 0
18 -0.08885790759176819 0.17330806415280264 0 0 0 0
64 -0.08482955833310163 0.1884843731708733 0 0 0 0
27 0.022717937111928616 0.014094619945059525 0 0 0 0
48 0.05295999878316905 0.03891479471148896 0 0 0 0
72 -0.14676746640571667 0.09397716972912798 0 0 0 0
55 -0.01126036318383449 -0.00021041867338218514 0 0 0 0
35 0.13328097371732509 -0.1366924996081434 0 0 0 0
58 0.0005095690057809735 -0.05016894666483856 0 0 0 0
38 -0.004465379151945744 -0.15153222702310618 0 0 0 0
34 -0.09117276916343936 0.06034661892235919 0 0 0 0
45 -0.02768317466901359 -0.049021192991753684 0 0 0 0
23 0.06252775536967012 -0.20023537405298494 0 0 0 0
46 0.1819363438012277 0.13657612953399298 0 0 0 0
51 0.07926222656809861 -0.33904680833829554 0 0 0 0
1 0.029442922245411087 0.04536488508414808 0 0 0 0
74 -0.22903136651203274 -0.1856403708971138 0 0 0 0
56 0.07446404502133844 -0.0075017687452281325 0 0 0 0
12 0.04218479573400089 0.1742280671165967 0 0 0 0
43 -0.04111222777648203 0.10735910653893284 0 0 0 0
78 0.12390941851419099 0.1700630838094365 0 0 0 0
37 -0.15858424493616202 0.0847282313713828 0 0 0 0
63 -0.18343219701796393 -0.15307584424244233 0 0 0 0
6 0.03978447362619895 -0.0636275335830143 0 0 0 0
5 -0.04888579255368441 0.07496462845219921 0 0 0 0
7 0.005680702717977487 0.10788498687492509 0 0 0 0
57 0.019049157280804172 0.08773270694121449 0 0 0 0
50 -0.037395394547877304 0.011831663919419932 0 0 0 0
67 0.012807339368721148 -0.08326897173861504 0 0 0 0
80 0.05135594987122758 -0.05211462682649779 0 0 0 0
77 -0.08453250121919484 -0.12829429533449127 0 0 0 0
4 -0.11315847086671035 0.090606819527039 0 0 0 0
40 0.13287451814798848 -0.04313522732454601 0 0 0 0
14 0.055567663188632065 0.0282413135625948 0 0 0 0
25 0.056625274678913595 0.06113976705963704 0 0 0 0
28 0.046465771720447996 0.013172086357060858 0 0 0 0
13 0.011727835815590728 0.037315923388034605 0 0 0 0
20 0.04366645848541564 -0.04353338133192288 0 0 0 0
31 0.22989792563542538 0.0802701139517301 0 0 0 0
79 -0.05452546952745819 0.0696231131982285 0 0 0 0
71 0.028227698533623086 0.06320351665334326 0 0 0 0
76 0.0006605206885421712 -0.1475282757459967 0 0 0 0
52 -0.0038354429079889034 -0.10512530514425218 0 0 0 0
10 -0.1578806186379304 0.03034821863174702 0 0 0 0
33 0.08538195160974457 0.015400659178783178 0 0 0 0
16 -0.03135130059269282 -0.037845786749561953 0 0 0 0
36 -0.03342222394850823 -0.01120801203265842 0 0 0 0
42 0.1696727977656834 -0.22131439028356467 0 0 0 0
65 0.03271705722973153 -0.01483165301510131 0 0 0 0
61 0.024821680874607423 0.08787124907736309 0 0 0 0
39 0.0756384787075397 0.06118977758521563 0 0 0 0
3 -0.013015753683280134 -0.005926307723347613 0 0 0 0
29 0.07846523016960613 0.018091967690174047 0 0 0 0
32 -0.1895969629319317 0.009299798518766042 0 0 0 0
75 -0.06975819985992762 -0.023283654427075605 0 0 0 0
44 0.06456542784937344 -0.19516062848410634 0 0 0 0
62 -0.09804903116486545 0.006423935143205228 0 0 0 0
59 0.09113162591074876 -0.0765619571501277 0 0 0 0
30 0.15690041811431768 0.04522770595401523 0 0 0 0
47 0.04283818950844595 0.18091886596757084 0 0 0 0
66 -0.01404226796775693 0.0634561628883142 0 0 0 0
8 -0.11544643627645534 -0.07843875308057272 0 0 0 0
49 -0.08605353335814743 -0.1039934681300391 0 0 0 0
