LAMMPS data file.

     64 atoms
    140 bonds
      0 angles
      0 dihedrals
      0 impropers
      1 atom types
    140 bond types
      0 angle types
      0 dihedral types
      0 improper types
  -4.806913   4.806913 xlo xhi
  -4.806913   4.806913 ylo yhi
  -0.100000   0.100000 zlo zhi

Masses # ['atom_id', 'mass']

1 10000.0

Atoms # ['atomID', 'moleculeID', 'atomType', 'charge', 'x', 'y', 'z']

     19      1      1   0.000000  -3.668573  -4.308978   0.000000
      2      1      1   0.000000  -2.316873  -3.976363   0.000000
     24      1      1   0.000000   1.674507  -4.207755   0.000000
     26      1      1   0.000000   2.807207  -3.645215   0.000000
     69      1      1   0.000000   3.656448  -4.117264   0.000000
     22      1      1   0.000000  -4.383554  -3.385456   0.000000
     41      1      1   0.000000  -3.263329  -3.121095   0.000000
     15      1      1   0.000000  -1.007524  -3.244258   0.000000
      9      1      1   0.000000   0.456250  -3.542749   0.000000
     21      1      1   0.000000   1.881637  -2.828158   0.000000
     11      1      1   0.000000   3.928996  -3.041385   0.000000
     17      1      1   0.000000  -3.951217  -2.082710   0.000000
     68      1      1   0.000000  -3.072446  -1.668068   0.000000
     18      1      1   0.000000  -2.163699  -2.276729   0.000000
     27      1      1   0.000000  -0.196923  -2.239744   0.000000
     48      1      1   0.000000   0.855216  -2.500734   0.000000
     72      1      1   0.000000   0.415300  -1.570301   0.000000
     55      1      1   0.000000   2.791945  -2.457628   0.000000
     35      1      1   0.000000   4.388784  -1.799678   0.000000
     58      1      1   0.000000  -4.547144  -1.035890   0.000000
     38      1      1   0.000000  -3.398839  -0.854363   0.000000
     34      1      1   0.000000  -2.299675  -0.957984   0.000000
     46      1      1   0.000000  -0.228211  -1.286628   0.000000
     51      1      1   0.000000   0.720391  -0.678804   0.000000
      1      1      1   0.000000   1.518474  -1.417876   0.000000
     74      1      1   0.000000   2.613430  -1.672739   0.000000
     56      1      1   0.000000   3.352285  -1.710268   0.000000
     12      1      1   0.000000  -4.300490   0.063488   0.000000
     43      1      1   0.000000  -3.037071   0.235776   0.000000
     78      1      1   0.000000  -2.454592  -0.117073   0.000000
     37      1      1   0.000000  -1.166149   0.821351   0.000000
     63      1      1   0.000000  -0.100863  -0.544457   0.000000
      6      1      1   0.000000   0.132690   0.373329   0.000000
      5      1      1   0.000000   1.579714   0.052714   0.000000
      7      1      1   0.000000   2.844066  -0.599302   0.000000
     50      1      1   0.000000  -3.497137   1.050865   0.000000
     67      1      1   0.000000  -2.841274   1.201120   0.000000
     80      1      1   0.000000  -2.592299   0.795635   0.000000
     77      1      1   0.000000  -2.071012   0.444605   0.000000
      4      1      1   0.000000   1.083552   1.444814   0.000000
     40      1      1   0.000000   2.316636   1.012038   0.000000
     25      1      1   0.000000  -4.576909   1.370107   0.000000
     28      1      1   0.000000  -3.334987   1.964168   0.000000
     13      1      1   0.000000  -1.978416   1.894772   0.000000
     20      1      1   0.000000  -0.417914   2.072223   0.000000
     31      1      1   0.000000   0.782584   2.831147   0.000000
     79      1      1   0.000000   1.814742   2.288955   0.000000
     71      1      1   0.000000   2.125074   1.759321   0.000000
     76      1      1   0.000000   2.488483   2.323048   0.000000
     52      1      1   0.000000   2.930827   1.931653   0.000000
     10      1      1   0.000000   4.132215   2.181540   0.000000
     33      1      1   0.000000  -4.117007   2.654579   0.000000
     16      1      1   0.000000  -2.837960   3.209733   0.000000
     36      1      1   0.000000  -1.398522   3.050308   0.000000
     39      1      1   0.000000   1.814539   3.245792   0.000000
      3      1      1   0.000000   3.191887   3.225381   0.000000
     29      1      1   0.000000   4.513817   3.361133   0.000000
     32      1      1   0.000000  -3.951958   3.920095   0.000000
     75      1      1   0.000000  -3.137736   4.232938   0.000000
     44      1      1   0.000000  -2.543887   4.392962   0.000000
     62      1      1   0.000000  -2.037800   3.800061   0.000000
     47      1      1   0.000000   1.826319   4.382375   0.000000
     66      1      1   0.000000   2.617494   4.155603   0.000000
      8      1      1   0.000000   3.632867   4.610630   0.000000

Bond Coeffs # ['bondID', 'bondCoeff', 'd']

      1   1.645669   0.779523
      2   0.791212   1.124226
      3   1.763560   0.753017
      4   0.683360   1.209693
      5   0.644566   1.245565
      6   0.600196   1.290784
      7   2.531885   0.628461
      8   0.613324   1.276895
      9   0.613324   1.276895
     10   0.494142   1.422571
     11   0.803234   1.115781
     12   1.162231   0.927585
     13   0.774018   1.136644
     14   0.527008   1.377499
     15   0.560645   1.335537
     16   0.664109   1.227101
     17   1.444027   0.832170
     18   0.820414   1.104037
     19   0.604075   1.286633
     20   2.208809   0.672854
     21   1.011386   0.994355
     22   0.457850   1.477877
     23   1.030072   0.985295
     24   0.835919   1.093750
     25   1.035248   0.982829
     26   0.918930   1.043179
     27   1.059276   0.971618
     28   1.114979   0.947037
     29   0.844821   1.087972
     30   0.514362   1.394330
     31   0.850982   1.084026
     32   0.551966   1.345996
     33   0.551966   1.345996
     34   0.487277   1.432557
     35   1.215111   0.907177
     36   0.473176   1.453746
     37   1.092254   0.956838
     38   0.677090   1.215281
     39   0.677090   1.215281
     40   2.866488   0.590643
     41   0.682355   1.210583
     42   2.222943   0.670712
     43   0.807734   1.112668
     44   0.585552   1.306824
     45   2.197375   0.674602
     46   0.815876   1.107103
     47   0.682355   1.210583
     48   0.829560   1.097934
     49   0.614529   1.275642
     50   0.817713   1.105858
     51   0.625211   1.264698
     52   0.612123   1.278146
     53   0.568964   1.325737
     54   0.689198   1.204559
     55   1.099616   0.953629
     56   0.405196   1.570968
     57   0.448083   1.493898
     58   0.495746   1.420268
     59   0.879652   1.066214
     60   0.566275   1.328882
     61   1.040893   0.980160
     62   0.763953   1.144107
     63   0.572867   1.321214
     64   0.598250   1.292881
     65   0.521310   1.385006
     66   1.314358   0.872254
     67   0.615041   1.275111
     68   0.757990   1.148598
     69   1.472892   0.823976
     70   1.827101   0.739808
     71   0.672717   1.219225
     72   0.688527   1.205145
     73   0.541976   1.358345
     74   0.788753   1.125977
     75   0.620157   1.269840
     76   2.161622   0.680158
     77   2.643653   0.615032
     78   0.617174   1.272906
     79   0.479407   1.444269
     80   1.543402   0.804934
     81   0.479407   1.444269
     82   0.461599   1.471864
     83   0.516069   1.392022
     84   0.411988   1.557965
     85   1.273184   0.886246
     86   1.273184   0.886246
     87   0.444371   1.500124
     88   0.455234   1.482117
     89   0.570372   1.324100
     90   1.141513   0.935965
     91   0.405407   1.570559
     92   0.733090   1.167942
     93   0.923937   1.040348
     94   1.146094   0.934092
     95   0.519108   1.387942
     96   0.933705   1.034892
     97   0.808497   1.112144
     98   1.955937   0.715027
     99   0.933705   1.034892
    100   0.624875   1.265037
    101   0.624875   1.265037
    102   0.496894   1.418626
    103   0.670003   1.221692
    104   1.367746   0.855061
    105   0.616135   1.273979
    106   0.634805   1.255105
    107   0.551280   1.346833
    108   1.680310   0.771446
    109   0.656055   1.234610
    110   0.551873   1.346110
    111   1.476270   0.823033
    112   2.021926   0.703262
    113   0.785204   1.128519
    114   0.587289   1.304890
    115   0.476781   1.448240
    116   2.653807   0.613854
    117   0.500538   1.413453
    118   0.861515   1.077379
    119   0.500538   1.413453
    120   0.650592   1.239783
    121   0.556028   1.341071
    122   0.836652   1.093271
    123   0.845192   1.087733
    124   0.801789   1.116786
    125   1.300984   0.876726
    126   0.613959   1.276234
    127   0.806305   1.113654
    128   0.587289   1.304890
    129   2.156173   0.681017
    130   1.210663   0.908842
    131   0.811822   1.109864
    132   1.059135   0.971682
    133   0.439976   1.507599
    134   0.958846   1.021235
    135   0.958846   1.021235
    136   0.529743   1.373939
    137   0.787731   1.126707
    138   0.530768   1.372611
    139   4.416816   0.475823
    140   0.506632   1.404927

Bonds # ['ID', 'type', 'atom1', 'atom2']

         1         1        44        62
         2         2         1        74
         3         3        46        63
         4         4         5        40
         5         5        41        17
         6         6        15        27
         7         7        80        77
         8         8        29        32
         9         9        32        29
        10        10         5         7
        11        11         9        48
        12        12        50        28
        13        13        39        47
        14        14        39         3
        15        15        12        25
        16        16        52        10
        17        17        51        63
        18        18        38        34
        19        19        38        12
        20        20        50        67
        21        21        16        62
        22        22         5         4
        23        23        36        62
        24        24        68        18
        25        25        21        55
        26        26        28        33
        27        27        26        69
        28        28        63         6
        29        29         4        71
        30        30        33        16
        31        31        27        48
        32        32        22        11
        33        33        11        22
        34        34         6         4
        35        35        27        72
        36        36         3         8
        37        37        79        39
        38        38        25        10
        39        39        10        25
        40        40        76        52
        41        41        33        29
        42        42        71        76
        43        43        66         8
        44        44         4        40
        45        45        79        76
        46        46        67        13
        47        47        29        33
        48        48        74         7
        49        49         2        41
        50        50        40        52
        51        51        24        26
        52        52        11        55
        53        53        18        34
        54        54        17        58
        55        55        27        46
        56        56        13        16
        57        57        15         9
        58        58        20        31
        59        59        16        75
        60        60         3        29
        61        61        37        77
        62        62        76         3
        63        63        16        32
        64        64        13        36
        65        65        20        36
        66        66        32        75
        67        67        12        43
        68        68        38        43
        69        69        71        52
        70        70        74        56
        71        71        16        44
        72        72        51         6
        73        73        28        13
        74        74        50        25
        75        75        48         1
        76        76        78        77
        77        77        75        44
        78        78        12        50
        79        79        33        10
        80        80        55        74
        81        81        10        33
        82        82         1         5
        83        83        19         2
        84        84         1         7
        85        85        69         8
        86        86         8        69
        87        87         2        15
        88        88         6         5
        89        89        11        35
        90        90        43        50
        91        91        13        20
        92        92        19        22
        93        93        35        56
        94        94        55        56
        95        95        24         9
        96        96        24        47
        97        97        31        39
        98        98        43        80
        99        99        47        24
       100       100         2        44
       101       101        44         2
       102       102         4        31
       103       103        56         7
       104       104        34        78
       105       105        26        11
       106       106        19        41
       107       107        17        38
       108       108        40        71
       109       109        26        21
       110       110        37        13
       111       111        47        66
       112       112        72        46
       113       113        51         5
       114       114        17        35
       115       115        16        36
       116       116        79        71
       117       117        19        32
       118       118        21        48
       119       119        32        19
       120       120        10        29
       121       121        28        16
       122       122         3        66
       123       123        51         1
       124       124         4        79
       125       125        68        38
       126       126        33        32
       127       127        72         1
       128       128        35        17
       129       129        43        78
       130       130        67        28
       131       131        69        11
       132       132        17        68
       133       133        15        18
       134       134        35        58
       135       135        58        35
       136       136        37         6
       137       137        58        12
       138       138        22        17
       139       139        67        80
       140       140        10         3
