ITEM: TIMESTEP
0
ITEM: NUMBER OF ATOMS
80
ITEM: BOX BOUNDS pp pp pp
-1.0000000000000000e+01 1.0000000000000000e+01
-1.0000000000000000e+01 1.0000000000000000e+01
-1.0000000000000001e-01 1.0000000000000001e-01
ITEM: ATOMS id type xs ys zs
59 3 0.203725 0.0102466 0.5
32 2 0.290891 0.00929017 0.5
50 3 0.315228 0.0380676 0.5
1 1 0.361636 0.0228718 0.5
13 1 0.319095 0.0285432 0.5
64 4 0.852383 0.00204771 0.5
55 3 0.446189 0.10408 0.5
21 2 0.665561 0.0802867 0.5
52 3 0.830671 0.0815448 0.5
69 4 0.986559 0.102793 0.5
70 4 0.711081 0.134914 0.5
29 2 0.907903 0.1243 0.5
41 3 0.212661 0.198907 0.5
80 4 0.247169 0.167219 0.5
60 3 0.870839 0.193416 0.5
18 1 0.948603 0.167843 0.5
75 4 0.61708 0.25604 0.5
51 3 0.671757 0.223998 0.5
57 3 0.709718 0.232844 0.5
72 4 0.901902 0.259337 0.5
54 3 0.996919 0.222846 0.5
37 2 0.199636 0.280723 0.5
9 1 0.463216 0.276469 0.5
63 4 0.624756 0.272164 0.5
22 2 0.0862348 0.348269 0.5
45 3 0.274014 0.349721 0.5
35 2 0.956587 0.358715 0.5
78 4 0.9952 0.331953 0.5
42 3 0.207793 0.375687 0.5
48 3 0.32114 0.393418 0.5
15 1 0.453347 0.40933 0.5
68 4 0.555089 0.38461 0.5
43 3 0.618044 0.472652 0.5
74 4 0.643806 0.440251 0.5
53 3 0.123075 0.51406 0.5
38 2 0.364045 0.510042 0.5
7 1 0.860028 0.488045 0.5
56 3 0.923274 0.474127 0.5
12 1 0.0171683 0.547888 0.5
23 2 0.153301 0.532266 0.5
67 4 0.246657 0.563065 0.5
20 1 0.523569 0.620422 0.5
5 1 0.577712 0.607246 0.5
27 2 0.700993 0.587017 0.5
39 2 0.722769 0.583701 0.5
30 2 0.0375234 0.655628 0.5
77 4 0.329901 0.646783 0.5
40 2 0.733782 0.679338 0.5
2 1 0.915728 0.646138 0.5
10 1 0.13695 0.721378 0.5
25 2 0.210014 0.703462 0.5
65 4 0.505723 0.689111 0.5
4 1 0.53369 0.726495 0.5
3 1 0.764009 0.693897 0.5
26 2 0.13499 0.77306 0.5
61 4 0.439444 0.739505 0.5
31 2 0.727895 0.738706 0.5
62 4 0.85594 0.787072 0.5
16 1 0.969702 0.774975 0.5
76 4 0.992668 0.765966 0.5
58 3 0.0054025 0.799799 0.5
8 1 0.683334 0.799856 0.5
14 1 0.735872 0.806845 0.5
11 1 0.85856 0.822553 0.5
49 3 0.945546 0.798959 0.5
33 2 0.0115945 0.868346 0.5
34 2 0.114647 0.867655 0.5
44 3 0.489311 0.854518 0.5
66 4 0.706839 0.848265 0.5
46 3 0.754321 0.877601 0.5
79 4 0.755807 0.856437 0.5
17 1 0.80781 0.864612 0.5
71 4 0.191582 0.921342 0.5
28 2 0.330095 0.900596 0.5
6 1 0.406374 0.933081 0.5
47 3 0.410718 0.939918 0.5
36 2 0.52692 0.942614 0.5
73 4 0.564347 0.97402 0.5
24 2 0.604032 0.966542 0.5
19 1 0.961801 0.991206 0.5
ITEM: TIMESTEP
10
ITEM: NUMBER OF ATOMS
80
ITEM: BOX BOUNDS pp pp pp
-9.2587824906439895e+00 9.2587824906439895e+00
-9.2587824906439895e+00 9.2587824906439895e+00
-1.0000000000000001e-01 1.0000000000000001e-01
ITEM: ATOMS id type xs ys zs
59 3 0.203725 0.0102466 0.5
32 2 0.29072 0.00915175 0.5
50 3 0.315142 0.0383308 0.5
1 1 0.361837 0.0228352 0.5
13 1 0.319151 0.028455 0.5
64 4 0.852383 0.00204771 0.5
55 3 0.446189 0.10408 0.5
21 2 0.665561 0.0802867 0.5
52 3 0.830671 0.0815448 0.5
69 4 0.986559 0.102793 0.5
70 4 0.711081 0.134914 0.5
29 2 0.907868 0.124263 0.5
41 3 0.212661 0.198907 0.5
80 4 0.247169 0.167219 0.5
60 3 0.870839 0.193416 0.5
18 1 0.948637 0.16788 0.5
75 4 0.617052 0.255982 0.5
51 3 0.671716 0.223988 0.5
57 3 0.70976 0.232854 0.5
72 4 0.901902 0.259337 0.5
54 3 0.996919 0.222846 0.5
37 2 0.199636 0.280723 0.5
9 1 0.463216 0.276469 0.5
63 4 0.624783 0.272222 0.5
22 2 0.0862348 0.348269 0.5
45 3 0.274014 0.349721 0.5
35 2 0.956576 0.358723 0.5
78 4 0.995211 0.331945 0.5
42 3 0.207793 0.375687 0.5
48 3 0.32114 0.393418 0.5
15 1 0.453347 0.40933 0.5
68 4 0.555089 0.38461 0.5
43 3 0.618041 0.472657 0.5
74 4 0.643809 0.440246 0.5
53 3 0.123003 0.514017 0.5
38 2 0.364045 0.510042 0.5
7 1 0.860024 0.488046 0.5
56 3 0.923279 0.474126 0.5
12 1 0.0171683 0.547888 0.5
23 2 0.153373 0.532309 0.5
67 4 0.246657 0.563065 0.5
20 1 0.523479 0.620444 0.5
5 1 0.577802 0.607224 0.5
27 2 0.700836 0.587041 0.5
39 2 0.722927 0.583677 0.5
30 2 0.0375234 0.655628 0.5
77 4 0.329901 0.646783 0.5
40 2 0.733654 0.679252 0.5
2 1 0.915728 0.646138 0.5
10 1 0.136953 0.721299 0.5
25 2 0.210014 0.703462 0.5
65 4 0.505698 0.689077 0.5
4 1 0.533715 0.726529 0.5
3 1 0.764176 0.693915 0.5
26 2 0.134987 0.773139 0.5
61 4 0.439444 0.739505 0.5
31 2 0.727855 0.738756 0.5
62 4 0.855934 0.78699 0.5
16 1 0.969603 0.774892 0.5
76 4 0.992772 0.765898 0.5
58 3 0.00547806 0.799869 0.5
8 1 0.683226 0.799829 0.5
14 1 0.735985 0.806837 0.5
11 1 0.858609 0.8226 0.5
49 3 0.945464 0.799041 0.5
33 2 0.0115945 0.868346 0.5
34 2 0.114647 0.867655 0.5
44 3 0.489311 0.854518 0.5
66 4 0.70683 0.848303 0.5
46 3 0.754277 0.87769 0.5
79 4 0.755799 0.856371 0.5
17 1 0.807826 0.864641 0.5
71 4 0.191582 0.921342 0.5
28 2 0.330095 0.900596 0.5
6 1 0.406262 0.932904 0.5
47 3 0.410831 0.940095 0.5
36 2 0.526915 0.94261 0.5
73 4 0.564315 0.974032 0.5
24 2 0.604069 0.966535 0.5
19 1 0.961801 0.991206 0.5
ITEM: TIMESTEP
20
ITEM: NUMBER OF ATOMS
80
ITEM: BOX BOUNDS pp pp pp
-8.3368615350456547e+00 8.3368615350456547e+00
-8.3368615350456547e+00 8.3368615350456547e+00
-1.0000000000000001e-01 1.0000000000000001e-01
ITEM: ATOMS id type xs ys zs
59 3 0.203725 0.0102466 0.5
32 2 0.290065 0.00863972 0.5
50 3 0.314827 0.039275 0.5
1 1 0.362615 0.0227039 0.5
13 1 0.319343 0.0281541 0.5
64 4 0.852383 0.00204771 0.5
55 3 0.446189 0.10408 0.5
21 2 0.665561 0.0802867 0.5
52 3 0.830671 0.0815448 0.5
69 4 0.986559 0.102793 0.5
70 4 0.711081 0.134914 0.5
29 2 0.907728 0.124113 0.5
41 3 0.212659 0.198909 0.5
80 4 0.247172 0.167216 0.5
60 3 0.870839 0.193416 0.5
18 1 0.948776 0.168028 0.5
75 4 0.616952 0.255773 0.5
51 3 0.671553 0.22395 0.5
57 3 0.709923 0.232892 0.5
72 4 0.901902 0.259337 0.5
54 3 0.996921 0.222848 0.5
37 2 0.199636 0.280723 0.5
9 1 0.463216 0.276469 0.5
63 4 0.624883 0.272431 0.5
22 2 0.0862348 0.348269 0.5
45 3 0.274014 0.349721 0.5
35 2 0.956518 0.358763 0.5
78 4 0.995269 0.331905 0.5
42 3 0.207793 0.375687 0.5
48 3 0.32114 0.393418 0.5
15 1 0.453347 0.40933 0.5
68 4 0.555089 0.38461 0.5
43 3 0.618014 0.47269 0.5
74 4 0.643836 0.440213 0.5
53 3 0.122739 0.513857 0.5
38 2 0.364045 0.510042 0.5
7 1 0.859978 0.488056 0.5
56 3 0.923324 0.474116 0.5
12 1 0.0171683 0.547888 0.5
23 2 0.153637 0.532468 0.5
67 4 0.246657 0.563065 0.5
20 1 0.52314 0.620526 0.5
5 1 0.578141 0.607141 0.5
27 2 0.700276 0.587127 0.5
39 2 0.723486 0.583592 0.5
30 2 0.0375234 0.655628 0.5
77 4 0.329901 0.646783 0.5
40 2 0.733194 0.678919 0.5
2 1 0.915728 0.646138 0.5
10 1 0.136938 0.721004 0.5
25 2 0.21004 0.703455 0.5
65 4 0.505596 0.688941 0.5
4 1 0.533817 0.726665 0.5
3 1 0.764791 0.693962 0.5
26 2 0.134975 0.77344 0.5
61 4 0.439444 0.739505 0.5
31 2 0.727702 0.738926 0.5
62 4 0.855911 0.786685 0.5
16 1 0.969243 0.774579 0.5
76 4 0.993144 0.765641 0.5
58 3 0.00576496 0.800141 0.5
8 1 0.682797 0.799723 0.5
14 1 0.736411 0.806798 0.5
11 1 0.858806 0.822761 0.5
49 3 0.945167 0.799339 0.5
33 2 0.0115945 0.868346 0.5
34 2 0.114647 0.867655 0.5
44 3 0.489311 0.854518 0.5
66 4 0.706796 0.848478 0.5
46 3 0.754097 0.878018 0.5
79 4 0.755756 0.856152 0.5
17 1 0.80791 0.864762 0.5
71 4 0.191582 0.921342 0.5
28 2 0.330093 0.900595 0.5
6 1 0.405869 0.932284 0.5
47 3 0.411225 0.940716 0.5
36 2 0.526878 0.942579 0.5
73 4 0.564204 0.97409 0.5
24 2 0.604217 0.966507 0.5
19 1 0.961801 0.991206 0.5
ITEM: TIMESTEP
30
ITEM: NUMBER OF ATOMS
80
ITEM: BOX BOUNDS pp pp pp
-7.6475849278379124e+00 7.6475849278379124e+00
-7.6475849278379124e+00 7.6475849278379124e+00
-1.0000000000000001e-01 1.0000000000000001e-01
ITEM: ATOMS id type xs ys zs
59 3 0.203725 0.0102466 0.5
32 2 0.28872 0.00761702 0.5
50 3 0.314208 0.041111 0.5
1 1 0.364229 0.0224492 0.5
13 1 0.319694 0.0275969 0.5
64 4 0.852383 0.00204771 0.5
55 3 0.446189 0.10408 0.5
21 2 0.665561 0.0802867 0.5
52 3 0.830671 0.0815448 0.5
69 4 0.986559 0.102793 0.5
70 4 0.711081 0.134914 0.5
29 2 0.907422 0.123785 0.5
41 3 0.212633 0.198933 0.5
80 4 0.247197 0.167193 0.5
60 3 0.870839 0.193416 0.5
18 1 0.949056 0.168325 0.5
75 4 0.616756 0.255361 0.5
51 3 0.671206 0.223869 0.5
57 3 0.71027 0.232973 0.5
72 4 0.901902 0.259337 0.5
54 3 0.996948 0.222879 0.5
37 2 0.199636 0.280723 0.5
9 1 0.463216 0.276469 0.5
63 4 0.625079 0.272842 0.5
22 2 0.0862348 0.348269 0.5
45 3 0.274014 0.349721 0.5
35 2 0.95637 0.358866 0.5
78 4 0.995418 0.331802 0.5
42 3 0.207793 0.375687 0.5
48 3 0.32114 0.393418 0.5
15 1 0.453347 0.40933 0.5
68 4 0.555089 0.38461 0.5
43 3 0.617939 0.472785 0.5
74 4 0.643911 0.440118 0.5
53 3 0.122209 0.513538 0.5
38 2 0.364045 0.510042 0.5
7 1 0.859828 0.488089 0.5
56 3 0.923475 0.474083 0.5
12 1 0.0171683 0.547888 0.5
23 2 0.154167 0.532788 0.5
67 4 0.246657 0.563065 0.5
20 1 0.522446 0.620692 0.5
5 1 0.578836 0.606972 0.5
27 2 0.699198 0.587291 0.5
39 2 0.724564 0.583428 0.5
30 2 0.0375234 0.655628 0.5
77 4 0.329901 0.646783 0.5
40 2 0.7323 0.678218 0.5
2 1 0.915728 0.646138 0.5
10 1 0.136845 0.720411 0.5
25 2 0.210156 0.703427 0.5
65 4 0.505374 0.688649 0.5
4 1 0.534038 0.72696 0.5
3 1 0.766021 0.694021 0.5
26 2 0.134952 0.774061 0.5
61 4 0.439444 0.739505 0.5
31 2 0.727402 0.739224 0.5
62 4 0.855864 0.786073 0.5
16 1 0.968525 0.773938 0.5
76 4 0.993861 0.765117 0.5
58 3 0.00635433 0.800703 0.5
8 1 0.681871 0.799525 0.5
14 1 0.737255 0.806657 0.5
11 1 0.859236 0.823056 0.5
49 3 0.944577 0.799931 0.5
33 2 0.0115953 0.868356 0.5
34 2 0.114647 0.867655 0.5
44 3 0.489311 0.854518 0.5
66 4 0.706726 0.848894 0.5
46 3 0.753708 0.878703 0.5
79 4 0.755646 0.855763 0.5
17 1 0.808143 0.865049 0.5
71 4 0.191582 0.921342 0.5
28 2 0.330057 0.90058 0.5
6 1 0.405157 0.931119 0.5
47 3 0.411973 0.941894 0.5
36 2 0.526769 0.942488 0.5
73 4 0.563991 0.974242 0.5
24 2 0.604538 0.966447 0.5
19 1 0.961801 0.991206 0.5
ITEM: TIMESTEP
40
ITEM: NUMBER OF ATOMS
80
ITEM: BOX BOUNDS pp pp pp
-7.1541230607214938e+00 7.1541230607214938e+00
-7.1541230607214938e+00 7.1541230607214938e+00
-1.0000000000000001e-01 1.0000000000000001e-01
ITEM: ATOMS id type xs ys zs
59 3 0.203725 0.0102466 0.5
32 2 0.286516 0.00597343 0.5
50 3 0.31322 0.04401 0.5
1 1 0.366881 0.0220755 0.5
13 1 0.32022 0.0267467 0.5
64 4 0.852383 0.00204771 0.5
55 3 0.446189 0.10408 0.5
21 2 0.665561 0.0802867 0.5
52 3 0.830671 0.0815448 0.5
69 4 0.986562 0.102788 0.5
70 4 0.711081 0.134914 0.5
29 2 0.906894 0.123221 0.5
41 3 0.212557 0.199002 0.5
80 4 0.247273 0.167123 0.5
60 3 0.870818 0.193423 0.5
18 1 0.949511 0.168784 0.5
75 4 0.616444 0.254705 0.5
51 3 0.67062 0.223733 0.5
57 3 0.710855 0.233109 0.5
72 4 0.901902 0.259337 0.5
54 3 0.997038 0.222982 0.5
37 2 0.199636 0.280723 0.5
9 1 0.463216 0.276469 0.5
63 4 0.625391 0.273499 0.5
22 2 0.0862348 0.348269 0.5
45 3 0.274006 0.349714 0.5
35 2 0.956089 0.359061 0.5
78 4 0.995699 0.331607 0.5
42 3 0.207793 0.375687 0.5
48 3 0.321147 0.393426 0.5
15 1 0.453347 0.40933 0.5
68 4 0.555089 0.38461 0.5
43 3 0.617787 0.472976 0.5
74 4 0.644063 0.439928 0.5
53 3 0.121352 0.513022 0.5
38 2 0.364045 0.510042 0.5
7 1 0.85951 0.488159 0.5
56 3 0.923792 0.474013 0.5
12 1 0.0171683 0.547888 0.5
23 2 0.155024 0.533304 0.5
67 4 0.246657 0.563065 0.5
20 1 0.521312 0.620928 0.5
5 1 0.57998 0.606694 0.5
27 2 0.697507 0.587548 0.5
39 2 0.726255 0.58317 0.5
30 2 0.0375234 0.655628 0.5
77 4 0.329901 0.646783 0.5
40 2 0.730886 0.677046 0.5
2 1 0.915728 0.646138 0.5
10 1 0.136608 0.719448 0.5
25 2 0.210431 0.703363 0.5
65 4 0.504986 0.688183 0.5
4 1 0.534416 0.727468 0.5
3 1 0.768009 0.694072 0.5
26 2 0.134914 0.775088 0.5
61 4 0.439444 0.739505 0.5
31 2 0.726925 0.739637 0.5
62 4 0.855783 0.78508 0.5
16 1 0.967366 0.772874 0.5
76 4 0.994991 0.764265 0.5
58 3 0.00733879 0.801594 0.5
8 1 0.680283 0.79923 0.5
14 1 0.738577 0.806301 0.5
11 1 0.859981 0.823501 0.5
49 3 0.943618 0.800892 0.5
33 2 0.0116003 0.86842 0.5
34 2 0.114647 0.867655 0.5
44 3 0.489311 0.854518 0.5
66 4 0.706607 0.849646 0.5
46 3 0.75305 0.879875 0.5
79 4 0.755437 0.855198 0.5
17 1 0.808632 0.8656 0.5
71 4 0.191582 0.921342 0.5
28 2 0.329923 0.900526 0.5
6 1 0.404147 0.929316 0.5
47 3 0.413132 0.94372 0.5
36 2 0.526526 0.942296 0.5
73 4 0.563661 0.97453 0.5
24 2 0.605111 0.966351 0.5
19 1 0.961801 0.991206 0.5
ITEM: TIMESTEP
50
ITEM: NUMBER OF ATOMS
80
ITEM: BOX BOUNDS pp pp pp
-6.8135587257165326e+00 6.8135587257165326e+00
-6.8135587257165326e+00 6.8135587257165326e+00
-1.0000000000000001e-01 1.0000000000000001e-01
ITEM: ATOMS id type xs ys zs
59 3 0.203723 0.0102467 0.5
32 2 0.283391 0.00366943 0.5
50 3 0.311837 0.0480338 0.5
1 1 0.37064 0.021634 0.5
13 1 0.320919 0.0255901 0.5
64 4 0.852383 0.00204771 0.5
55 3 0.446189 0.10408 0.5
21 2 0.66556 0.0802857 0.5
52 3 0.830671 0.0815448 0.5
69 4 0.986581 0.102754 0.5
70 4 0.711082 0.134915 0.5
29 2 0.906116 0.122373 0.5
41 3 0.212407 0.19914 0.5
80 4 0.247424 0.166985 0.5
60 3 0.870732 0.193458 0.5
18 1 0.950165 0.169413 0.5
75 4 0.616007 0.253786 0.5
51 3 0.669763 0.223533 0.5
57 3 0.711713 0.233309 0.5
72 4 0.901902 0.259337 0.5
54 3 0.997229 0.223199 0.5
37 2 0.199636 0.280724 0.5
9 1 0.463216 0.276469 0.5
63 4 0.625829 0.274417 0.5
22 2 0.0862348 0.348269 0.5
45 3 0.273969 0.349678 0.5
35 2 0.955645 0.359368 0.5
78 4 0.996142 0.3313 0.5
42 3 0.207792 0.375688 0.5
48 3 0.321185 0.393461 0.5
15 1 0.453347 0.40933 0.5
68 4 0.555089 0.38461 0.5
43 3 0.617541 0.473286 0.5
74 4 0.644309 0.439617 0.5
53 3 0.120136 0.51229 0.5
38 2 0.364045 0.510042 0.5
7 1 0.858979 0.488276 0.5
56 3 0.924324 0.473896 0.5
12 1 0.0171683 0.547888 0.5
23 2 0.156239 0.534036 0.5
67 4 0.246657 0.563065 0.5
20 1 0.519694 0.621172 0.5
5 1 0.581623 0.606294 0.5
27 2 0.695169 0.587904 0.5
39 2 0.728593 0.582813 0.5
30 2 0.0375234 0.655628 0.5
77 4 0.329901 0.646783 0.5
40 2 0.728916 0.675348 0.5
2 1 0.915728 0.646138 0.5
10 1 0.136171 0.718079 0.5
25 2 0.210921 0.703251 0.5
65 4 0.504397 0.687558 0.5
4 1 0.53498 0.728249 0.5
3 1 0.77083 0.694098 0.5
26 2 0.134862 0.776569 0.5
61 4 0.439444 0.739505 0.5
31 2 0.726256 0.740131 0.5
62 4 0.85566 0.783667 0.5
16 1 0.96572 0.771317 0.5
76 4 0.996567 0.763062 0.5
58 3 0.00876939 0.80281 0.5
8 1 0.67793 0.798849 0.5
14 1 0.740397 0.805634 0.5
11 1 0.861073 0.824099 0.5
49 3 0.942277 0.802259 0.5
33 2 0.0116118 0.868589 0.5
34 2 0.114647 0.867655 0.5
44 3 0.489311 0.854518 0.5
66 4 0.706412 0.850775 0.5
46 3 0.752099 0.881624 0.5
79 4 0.755112 0.854475 0.5
17 1 0.809454 0.866494 0.5
71 4 0.191582 0.921342 0.5
28 2 0.329627 0.900408 0.5
6 1 0.402908 0.926819 0.5
47 3 0.414718 0.946213 0.5
36 2 0.526082 0.941965 0.5
73 4 0.563208 0.974989 0.5
24 2 0.606009 0.966223 0.5
19 1 0.961801 0.991206 0.5
ITEM: TIMESTEP
60
ITEM: NUMBER OF ATOMS
80
ITEM: BOX BOUNDS pp pp pp
-6.5724316141893802e+00 6.5724316141893802e+00
-6.5724316141893802e+00 6.5724316141893802e+00
-1.0000000000000001e-01 1.0000000000000001e-01
ITEM: ATOMS id type xs ys zs
59 3 0.203689 0.0102498 0.5
32 2 0.279392 0.000717604 0.5
50 3 0.310061 0.0531645 0.5
1 1 0.375466 0.0212148 0.5
13 1 0.321778 0.0241247 0.5
64 4 0.852383 0.00204771 0.5
55 3 0.446189 0.10408 0.5
21 2 0.665549 0.0802726 0.5
52 3 0.830669 0.0815439 0.5
69 4 0.98663 0.102665 0.5
70 4 0.711093 0.134928 0.5
29 2 0.905082 0.121201 0.5
41 3 0.212168 0.199348 0.5
80 4 0.247665 0.166763 0.5
60 3 0.87054 0.193553 0.5
18 1 0.951025 0.170215 0.5
75 4 0.615437 0.252605 0.5
51 3 0.668625 0.223263 0.5
57 3 0.712856 0.233576 0.5
72 4 0.901902 0.259337 0.5
54 3 0.997548 0.223564 0.5
37 2 0.199634 0.280737 0.5
9 1 0.463216 0.276469 0.5
63 4 0.626392 0.275601 0.5
22 2 0.0862348 0.348269 0.5
45 3 0.273898 0.349591 0.5
35 2 0.955022 0.3598 0.5
78 4 0.996766 0.330868 0.5
42 3 0.207776 0.375694 0.5
48 3 0.321273 0.393542 0.5
15 1 0.453347 0.40933 0.5
68 4 0.555089 0.38461 0.5
43 3 0.617187 0.473731 0.5
74 4 0.644663 0.439172 0.5
53 3 0.118555 0.511338 0.5
38 2 0.364045 0.510042 0.5
7 1 0.858202 0.488447 0.5
56 3 0.9251 0.473725 0.5
12 1 0.0171683 0.547888 0.5
23 2 0.15782 0.534988 0.5
67 4 0.246657 0.563065 0.5
20 1 0.517576 0.62135 0.5
5 1 0.583785 0.60577 0.5
27 2 0.692185 0.588345 0.5
39 2 0.731572 0.582338 0.5
30 2 0.0375234 0.655628 0.5
77 4 0.329901 0.646783 0.5
40 2 0.726392 0.673141 0.5
2 1 0.915728 0.646138 0.5
10 1 0.135492 0.716289 0.5
25 2 0.211664 0.703087 0.5
65 4 0.503587 0.6868 0.5
4 1 0.535746 0.729354 0.5
3 1 0.774507 0.694071 0.5
26 2 0.134801 0.778507 0.5
61 4 0.439444 0.739505 0.5
31 2 0.725387 0.740662 0.5
62 4 0.855484 0.78182 0.5
16 1 0.963576 0.769216 0.5
76 4 0.998602 0.761514 0.5
58 3 0.0106549 0.80432 0.5
8 1 0.674758 0.798402 0.5
14 1 0.742717 0.804603 0.5
11 1 0.862498 0.824853 0.5
49 3 0.940602 0.804048 0.5
33 2 0.0116299 0.868904 0.5
34 2 0.114643 0.867671 0.5
44 3 0.489311 0.854518 0.5
66 4 0.706107 0.852291 0.5
46 3 0.75085 0.884001 0.5
79 4 0.754672 0.853624 0.5
17 1 0.810654 0.867795 0.5
71 4 0.191582 0.921342 0.5
28 2 0.329113 0.900211 0.5
6 1 0.40152 0.92361 0.5
47 3 0.416743 0.949321 0.5
36 2 0.525392 0.941468 0.5
73 4 0.562634 0.975644 0.5
24 2 0.607273 0.966065 0.5
19 1 0.961801 0.991206 0.5
ITEM: TIMESTEP
70
ITEM: NUMBER OF ATOMS
80
ITEM: BOX BOUNDS pp pp pp
-6.4140754912556934e+00 6.4140754912556934e+00
-6.4140754912556934e+00 6.4140754912556934e+00
-1.0000000000000001e-01 1.0000000000000001e-01
ITEM: ATOMS id type xs ys zs
59 3 0.203575 0.0102633 0.5
32 2 0.27466 0.99718 0.5
50 3 0.307927 0.0593007 0.5
1 1 0.381227 0.0209182 0.5
13 1 0.322773 0.0223625 0.5
64 4 0.852383 0.00204771 0.5
55 3 0.446189 0.10408 0.5
21 2 0.665515 0.0802323 0.5
52 3 0.830648 0.0815327 0.5
69 4 0.986719 0.102501 0.5
70 4 0.711126 0.134968 0.5
29 2 0.903817 0.119699 0.5
41 3 0.211833 0.199612 0.5
80 4 0.248007 0.166449 0.5
60 3 0.870212 0.193729 0.5
18 1 0.952082 0.171179 0.5
75 4 0.614724 0.251187 0.5
51 3 0.66723 0.222914 0.5
57 3 0.714282 0.233908 0.5
72 4 0.901902 0.259337 0.5
54 3 0.998018 0.2241 0.5
37 2 0.199626 0.280786 0.5
9 1 0.463216 0.276469 0.5
63 4 0.627076 0.277036 0.5
22 2 0.0862348 0.348269 0.5
45 3 0.273795 0.34943 0.5
35 2 0.954213 0.360361 0.5
78 4 0.997575 0.330307 0.5
42 3 0.207727 0.375713 0.5
48 3 0.321425 0.393683 0.5
15 1 0.453347 0.40933 0.5
68 4 0.555089 0.38461 0.5
43 3 0.61672 0.474318 0.5
74 4 0.64513 0.438585 0.5
53 3 0.116624 0.510174 0.5
38 2 0.364045 0.510042 0.5
7 1 0.857168 0.488674 0.5
56 3 0.926134 0.473497 0.5
12 1 0.0171672 0.547882 0.5
23 2 0.159752 0.536152 0.5
67 4 0.246657 0.563065 0.5
20 1 0.514974 0.6214 0.5
5 1 0.586438 0.605128 0.5
27 2 0.688594 0.588825 0.5
39 2 0.735154 0.581715 0.5
30 2 0.0375246 0.655634 0.5
77 4 0.329901 0.646783 0.5
40 2 0.723355 0.670515 0.5
2 1 0.915728 0.646138 0.5
10 1 0.134546 0.714087 0.5
25 2 0.212683 0.702874 0.5
65 4 0.50255 0.685943 0.5
4 1 0.536719 0.730804 0.5
3 1 0.779019 0.693955 0.5
26 2 0.134744 0.780854 0.5
61 4 0.439444 0.739505 0.5
31 2 0.724316 0.741177 0.5
62 4 0.855247 0.779552 0.5
16 1 0.960975 0.766536 0.5
76 4 0.00108053 0.759654 0.5
58 3 0.0129633 0.806071 0.5
8 1 0.670768 0.797917 0.5
14 1 0.745514 0.803206 0.5
11 1 0.864201 0.825771 0.5
49 3 0.938681 0.806252 0.5
33 2 0.0116513 0.8694 0.5
34 2 0.114628 0.867739 0.5
44 3 0.489311 0.854518 0.5
66 4 0.705665 0.854166 0.5
46 3 0.749312 0.887005 0.5
79 4 0.754126 0.852684 0.5
17 1 0.812236 0.869544 0.5
71 4 0.191582 0.921342 0.5
28 2 0.328338 0.899929 0.5
6 1 0.400063 0.919716 0.5
47 3 0.419199 0.952945 0.5
36 2 0.524437 0.940791 0.5
73 4 0.561946 0.976507 0.5
24 2 0.608916 0.965879 0.5
19 1 0.961801 0.991206 0.5
ITEM: TIMESTEP
80
ITEM: NUMBER OF ATOMS
80
ITEM: BOX BOUNDS pp pp pp
-6.3286292023398865e+00 6.3286292023398865e+00
-6.3286292023398865e+00 6.3286292023398865e+00
-1.0000000000000001e-01 1.0000000000000001e-01
ITEM: ATOMS id type xs ys zs
59 3 0.203339 0.0102997 0.5
32 2 0.26941 0.99317 0.5
50 3 0.305499 0.066249 0.5
1 1 0.387708 0.020836 0.5
13 1 0.323867 0.0203355 0.5
64 4 0.852383 0.00204771 0.5
55 3 0.446189 0.10408 0.5
21 2 0.665451 0.0801549 0.5
52 3 0.830582 0.0814983 0.5
69 4 0.98685 0.102253 0.5
70 4 0.711191 0.135046 0.5
29 2 0.902367 0.117893 0.5
41 3 0.211406 0.199916 0.5
80 4 0.24845 0.166043 0.5
60 3 0.869737 0.193995 0.5
18 1 0.953309 0.17228 0.5
75 4 0.613864 0.249573 0.5
51 3 0.66562 0.222483 0.5
57 3 0.715963 0.2343 0.5
72 4 0.901902 0.259337 0.5
54 3 0.998649 0.224822 0.5
37 2 0.19961 0.28089 0.5
9 1 0.463216 0.276469 0.5
63 4 0.627863 0.27869 0.5
22 2 0.0862348 0.348269 0.5
45 3 0.273666 0.349185 0.5
35 2 0.953228 0.361043 0.5
78 4 0.998559 0.329625 0.5
42 3 0.207632 0.375751 0.5
48 3 0.321649 0.393891 0.5
15 1 0.453347 0.40933 0.5
68 4 0.555089 0.38461 0.5
43 3 0.616147 0.475039 0.5
74 4 0.645703 0.437864 0.5
53 3 0.114383 0.508825 0.5
38 2 0.364045 0.510042 0.5
7 1 0.855885 0.488957 0.5
56 3 0.927417 0.473215 0.5
12 1 0.0171617 0.547853 0.5
23 2 0.161992 0.537501 0.5
67 4 0.246657 0.563065 0.5
20 1 0.511935 0.62128 0.5
5 1 0.589478 0.604392 0.5
27 2 0.684523 0.589291 0.5
39 2 0.739258 0.580931 0.5
30 2 0.0375266 0.655661 0.5
77 4 0.329901 0.646783 0.5
40 2 0.719883 0.667592 0.5
2 1 0.915728 0.646138 0.5
10 1 0.133331 0.711513 0.5
25 2 0.213976 0.702619 0.5
65 4 0.501302 0.685033 0.5
4 1 0.537888 0.732584 0.5
3 1 0.78428 0.693722 0.5
26 2 0.134705 0.783532 0.5
61 4 0.439444 0.739505 0.5
31 2 0.723052 0.741622 0.5
62 4 0.854945 0.776905 0.5
16 1 0.957995 0.763278 0.5
76 4 0.00395965 0.75754 0.5
58 3 0.0156213 0.807981 0.5
8 1 0.666025 0.797427 0.5
14 1 0.748728 0.80148 0.5
11 1 0.866125 0.826849 0.5
49 3 0.936635 0.808837 0.5
33 2 0.0116695 0.870098 0.5
34 2 0.114593 0.867892 0.5
44 3 0.489311 0.854518 0.5
66 4 0.70508 0.856342 0.5
46 3 0.747512 0.89058 0.5
79 4 0.753483 0.851703 0.5
17 1 0.814164 0.871755 0.5
71 4 0.191582 0.921342 0.5
28 2 0.327274 0.899564 0.5
6 1 0.398616 0.915213 0.5
47 3 0.42205 0.956948 0.5
36 2 0.523226 0.939936 0.5
73 4 0.561161 0.977574 0.5
24 2 0.610912 0.965666 0.5
19 1 0.961801 0.991206 0.5
ITEM: TIMESTEP
90
ITEM: NUMBER OF ATOMS
80
ITEM: BOX BOUNDS pp pp pp
-6.3054899198308441e+00 6.3054899198308441e+00
-6.3054899198308441e+00 6.3054899198308441e+00
-1.0000000000000001e-01 1.0000000000000001e-01
ITEM: ATOMS id type xs ys zs
59 3 0.202948 0.0103763 0.5
32 2 0.26386 0.988829 0.5
50 3 0.302869 0.0737436 0.5
1 1 0.394667 0.02104 0.5
13 1 0.325017 0.0180951 0.5
64 4 0.852383 0.00204771 0.5
55 3 0.446194 0.104088 0.5
21 2 0.665352 0.0800365 0.5
52 3 0.830452 0.0814311 0.5
69 4 0.987023 0.101918 0.5
70 4 0.711289 0.135164 0.5
29 2 0.90079 0.115837 0.5
41 3 0.210894 0.200242 0.5
80 4 0.248986 0.16555 0.5
60 3 0.869124 0.194344 0.5
18 1 0.954665 0.173482 0.5
75 4 0.612868 0.247815 0.5
51 3 0.663852 0.221974 0.5
57 3 0.717857 0.234742 0.5
72 4 0.901902 0.259337 0.5
54 3 0.99944 0.22573 0.5
37 2 0.199586 0.281056 0.5
9 1 0.463216 0.276469 0.5
63 4 0.628733 0.280515 0.5
22 2 0.0862348 0.348269 0.5
45 3 0.273518 0.348853 0.5
35 2 0.952092 0.361831 0.5
78 4 0.999696 0.328837 0.5
42 3 0.207485 0.375809 0.5
48 3 0.321944 0.394165 0.5
15 1 0.453347 0.40933 0.5
68 4 0.555089 0.38461 0.5
43 3 0.615479 0.475879 0.5
74 4 0.646371 0.437024 0.5
53 3 0.111896 0.507326 0.5
38 2 0.364045 0.510042 0.5
7 1 0.854382 0.489287 0.5
56 3 0.92892 0.472884 0.5
12 1 0.0171501 0.547792 0.5
23 2 0.16448 0.538999 0.5
67 4 0.246657 0.563065 0.5
20 1 0.508538 0.620968 0.5
5 1 0.592762 0.603594 0.5
27 2 0.680136 0.589688 0.5
39 2 0.743777 0.579991 0.5
30 2 0.0375133 0.655708 0.5
77 4 0.329901 0.646783 0.5
40 2 0.716082 0.664502 0.5
2 1 0.915723 0.646124 0.5
10 1 0.131882 0.70864 0.5
25 2 0.21552 0.702334 0.5
65 4 0.499874 0.684116 0.5
4 1 0.539225 0.734643 0.5
3 1 0.790146 0.693361 0.5
26 2 0.134696 0.786442 0.5
61 4 0.439444 0.739505 0.5
31 2 0.721612 0.741947 0.5
62 4 0.854578 0.773946 0.5
16 1 0.954738 0.759507 0.5
76 4 0.00716892 0.755249 0.5
58 3 0.0185283 0.809956 0.5
8 1 0.660653 0.796965 0.5
14 1 0.752284 0.799492 0.5
11 1 0.868202 0.828069 0.5
49 3 0.934595 0.811743 0.5
33 2 0.0116752 0.871005 0.5
34 2 0.114532 0.868155 0.5
44 3 0.489311 0.854518 0.5
66 4 0.704358 0.858732 0.5
46 3 0.745497 0.894616 0.5
79 4 0.752753 0.85073 0.5
17 1 0.816364 0.874413 0.5
71 4 0.191582 0.921342 0.5
28 2 0.325912 0.899132 0.5
6 1 0.397254 0.910226 0.5
47 3 0.425232 0.961165 0.5
36 2 0.521794 0.938922 0.5
73 4 0.560302 0.978828 0.5
24 2 0.613203 0.965427 0.5
19 1 0.961801 0.991206 0.5
ITEM: TIMESTEP
100
ITEM: NUMBER OF ATOMS
80
ITEM: BOX BOUNDS pp pp pp
-6.3297211431527449e+00 6.3297211431527449e+00
-6.3297211431527449e+00 6.3297211431527449e+00
-1.0000000000000001e-01 1.0000000000000001e-01
ITEM: ATOMS id type xs ys zs
59 3 0.202386 0.0105138 0.5
32 2 0.258189 0.984283 0.5
50 3 0.300128 0.0815175 0.5
1 1 0.401884 0.0215533 0.5
13 1 0.326175 0.0157048 0.5
64 4 0.852383 0.00204771 0.5
55 3 0.446218 0.104126 0.5
21 2 0.665221 0.0798787 0.5
52 3 0.830243 0.0813254 0.5
69 4 0.987232 0.101505 0.5
70 4 0.711421 0.135322 0.5
29 2 0.89914 0.113599 0.5
41 3 0.210311 0.200577 0.5
80 4 0.249603 0.164985 0.5
60 3 0.868396 0.194759 0.5
18 1 0.956101 0.174739 0.5
75 4 0.611753 0.245973 0.5
51 3 0.66199 0.221396 0.5
57 3 0.719908 0.235221 0.5
72 4 0.901902 0.259337 0.5
54 3 1.00038 0.226815 0.5
37 2 0.199552 0.281286 0.5
9 1 0.463216 0.276469 0.5
63 4 0.629659 0.282456 0.5
22 2 0.0862348 0.348269 0.5
45 3 0.273355 0.348439 0.5
35 2 0.950836 0.362701 0.5
78 4 1.00095 0.327967 0.5
42 3 0.207289 0.375888 0.5
48 3 0.322303 0.394499 0.5
15 1 0.453347 0.40933 0.5
68 4 0.555089 0.38461 0.5
43 3 0.614736 0.476813 0.5
74 4 0.647114 0.43609 0.5
53 3 0.109237 0.505723 0.5
38 2 0.364045 0.510042 0.5
7 1 0.852701 0.489657 0.5
56 3 0.930601 0.472514 0.5
12 1 0.0171302 0.547697 0.5
23 2 0.16714 0.540602 0.5
67 4 0.246657 0.563065 0.5
20 1 0.504879 0.620467 0.5
5 1 0.596139 0.602769 0.5
27 2 0.675609 0.589973 0.5
39 2 0.748584 0.578921 0.5
30 2 0.0374662 0.655767 0.5
77 4 0.329901 0.646783 0.5
40 2 0.712075 0.661368 0.5
2 1 0.915703 0.646065 0.5
10 1 0.130253 0.705553 0.5
25 2 0.217275 0.702034 0.5
65 4 0.498306 0.68324 0.5
4 1 0.540692 0.736906 0.5
3 1 0.796439 0.692875 0.5
26 2 0.134727 0.789478 0.5
61 4 0.439444 0.739505 0.5
31 2 0.720019 0.742117 0.5
62 4 0.854153 0.770754 0.5
16 1 0.951322 0.755344 0.5
76 4 0.0106231 0.75286 0.5
58 3 0.0215889 0.811897 0.5
8 1 0.654816 0.796561 0.5
14 1 0.756096 0.79734 0.5
11 1 0.87036 0.8294 0.5
49 3 0.932671 0.81489 0.5
33 2 0.0116573 0.872114 0.5
34 2 0.114441 0.868543 0.5
44 3 0.489309 0.854513 0.5
66 4 0.703525 0.861236 0.5
46 3 0.743327 0.898969 0.5
79 4 0.751945 0.849813 0.5
17 1 0.818739 0.877478 0.5
71 4 0.191582 0.921342 0.5
28 2 0.324262 0.898656 0.5
6 1 0.396036 0.904909 0.5
47 3 0.428673 0.965431 0.5
36 2 0.520201 0.93778 0.5
73 4 0.559392 0.98024 0.5
24 2 0.615708 0.965162 0.5
19 1 0.961801 0.991206 0.5
ITEM: TIMESTEP
110
ITEM: NUMBER OF ATOMS
80
ITEM: BOX BOUNDS pp pp pp
-6.3782921903091747e+00 6.3782921903091747e+00
-6.3782921903091747e+00 6.3782921903091747e+00
-1.0000000000000001e-01 1.0000000000000001e-01
ITEM: ATOMS id type xs ys zs
59 3 0.201652 0.0107344 0.5
32 2 0.252522 0.979595 0.5
50 3 0.297342 0.0893977 0.5
1 1 0.409211 0.0223464 0.5
13 1 0.327302 0.0132292 0.5
64 4 0.852383 0.00204771 0.5
55 3 0.446271 0.104218 0.5
21 2 0.665061 0.0796873 0.5
52 3 0.829945 0.0811784 0.5
69 4 0.987468 0.101026 0.5
70 4 0.71158 0.135513 0.5
29 2 0.897468 0.111251 0.5
41 3 0.209673 0.200908 0.5
80 4 0.250283 0.164362 0.5
60 3 0.867582 0.195213 0.5
18 1 0.957565 0.176008 0.5
75 4 0.61054 0.244097 0.5
51 3 0.66009 0.220761 0.5
57 3 0.722062 0.235725 0.5
72 4 0.901902 0.259337 0.5
54 3 0.00146665 0.228066 0.5
37 2 0.19951 0.281577 0.5
9 1 0.463216 0.276469 0.5
63 4 0.630618 0.284463 0.5
22 2 0.0862348 0.348269 0.5
45 3 0.273182 0.347957 0.5
35 2 0.949495 0.363631 0.5
78 4 0.00229222 0.327038 0.5
42 3 0.207048 0.375985 0.5
48 3 0.322717 0.394884 0.5
15 1 0.453347 0.40933 0.5
68 4 0.555089 0.38461 0.5
43 3 0.613939 0.477817 0.5
74 4 0.647911 0.435087 0.5
53 3 0.106485 0.504054 0.5
38 2 0.364045 0.510042 0.5
7 1 0.850889 0.490056 0.5
56 3 0.932414 0.472116 0.5
12 1 0.0170959 0.547577 0.5
23 2 0.169904 0.542266 0.5
67 4 0.246657 0.563065 0.5
20 1 0.501052 0.619798 0.5
5 1 0.599468 0.601948 0.5
27 2 0.671103 0.590111 0.5
39 2 0.753561 0.577757 0.5
30 2 0.03737 0.655826 0.5
77 4 0.329901 0.646783 0.5
40 2 0.707983 0.658281 0.5
2 1 0.915661 0.645932 0.5
10 1 0.128502 0.702335 0.5
25 2 0.219195 0.701729 0.5
65 4 0.496644 0.682442 0.5
4 1 0.542242 0.73929 0.5
3 1 0.802979 0.692276 0.5
26 2 0.134804 0.792545 0.5
61 4 0.439444 0.739505 0.5
31 2 0.718299 0.742113 0.5
62 4 0.853679 0.767405 0.5
16 1 0.947859 0.750924 0.5
76 4 0.0142399 0.750444 0.5
58 3 0.0247198 0.813714 0.5
8 1 0.648688 0.796237 0.5
14 1 0.760078 0.795127 0.5
11 1 0.872534 0.830802 0.5
49 3 0.930944 0.818201 0.5
33 2 0.0116063 0.873409 0.5
34 2 0.114315 0.869065 0.5
44 3 0.489303 0.854495 0.5
66 4 0.702611 0.863756 0.5
46 3 0.741065 0.903496 0.5
79 4 0.751068 0.848995 0.5
17 1 0.821184 0.8809 0.5
71 4 0.191582 0.921342 0.5
28 2 0.322345 0.89816 0.5
6 1 0.395008 0.899415 0.5
47 3 0.432299 0.969599 0.5
36 2 0.518512 0.936553 0.5
73 4 0.558455 0.981777 0.5
24 2 0.61834 0.964869 0.5
19 1 0.961801 0.991206 0.5
ITEM: TIMESTEP
120
ITEM: NUMBER OF ATOMS
80
ITEM: BOX BOUNDS pp pp pp
-6.4227931647653316e+00 6.4227931647653316e+00
-6.4227931647653316e+00 6.4227931647653316e+00
-1.0000000000000001e-01 1.0000000000000001e-01
ITEM: ATOMS id type xs ys zs
59 3 0.200753 0.01106 0.5
32 2 0.246924 0.974783 0.5
50 3 0.294549 0.0972823 0.5
1 1 0.416562 0.0233773 0.5
13 1 0.328366 0.0107215 0.5
64 4 0.852383 0.00204771 0.5
55 3 0.446356 0.104383 0.5
21 2 0.664879 0.0794689 0.5
52 3 0.82955 0.0809887 0.5
69 4 0.987724 0.100495 0.5
70 4 0.711762 0.135732 0.5
29 2 0.895808 0.108851 0.5
41 3 0.208991 0.20123 0.5
80 4 0.251014 0.163695 0.5
60 3 0.866712 0.195681 0.5
18 1 0.959018 0.177253 0.5
75 4 0.609242 0.242226 0.5
51 3 0.658197 0.220078 0.5
57 3 0.72428 0.236244 0.5
72 4 0.901902 0.259337 0.5
54 3 0.00268174 0.229473 0.5
37 2 0.199461 0.281924 0.5
9 1 0.463216 0.276469 0.5
63 4 0.631592 0.286499 0.5
22 2 0.0862348 0.348269 0.5
45 3 0.273003 0.347417 0.5
35 2 0.948096 0.3646 0.5
78 4 0.00369162 0.326068 0.5
42 3 0.206769 0.376099 0.5
48 3 0.323174 0.395311 0.5
15 1 0.453347 0.40933 0.5
68 4 0.555089 0.38461 0.5
43 3 0.613102 0.478868 0.5
74 4 0.648748 0.434035 0.5
53 3 0.103696 0.502347 0.5
38 2 0.364045 0.510042 0.5
7 1 0.848982 0.490476 0.5
56 3 0.93432 0.471696 0.5
12 1 0.0170424 0.547442 0.5
23 2 0.172717 0.543961 0.5