ITEM: TIMESTEP
500
ITEM: NUMBER OF ATOMS
67
ITEM: BOX BOUNDS pp pp pp
-4.8314140171535760e+00 4.8314140171535760e+00
-4.8318273271603909e+00 4.8318273271603909e+00
-1.0000000000000001e-01 1.0000000000000001e-01
ITEM: ATOMS id type xs ys zs
6 1 0.0914884 0.0350839 0.500874
59 1 0.213254 0.0498826 0.500127
79 1 0.546476 0.0858617 0.499692
42 1 0.595868 0.0308591 0.499433
15 1 0.704928 0.0412227 0.500139
35 1 0.840939 0.0822118 0.500514
34 1 0.952301 0.0507208 0.499923
13 1 0.0303746 0.180987 0.499891
27 1 0.160064 0.159697 0.500821
4 1 0.287921 0.128687 0.499626
20 1 0.617424 0.159107 0.499509
10 1 0.767587 0.204132 0.500051
53 1 0.916342 0.157331 0.500215
36 1 0.0778823 0.326132 0.500593
58 1 0.163651 0.258694 0.5003
18 1 0.282887 0.279662 0.499096
38 1 0.448957 0.330568 0.500138
30 1 0.560624 0.313892 0.499253
76 1 0.644534 0.263258 0.500504
33 1 0.711799 0.328562 0.499147
19 1 0.91453 0.287124 0.500099
39 1 0.191354 0.385346 0.499961
32 1 0.355856 0.406724 0.499652
40 1 0.527945 0.428226 0.500058
69 1 0.632258 0.370683 0.499947
73 1 0.708837 0.432708 0.499314
46 1 0.77896 0.418789 0.499955
77 1 0.862034 0.399593 0.500191
75 1 0.927543 0.391034 0.50054
11 1 0.0750166 0.454676 0.500821
63 1 0.0203783 0.554441 0.499482
67 1 0.179652 0.488149 0.499541
9 1 0.277239 0.539125 0.500265
16 1 0.43064 0.526702 0.49971
41 1 0.634136 0.456823 0.500166
5 1 0.736255 0.536697 0.499986
56 1 0.848708 0.484383 0.49971
37 1 0.942295 0.489827 0.500321
45 1 0.0801966 0.609318 0.499711
57 1 0.167278 0.581465 0.49974
3 1 0.578452 0.560504 0.50081
80 1 0.658308 0.630533 0.500147
7 1 0.876107 0.603745 0.50066
31 1 0.107536 0.723392 0.500994
50 1 0.197941 0.670225 0.499629
29 1 0.220725 0.774646 0.500144
28 1 0.301444 0.668419 0.501234
23 1 0.598146 0.71267 0.499794
68 1 0.694727 0.678151 0.499676
55 1 0.704285 0.756939 0.500447
43 1 0.777617 0.687288 0.499555
14 1 0.887741 0.759403 0.500429
21 1 0.979469 0.669694 0.499671
25 1 0.110057 0.850849 0.500425
49 1 0.017601 0.778917 0.499975
48 1 0.291401 0.862968 0.500305
44 1 0.335778 0.782236 0.500104
8 1 0.422322 0.862482 0.499406
1 1 0.599868 0.851691 0.500455
26 1 0.778734 0.846286 0.500301
71 1 0.871545 0.864984 0.499876
24 1 0.205885 0.942473 0.500257
12 1 0.338386 0.982712 0.500101
17 1 0.495745 0.98617 0.499869
78 1 0.624213 0.961362 0.499761
47 1 0.707993 0.916769 0.49982
22 1 0.822954 0.953317 0.49987
ITEM: TIMESTEP
750
ITEM: NUMBER OF ATOMS
67
ITEM: BOX BOUNDS pp pp pp
-4.8302061153332145e+00 4.8302061153332145e+00
-4.8365403983758952e+00 4.8365403983758952e+00
-1.0000000000000001e-01 1.0000000000000001e-01
ITEM: ATOMS id type xs ys zs
6 1 0.0920908 0.0348948 0.500435
59 1 0.214327 0.0496107 0.500726
79 1 0.545598 0.0863158 0.49995
42 1 0.595676 0.0316068 0.499571
15 1 0.705208 0.0403705 0.498778
35 1 0.841177 0.0822435 0.502011
34 1 0.953071 0.0518344 0.499041
13 1 0.0299058 0.180335 0.500632
27 1 0.159733 0.159418 0.499585
4 1 0.286927 0.130164 0.499053
20 1 0.61772 0.15905 0.499812
10 1 0.767663 0.204396 0.501477
53 1 0.914971 0.158108 0.500733
36 1 0.0783907 0.327279 0.498888
58 1 0.163387 0.258514 0.50036
18 1 0.282276 0.281808 0.499615
38 1 0.448567 0.330356 0.501248
30 1 0.560629 0.314652 0.499894
76 1 0.644393 0.262772 0.500137
33 1 0.711468 0.328359 0.497878
19 1 0.915229 0.287739 0.499874
39 1 0.190956 0.3867 0.500467
32 1 0.357026 0.408192 0.500717
40 1 0.527551 0.428624 0.500239
69 1 0.632127 0.371286 0.500196
73 1 0.70899 0.433722 0.499117
46 1 0.77877 0.419062 0.499124
77 1 0.861282 0.399089 0.503081
75 1 0.926972 0.391495 0.500858
11 1 0.0753303 0.455493 0.500966
63 1 0.0205033 0.555511 0.499196
67 1 0.178904 0.488827 0.498771
9 1 0.277303 0.538884 0.501155
16 1 0.431248 0.528043 0.500797
41 1 0.633955 0.457273 0.500622
5 1 0.73638 0.536958 0.500216
56 1 0.849137 0.484493 0.500968
37 1 0.942558 0.490548 0.49975
45 1 0.0807442 0.610058 0.499631
57 1 0.167279 0.581612 0.498483
3 1 0.578808 0.560625 0.500523
80 1 0.658486 0.631485 0.500055
7 1 0.876559 0.603464 0.501272
31 1 0.107016 0.724112 0.501401
50 1 0.196914 0.670296 0.496793
29 1 0.220812 0.774708 0.499605
28 1 0.300499 0.668202 0.501401
23 1 0.598726 0.713832 0.499748
68 1 0.695268 0.678274 0.501383
55 1 0.704804 0.756461 0.498274
43 1 0.778545 0.686668 0.499415
14 1 0.888069 0.759176 0.499811
21 1 0.979982 0.669938 0.500312
25 1 0.110082 0.85111 0.500852
49 1 0.0175301 0.779172 0.497068
48 1 0.292043 0.862134 0.502841
44 1 0.335759 0.78157 0.500683
8 1 0.422599 0.861566 0.498447
1 1 0.598228 0.852468 0.500973
26 1 0.779564 0.846276 0.50119
71 1 0.872932 0.865068 0.499096
24 1 0.206093 0.941986 0.499394
12 1 0.339381 0.981883 0.500104
17 1 0.495814 0.986412 0.50118
78 1 0.62365 0.961791 0.499079
47 1 0.70791 0.915756 0.499985
22 1 0.824086 0.953809 0.500714
ITEM: TIMESTEP
1000
ITEM: NUMBER OF ATOMS
67
ITEM: BOX BOUNDS pp pp pp
-4.8289982135128531e+00 4.8289982135128531e+00
-4.8353486402358445e+00 4.8353486402358445e+00
-1.0000000000000001e-01 1.0000000000000001e-01
ITEM: ATOMS id type xs ys zs
6 1 0.0927462 0.0355004 0.500851
59 1 0.214921 0.0497997 0.499721
79 1 0.546492 0.0853391 0.500422
42 1 0.596503 0.0302059 0.499371
15 1 0.705451 0.0414813 0.497812
35 1 0.841825 0.0821679 0.502686
34 1 0.954059 0.052347 0.499577
13 1 0.0309555 0.180025 0.499825
27 1 0.161237 0.160062 0.498968
4 1 0.289117 0.129661 0.499415
20 1 0.616924 0.159111 0.501174
10 1 0.766899 0.203788 0.500277
53 1 0.91612 0.158406 0.500487
36 1 0.0788794 0.327339 0.498794
58 1 0.1634 0.259384 0.499481
18 1 0.283437 0.280764 0.500835
38 1 0.449013 0.330794 0.501817
30 1 0.561512 0.315044 0.499739
76 1 0.644462 0.262805 0.499536
33 1 0.711963 0.328775 0.498156
19 1 0.915396 0.286909 0.499214
39 1 0.191784 0.386313 0.500566
32 1 0.356685 0.407775 0.500335
40 1 0.527823 0.42884 0.500207
69 1 0.633124 0.372024 0.498482
73 1 0.708662 0.433508 0.501247
46 1 0.778978 0.419319 0.499206
77 1 0.861852 0.399268 0.503629
75 1 0.927207 0.391868 0.500612
11 1 0.0756612 0.456132 0.50175
63 1 0.0197791 0.555215 0.497962
67 1 0.18012 0.487964 0.499317
9 1 0.277959 0.538765 0.501303
16 1 0.431824 0.528328 0.50121
41 1 0.634145 0.457941 0.501221
5 1 0.736794 0.537199 0.500917
56 1 0.84917 0.484194 0.503826
37 1 0.942395 0.490077 0.499301
45 1 0.0804115 0.609553 0.499212
57 1 0.167608 0.581619 0.495681
3 1 0.578736 0.56173 0.501047
80 1 0.659329 0.631576 0.501649
7 1 0.876414 0.603554 0.50072
31 1 0.106936 0.723841 0.501149
50 1 0.197461 0.670411 0.496765
29 1 0.220656 0.77474 0.498169
28 1 0.300442 0.668149 0.501144
23 1 0.599087 0.713157 0.500062
68 1 0.695767 0.679163 0.502409
55 1 0.704815 0.75716 0.499353
43 1 0.77879 0.688017 0.50054
14 1 0.888405 0.759907 0.498911
21 1 0.979953 0.670016 0.500447
25 1 0.110206 0.850641 0.50203
49 1 0.0177196 0.779402 0.497225
48 1 0.291727 0.862516 0.50477
44 1 0.335386 0.781748 0.501609
8 1 0.422594 0.862259 0.497773
1 1 0.598307 0.852641 0.500934
26 1 0.780466 0.846674 0.502045
71 1 0.873144 0.865966 0.49852
24 1 0.206183 0.942506 0.49934
12 1 0.33823 0.982283 0.501326
17 1 0.496299 0.985841 0.502908
78 1 0.625449 0.961049 0.497071
47 1 0.708027 0.916349 0.500488
22 1 0.823539 0.953678 0.50214
ITEM: TIMESTEP
1250
ITEM: NUMBER OF ATOMS
67
ITEM: BOX BOUNDS pp pp pp
-4.8277903116924925e+00 4.8277903116924925e+00
-4.8334750171964442e+00 4.8334750171964442e+00
-1.0000000000000001e-01 1.0000000000000001e-01
ITEM: ATOMS id type xs ys zs
6 1 0.091657 0.0354194 0.501316
59 1 0.213526 0.0501132 0.499575
79 1 0.547346 0.0857024 0.500254
42 1 0.596766 0.0306109 0.499325
15 1 0.705641 0.0407907 0.499171
35 1 0.840556 0.0823148 0.503369
34 1 0.952476 0.0506995 0.499393
13 1 0.0312084 0.180612 0.496784
27 1 0.160416 0.160133 0.498859
4 1 0.287883 0.129233 0.499519
20 1 0.618487 0.159107 0.500712
10 1 0.768107 0.204463 0.500829
53 1 0.916424 0.157417 0.499531
36 1 0.0794305 0.327599 0.499752
58 1 0.163767 0.259222 0.498783
18 1 0.281925 0.280335 0.500481
38 1 0.449142 0.330865 0.503464
30 1 0.561145 0.314517 0.501455
76 1 0.644739 0.263569 0.499977
33 1 0.712234 0.328621 0.498674
19 1 0.91472 0.286713 0.499271
39 1 0.191911 0.387518 0.501759
32 1 0.356107 0.407198 0.501228
40 1 0.528483 0.428643 0.501266
69 1 0.632737 0.371808 0.498346
73 1 0.70943 0.433289 0.502483
46 1 0.779669 0.419244 0.49986
77 1 0.862464 0.399517 0.502463
75 1 0.927675 0.390616 0.499077
11 1 0.0760226 0.456328 0.501693
63 1 0.019395 0.555404 0.496688
67 1 0.180148 0.490241 0.498551
9 1 0.278257 0.539315 0.502106
16 1 0.431541 0.527107 0.498413
41 1 0.634808 0.45778 0.502461
5 1 0.736933 0.537 0.502145
56 1 0.849445 0.484097 0.503095
37 1 0.942467 0.488953 0.498949
45 1 0.0805257 0.609495 0.499365
57 1 0.167861 0.580505 0.495787
3 1 0.579065 0.5613 0.498414
80 1 0.660033 0.630716 0.499927
7 1 0.876325 0.6036 0.499394
31 1 0.107585 0.7236 0.501667
50 1 0.197823 0.669787 0.496943
29 1 0.220944 0.774531 0.498406
28 1 0.301592 0.668224 0.501867
23 1 0.599007 0.712521 0.500022
68 1 0.696235 0.678414 0.503291
55 1 0.704505 0.75707 0.500543
43 1 0.778582 0.688222 0.499551
14 1 0.888011 0.759854 0.499893
21 1 0.980331 0.670707 0.499914
25 1 0.110266 0.851038 0.502698
49 1 0.0183181 0.779563 0.497376
48 1 0.291797 0.862443 0.503522
44 1 0.336437 0.781565 0.502351
8 1 0.423031 0.862117 0.498752
1 1 0.600007 0.8512 0.500815
26 1 0.779507 0.84637 0.503759
71 1 0.872294 0.864909 0.497714
24 1 0.206182 0.942669 0.500733
12 1 0.338958 0.982126 0.499589
17 1 0.496704 0.985961 0.502458
78 1 0.62479 0.961209 0.495666
47 1 0.708307 0.916526 0.499804
22 1 0.824482 0.953572 0.501913
ITEM: TIMESTEP
1500
ITEM: NUMBER OF ATOMS
67
ITEM: BOX BOUNDS pp pp pp
-4.8265824098721311e+00 4.8265824098721311e+00
-4.8339107556694190e+00 4.8339107556694190e+00
-1.0000000000000001e-01 1.0000000000000001e-01
ITEM: ATOMS id type xs ys zs
6 1 0.0921922 0.0353699 0.501929
59 1 0.21426 0.0493554 0.497238
79 1 0.546059 0.0865378 0.498959
42 1 0.595988 0.031323 0.49887
15 1 0.704644 0.0410055 0.499041
35 1 0.840652 0.0820575 0.504228
34 1 0.952809 0.0509742 0.498729
13 1 0.0301594 0.180562 0.495424
27 1 0.159811 0.160026 0.50064
4 1 0.2883 0.129081 0.499854
20 1 0.617954 0.159183 0.501128
10 1 0.768074 0.204656 0.500928
53 1 0.915466 0.157431 0.498287
36 1 0.0792818 0.32677 0.499995
58 1 0.163576 0.259112 0.498787
18 1 0.282784 0.279821 0.500804
38 1 0.44852 0.330386 0.505408
30 1 0.560478 0.313682 0.503614
76 1 0.644325 0.263197 0.498037
33 1 0.711821 0.329016 0.499137
19 1 0.914149 0.286512 0.499158
39 1 0.192202 0.386508 0.503506
32 1 0.355414 0.406583 0.502391
40 1 0.528 0.428356 0.500804
69 1 0.632094 0.370914 0.498987
73 1 0.709456 0.432835 0.50372
46 1 0.779487 0.418879 0.500863
77 1 0.862008 0.400038 0.501194
75 1 0.927304 0.390712 0.498304
11 1 0.0757257 0.45557 0.503216
63 1 0.0200142 0.55523 0.497271
67 1 0.180217 0.488815 0.499087
9 1 0.278225 0.539174 0.502603
16 1 0.431184 0.526523 0.499042
41 1 0.634637 0.456459 0.500966
5 1 0.736524 0.536928 0.504959
56 1 0.849384 0.48498 0.50222
37 1 0.942601 0.489976 0.499506
45 1 0.08121 0.609223 0.499248
57 1 0.168474 0.581694 0.494369
3 1 0.579038 0.560566 0.495975
80 1 0.660084 0.630721 0.499458
7 1 0.876668 0.603476 0.498747
31 1 0.10738 0.724117 0.501161
50 1 0.197546 0.670429 0.497756
29 1 0.221339 0.77492 0.49798
28 1 0.301309 0.668689 0.500391
23 1 0.599181 0.712107 0.501997
68 1 0.695764 0.678496 0.503272
55 1 0.70457 0.756851 0.499674
43 1 0.778943 0.687978 0.500074
14 1 0.88855 0.759605 0.499588
21 1 0.980565 0.670128 0.500905
25 1 0.110059 0.850824 0.502835
49 1 0.0180268 0.779362 0.495953
48 1 0.292489 0.862612 0.502954
44 1 0.336634 0.782058 0.502144
8 1 0.423403 0.862628 0.500295
1 1 0.599371 0.852106 0.500534
26 1 0.779005 0.845822 0.50407
71 1 0.872373 0.864658 0.500279
24 1 0.206073 0.941698 0.500633
12 1 0.338478 0.983024 0.499233
17 1 0.495961 0.986519 0.501083
78 1 0.623737 0.961821 0.495696
47 1 0.708425 0.916977 0.500952
22 1 0.822493 0.953329 0.502503
ITEM: TIMESTEP
1750
ITEM: NUMBER OF ATOMS
67
ITEM: BOX BOUNDS pp pp pp
-4.8253745080517696e+00 4.8253745080517696e+00
-4.8397801304336303e+00 4.8397801304336303e+00
-1.0000000000000001e-01 1.0000000000000001e-01
ITEM: ATOMS id type xs ys zs
6 1 0.0923065 0.0355592 0.503172
59 1 0.214232 0.0487423 0.496226
79 1 0.546308 0.086592 0.496656
42 1 0.595856 0.0314131 0.498934
15 1 0.704677 0.0419533 0.500409
35 1 0.841154 0.082011 0.505862
34 1 0.952861 0.0506534 0.501324
13 1 0.0306193 0.1804 0.496041
27 1 0.160091 0.160538 0.500649
4 1 0.288337 0.127997 0.497826
20 1 0.617465 0.159128 0.503748
10 1 0.767369 0.204335 0.502882
53 1 0.916306 0.156887 0.497858
36 1 0.0776469 0.327573 0.501752
58 1 0.162874 0.25954 0.499569
18 1 0.282459 0.27976 0.499003
38 1 0.448153 0.330636 0.506235
30 1 0.560434 0.313777 0.503321
76 1 0.644513 0.26369 0.499949
33 1 0.712087 0.328992 0.498935
19 1 0.915275 0.286216 0.500033
39 1 0.190636 0.385408 0.504948
32 1 0.355983 0.406922 0.502598
40 1 0.527954 0.427987 0.501163
69 1 0.631754 0.370751 0.50109
73 1 0.709514 0.43321 0.504832
46 1 0.779797 0.419396 0.502102
77 1 0.862805 0.400159 0.501809
75 1 0.927851 0.390513 0.496525
11 1 0.0753565 0.455892 0.504331
63 1 0.0194466 0.554375 0.497556
67 1 0.180718 0.487426 0.498192
9 1 0.27728 0.540654 0.504869
16 1 0.430462 0.526282 0.499472
41 1 0.634433 0.456658 0.499378
5 1 0.736129 0.537261 0.50497
56 1 0.849007 0.484922 0.502568
37 1 0.942067 0.489268 0.49968
45 1 0.0795631 0.609621 0.498959
57 1 0.167299 0.582129 0.496339
3 1 0.579077 0.559981 0.496189
80 1 0.658641 0.631068 0.498443
7 1 0.876016 0.603263 0.497397
31 1 0.107957 0.72362 0.500023
50 1 0.198965 0.670318 0.497455
29 1 0.22142 0.774858 0.495768
28 1 0.302792 0.669667 0.501108
23 1 0.598437 0.713232 0.500059
68 1 0.694935 0.678581 0.503796
55 1 0.704465 0.7569 0.500121
43 1 0.778168 0.687595 0.499193
14 1 0.887469 0.759311 0.500621
21 1 0.979316 0.670169 0.50214
25 1 0.109772 0.850909 0.503447
49 1 0.0182867 0.77926 0.49521
48 1 0.29176 0.863139 0.505947
44 1 0.336293 0.782724 0.500297
8 1 0.422639 0.862694 0.499573
1 1 0.600167 0.851919 0.500579
26 1 0.779312 0.846278 0.504823
71 1 0.871647 0.864965 0.50107
24 1 0.205726 0.941615 0.500859
12 1 0.338202 0.98319 0.499926
17 1 0.495976 0.986538 0.498394
78 1 0.623991 0.961905 0.49569
47 1 0.709256 0.917705 0.501469
22 1 0.822695 0.953532 0.502867
ITEM: TIMESTEP
2000
ITEM: NUMBER OF ATOMS
67
ITEM: BOX BOUNDS pp pp pp
-4.8241666062314090e+00 4.8241666062314090e+00
-4.8409327405021010e+00 4.8409327405021010e+00
-1.0000000000000001e-01 1.0000000000000001e-01
ITEM: ATOMS id type xs ys zs
6 1 0.0920399 0.0361129 0.49977
59 1 0.21364 0.0501718 0.496561
79 1 0.5462 0.0868607 0.497412
42 1 0.595408 0.0317094 0.497641
15 1 0.704357 0.0409926 0.501331
35 1 0.840497 0.0820426 0.506401
34 1 0.952826 0.0515168 0.501774
13 1 0.0301541 0.180929 0.49646
27 1 0.160329 0.161355 0.499313
4 1 0.287691 0.129659 0.49763
20 1 0.618342 0.158981 0.50361
10 1 0.768779 0.204794 0.501977
53 1 0.915262 0.157918 0.497175
36 1 0.077134 0.327662 0.501329
58 1 0.162455 0.260539 0.501103
18 1 0.282062 0.280065 0.498517
38 1 0.449023 0.330269 0.504565
30 1 0.561082 0.312182 0.500918
76 1 0.645749 0.262748 0.501174
33 1 0.712248 0.328514 0.499132
19 1 0.914828 0.287416 0.499875
39 1 0.190941 0.385809 0.505566
32 1 0.355743 0.406273 0.502084
40 1 0.529042 0.426746 0.500456
69 1 0.632037 0.370253 0.504004
73 1 0.709745 0.432833 0.504856
46 1 0.779916 0.418683 0.502184
77 1 0.862421 0.399977 0.499956
75 1 0.927473 0.390788 0.495845
11 1 0.07616 0.456424 0.504369
63 1 0.019882 0.555167 0.497032
67 1 0.180849 0.488309 0.498249
9 1 0.278089 0.540797 0.505783
16 1 0.431696 0.525724 0.49881
41 1 0.63475 0.456455 0.499294
5 1 0.736736 0.536379 0.503903
56 1 0.849722 0.484102 0.504314
37 1 0.942683 0.489731 0.500176
45 1 0.0807851 0.609369 0.497789
57 1 0.168122 0.582313 0.496945
3 1 0.578835 0.559703 0.495238
80 1 0.65841 0.630715 0.499582
7 1 0.876422 0.603185 0.496728
31 1 0.108018 0.723228 0.499553
50 1 0.199032 0.670789 0.49828
29 1 0.221762 0.77469 0.496654
28 1 0.303011 0.66907 0.500393
23 1 0.598688 0.713292 0.500588
68 1 0.695097 0.67818 0.500972
55 1 0.704994 0.756096 0.500738
43 1 0.778446 0.686862 0.498671
14 1 0.887758 0.759233 0.500883
21 1 0.979916 0.669817 0.503408
25 1 0.110956 0.850376 0.504004
49 1 0.0188703 0.778855 0.494958
48 1 0.291701 0.863304 0.506361
44 1 0.336483 0.783344 0.501183
8 1 0.4225 0.86443 0.499586
1 1 0.599196 0.852493 0.501377
26 1 0.778763 0.846322 0.505098
71 1 0.871557 0.864818 0.502452
24 1 0.205459 0.94275 0.499628
12 1 0.337534 0.983781 0.496775
17 1 0.494961 0.987597 0.499312
78 1 0.623569 0.962138 0.494758
47 1 0.708346 0.916972 0.502634
22 1 0.823063 0.953929 0.502584
ITEM: TIMESTEP
2250
ITEM: NUMBER OF ATOMS
67
ITEM: BOX BOUNDS pp pp pp
-4.8229587044110476e+00 4.8229587044110476e+00
-4.8441978576750886e+00 4.8441978576750886e+00
-1.0000000000000001e-01 1.0000000000000001e-01
ITEM: ATOMS id type xs ys zs
6 1 0.0923262 0.0365267 0.497851
59 1 0.214755 0.0493753 0.497081
79 1 0.546677 0.0870685 0.498507
42 1 0.595865 0.031993 0.49627
15 1 0.704699 0.0413978 0.501092
35 1 0.84069 0.081604 0.506932
34 1 0.953683 0.0527148 0.501144
13 1 0.0291505 0.180867 0.497014
27 1 0.159286 0.1609 0.499548
4 1 0.287714 0.129214 0.497295
20 1 0.619049 0.159658 0.504808
10 1 0.769276 0.205295 0.501478
53 1 0.914235 0.158143 0.498376
36 1 0.0763412 0.328573 0.500225
58 1 0.161347 0.260148 0.503255
18 1 0.281036 0.279923 0.496673
38 1 0.448764 0.329853 0.504175
30 1 0.561079 0.312725 0.500615
76 1 0.645905 0.263382 0.501115
33 1 0.712726 0.329076 0.499086
19 1 0.913418 0.287339 0.498563
39 1 0.190389 0.386475 0.505213
32 1 0.356295 0.405919 0.50338
40 1 0.529186 0.426616 0.498976
69 1 0.632543 0.370093 0.502823
73 1 0.709765 0.432833 0.503921
46 1 0.780449 0.418971 0.502014
77 1 0.862882 0.399 0.499913
75 1 0.928531 0.391134 0.49522
11 1 0.0760723 0.456982 0.504487
63 1 0.0197128 0.555188 0.49609
67 1 0.181818 0.4888 0.499914
9 1 0.278647 0.541005 0.505225
16 1 0.431712 0.525339 0.497781
41 1 0.634663 0.456206 0.500247
5 1 0.736427 0.536497 0.504181
56 1 0.849456 0.484087 0.503363
37 1 0.942682 0.490093 0.49958
45 1 0.0806464 0.609323 0.499979
57 1 0.16793 0.582706 0.497285
3 1 0.578681 0.559909 0.494303
80 1 0.65779 0.630736 0.50065
7 1 0.876545 0.602957 0.496881
31 1 0.107171 0.723314 0.499556
50 1 0.198404 0.670983 0.499958
29 1 0.220505 0.775317 0.497729
28 1 0.302418 0.669992 0.498919
23 1 0.597446 0.713539 0.501257
68 1 0.693848 0.677974 0.499939
55 1 0.703723 0.756135 0.499669
43 1 0.777541 0.686141 0.500954
14 1 0.88754 0.758649 0.500432
21 1 0.979484 0.669559 0.503115
25 1 0.109219 0.850982 0.502106
49 1 0.0175892 0.778654 0.494394
48 1 0.29087 0.86373 0.506102
44 1 0.336004 0.783969 0.500237
8 1 0.422387 0.864801 0.498638
1 1 0.600455 0.852161 0.500785
26 1 0.778973 0.845827 0.505417
71 1 0.87183 0.864871 0.501561
24 1 0.205123 0.942573 0.498163
12 1 0.337897 0.983611 0.497152
17 1 0.495561 0.988167 0.500185
78 1 0.623907 0.962259 0.495248
47 1 0.709251 0.917194 0.504434
22 1 0.822504 0.953173 0.50302
ITEM: TIMESTEP
2500
ITEM: NUMBER OF ATOMS
67
ITEM: BOX BOUNDS pp pp pp
-4.8217508025906861e+00 4.8217508025906861e+00
-4.8514871186568396e+00 4.8514871186568396e+00
-1.0000000000000001e-01 1.0000000000000001e-01
ITEM: ATOMS id type xs ys zs
6 1 0.0921968 0.0364969 0.495906
59 1 0.215373 0.048228 0.498281
79 1 0.546473 0.0868409 0.499721
42 1 0.595722 0.0312774 0.495203
15 1 0.704902 0.0405005 0.501557
35 1 0.840666 0.0808552 0.504541
34 1 0.95363 0.0526419 0.50194
13 1 0.0290255 0.180569 0.497548
27 1 0.159746 0.161485 0.502565
4 1 0.287198 0.129184 0.499429
20 1 0.618121 0.158792 0.505538
10 1 0.769278 0.203777 0.502045
53 1 0.914322 0.15841 0.497727
36 1 0.0762815 0.328497 0.499676
58 1 0.160736 0.260145 0.503695
18 1 0.280108 0.279239 0.494675
38 1 0.449232 0.328296 0.504918
30 1 0.56187 0.312856 0.500763
76 1 0.645701 0.26235 0.498872
33 1 0.713081 0.328037 0.501196
19 1 0.91429 0.287668 0.497898
39 1 0.190384 0.385672 0.506151
32 1 0.355759 0.404266 0.502465
40 1 0.528348 0.426366 0.498186
69 1 0.633231 0.369665 0.502262
73 1 0.709531 0.432107 0.504348
46 1 0.780473 0.418462 0.502576
77 1 0.863781 0.40053 0.500305
75 1 0.929355 0.391542 0.494479
11 1 0.0757485 0.456739 0.505295
63 1 0.0200862 0.555774 0.496194
67 1 0.181432 0.488004 0.501028
9 1 0.277744 0.541353 0.505384
16 1 0.431026 0.524044 0.497985
41 1 0.634581 0.455354 0.498711
5 1 0.73601 0.535766 0.504598
56 1 0.8491 0.484621 0.502022
37 1 0.942679 0.490166 0.499949
45 1 0.0803507 0.609944 0.499151
57 1 0.167376 0.582772 0.497615
3 1 0.578408 0.558545 0.49698
80 1 0.656478 0.631394 0.498812
7 1 0.875946 0.602975 0.496465
31 1 0.107698 0.723502 0.499463
50 1 0.198686 0.670329 0.498403
29 1 0.220638 0.774428 0.497367
28 1 0.302609 0.669733 0.497609
23 1 0.597951 0.714321 0.500661
68 1 0.693619 0.678108 0.497008
55 1 0.704285 0.756017 0.499193
43 1 0.777171 0.686342 0.499213
14 1 0.886774 0.758601 0.501018
21 1 0.978813 0.669036 0.503597
25 1 0.108583 0.849612 0.502273
49 1 0.0172302 0.777791 0.496501
48 1 0.291149 0.862875 0.507868
44 1 0.336177 0.783634 0.500384
8 1 0.422314 0.864394 0.497282
1 1 0.599672 0.852868 0.501142
26 1 0.778706 0.845496 0.504922
71 1 0.871238 0.864223 0.502041
24 1 0.204495 0.941385 0.497941
12 1 0.336792 0.983398 0.498158
17 1 0.495101 0.988338 0.499917
78 1 0.623427 0.961964 0.495226
47 1 0.708492 0.916807 0.504308
22 1 0.82355 0.952832 0.503479
ITEM: TIMESTEP
2750
ITEM: NUMBER OF ATOMS
67
ITEM: BOX BOUNDS pp pp pp
-4.8205429007703247e+00 4.8205429007703247e+00
-4.8479523153791879e+00 4.8479523153791879e+00
-1.0000000000000001e-01 1.0000000000000001e-01
ITEM: ATOMS id type xs ys zs
6 1 0.0927865 0.0363884 0.494401
59 1 0.21508 0.0483281 0.497713
79 1 0.545316 0.0866509 0.500341
42 1 0.594776 0.0315997 0.494695
15 1 0.704607 0.0408323 0.500668
35 1 0.841315 0.0809308 0.503388
34 1 0.953642 0.0527248 0.502333
13 1 0.0288106 0.180311 0.497404
27 1 0.159548 0.161862 0.50387
4 1 0.28712 0.128753 0.498423
20 1 0.617487 0.158573 0.505064
10 1 0.768927 0.203529 0.500755
53 1 0.913638 0.158227 0.49746
36 1 0.077302 0.328623 0.498157
58 1 0.161082 0.260775 0.503375
18 1 0.280681 0.278568 0.49395
38 1 0.449846 0.327698 0.50394
30 1 0.561903 0.313151 0.500654
76 1 0.645528 0.262159 0.499324
33 1 0.713253 0.327572 0.500366
19 1 0.913986 0.286994 0.501448
39 1 0.191366 0.385266 0.508386
32 1 0.356645 0.404165 0.501235
40 1 0.52737 0.42666 0.498932
69 1 0.633459 0.370334 0.503625
73 1 0.70857 0.431919 0.503305
46 1 0.779324 0.418472 0.502079
77 1 0.862522 0.399774 0.499909
75 1 0.928507 0.390711 0.493164
11 1 0.0754957 0.456522 0.504019
63 1 0.0190218 0.555028 0.494689
67 1 0.181101 0.487523 0.499597
9 1 0.277536 0.540471 0.504089
16 1 0.430859 0.524956 0.499154
41 1 0.633811 0.455664 0.498605
5 1 0.735354 0.535641 0.508334
56 1 0.848835 0.484454 0.501629
37 1 0.942199 0.489055 0.497901
45 1 0.0799847 0.609191 0.498138
57 1 0.167433 0.582182 0.496895
3 1 0.577895 0.559013 0.498183
80 1 0.655488 0.631133 0.496398
7 1 0.875658 0.603065 0.497117
31 1 0.106757 0.723479 0.500863
50 1 0.197379 0.670932 0.49686
29 1 0.220226 0.774664 0.498055
28 1 0.301006 0.669219 0.498224
23 1 0.596704 0.713737 0.500595
68 1 0.693032 0.677869 0.497779
55 1 0.70347 0.756094 0.500155
43 1 0.776435 0.686502 0.500292
14 1 0.886007 0.758495 0.502144
21 1 0.979028 0.670301 0.504411
25 1 0.109192 0.850232 0.501248
49 1 0.0172591 0.779256 0.495196
48 1 0.29121 0.862608 0.505661
44 1 0.335975 0.782804 0.500824
8 1 0.422417 0.863237 0.495844
1 1 0.598713 0.852484 0.500932
26 1 0.77834 0.845645 0.504832
71 1 0.870863 0.86346 0.503282
24 1 0.205627 0.941204 0.49763
12 1 0.337296 0.983141 0.497897
17 1 0.494755 0.987486 0.500641
78 1 0.622925 0.962338 0.496693
47 1 0.707721 0.917038 0.504762
22 1 0.823466 0.95255 0.502434
ITEM: TIMESTEP
3000
ITEM: NUMBER OF ATOMS
67
ITEM: BOX BOUNDS pp pp pp
-4.8193349989499641e+00 4.8193349989499641e+00
-4.8525932137080003e+00 4.8525932137080003e+00
-1.0000000000000001e-01 1.0000000000000001e-01
ITEM: ATOMS id type xs ys zs
6 1 0.0920222 0.0374174 0.495841
59 1 0.215308 0.0482328 0.497485
79 1 0.545566 0.0862241 0.500325
42 1 0.594862 0.0309893 0.493965
15 1 0.704494 0.0413858 0.503254
35 1 0.840633 0.0814576 0.505108
34 1 0.953183 0.0515265 0.501122
13 1 0.0286853 0.181496 0.497544
27 1 0.158658 0.162639 0.5043
4 1 0.286395 0.129308 0.499204
20 1 0.6171 0.158902 0.504967
10 1 0.767926 0.202863 0.502311
53 1 0.914281 0.158015 0.49932
36 1 0.0753966 0.328827 0.498506
58 1 0.161443 0.261394 0.505726
18 1 0.281537 0.28008 0.495675
38 1 0.449933 0.327315 0.503945
30 1 0.561589 0.313059 0.501513
76 1 0.645375 0.262659 0.499124
33 1 0.713127 0.327416 0.500378
19 1 0.913393 0.287693 0.50355
39 1 0.189254 0.385543 0.507185
32 1 0.357463 0.404642 0.500382
40 1 0.526872 0.426842 0.498684
69 1 0.633225 0.369561 0.503326
73 1 0.709044 0.431187 0.503498
46 1 0.779842 0.417885 0.500395
77 1 0.862998 0.399427 0.499434
75 1 0.928517 0.391613 0.492872
11 1 0.0744548 0.456401 0.503643
63 1 0.0189773 0.5561 0.494768
67 1 0.179866 0.48752 0.497377
9 1 0.276603 0.54119 0.50429
16 1 0.430265 0.525492 0.50206
41 1 0.633858 0.455134 0.500238
5 1 0.734876 0.535212 0.508707
56 1 0.848592 0.483816 0.501855
37 1 0.941701 0.490611 0.499289
45 1 0.0794858 0.610318 0.498521
57 1 0.166233 0.582985 0.497458
3 1 0.577756 0.558559 0.497614
80 1 0.655449 0.631315 0.49801
7 1 0.874916 0.602834 0.495466
31 1 0.106518 0.723697 0.500952
50 1 0.197215 0.671055 0.496402
29 1 0.219714 0.775076 0.498785
28 1 0.301395 0.669887 0.498579
23 1 0.597149 0.71441 0.500769
68 1 0.693296 0.677784 0.498351
55 1 0.703262 0.755898 0.500227
43 1 0.776606 0.686661 0.499541
14 1 0.886051 0.759297 0.50083
21 1 0.978186 0.670014 0.505949
25 1 0.108058 0.850388 0.499918
49 1 0.0159137 0.778708 0.494422
48 1 0.290947 0.862809 0.507905
44 1 0.335796 0.783608 0.50045
8 1 0.422544 0.863171 0.496045
1 1 0.597831 0.853134 0.49841
26 1 0.77724 0.84629 0.505234
71 1 0.870429 0.864945 0.502493
24 1 0.204257 0.941605 0.498226
12 1 0.336949 0.982257 0.497441
17 1 0.494499 0.987408 0.500439
78 1 0.623831 0.96183 0.497413
47 1 0.706927 0.917337 0.502515
22 1 0.821805 0.953007 0.50148
ITEM: TIMESTEP
3250
ITEM: NUMBER OF ATOMS
67
ITEM: BOX BOUNDS pp pp pp
-4.8181270971296026e+00 4.8181270971296026e+00
-4.8537609570525273e+00 4.8537609570525273e+00
-1.0000000000000001e-01 1.0000000000000001e-01
ITEM: ATOMS id type xs ys zs
6 1 0.0933825 0.0372593 0.496849
59 1 0.215412 0.0485873 0.49718
79 1 0.545406 0.0863166 0.49991
42 1 0.59514 0.0316538 0.493896
15 1 0.704349 0.041419 0.501923
35 1 0.840792 0.0808466 0.502952
34 1 0.95371 0.0530756 0.501721
13 1 0.0285434 0.179934 0.496322
27 1 0.159207 0.162921 0.506358
4 1 0.287002 0.129456 0.499501
20 1 0.617204 0.158954 0.506374
10 1 0.768662 0.202477 0.502984
53 1 0.913506 0.15841 0.499839
36 1 0.074556 0.327971 0.499463
58 1 0.160425 0.261652 0.507552
18 1 0.280267 0.279115 0.495186
38 1 0.44962 0.328746 0.501719
30 1 0.56215 0.314381 0.501646
76 1 0.645508 0.262084 0.497011
33 1 0.713299 0.326519 0.500389
19 1 0.914219 0.287049 0.503431
39 1 0.189496 0.384184 0.506381
32 1 0.355965 0.403944 0.501033
40 1 0.52733 0.427597 0.498802
69 1 0.634351 0.369808 0.504345
73 1 0.708851 0.432463 0.506007
46 1 0.779029 0.418393 0.498989
77 1 0.862283 0.399814 0.499292
75 1 0.927617 0.390717 0.493097
11 1 0.0754979 0.455699 0.503247
63 1 0.0196335 0.554434 0.494447
67 1 0.181118 0.486504 0.497601
9 1 0.276914 0.540551 0.505233
16 1 0.430283 0.525017 0.502191
41 1 0.633898 0.45558 0.501238
5 1 0.735191 0.535452 0.508772
56 1 0.848256 0.483903 0.501479
37 1 0.941696 0.489412 0.499603
45 1 0.079078 0.609757 0.50013
57 1 0.166755 0.581949 0.498481
3 1 0.577792 0.558756 0.49716
80 1 0.65565 0.631961 0.497971
7 1 0.874862 0.602395 0.494917
31 1 0.107078 0.723214 0.499405
50 1 0.197681 0.670289 0.496038
29 1 0.220043 0.774959 0.497786
28 1 0.30185 0.669555 0.496902
23 1 0.597153 0.714614 0.500789
68 1 0.693374 0.678456 0.497751
55 1 0.703736 0.756368 0.497821
43 1 0.776427 0.686047 0.498491
14 1 0.88576 0.758785 0.501132
21 1 0.977937 0.669278 0.5079
25 1 0.108798 0.849999 0.50047
49 1 0.0170537 0.777492 0.492741
48 1 0.29076 0.8628 0.508089
44 1 0.335777 0.782915 0.499963
8 1 0.421987 0.863563 0.496376
1 1 0.597817 0.852458 0.496547
26 1 0.777366 0.846038 0.505004
71 1 0.870225 0.864179 0.501199
24 1 0.204455 0.941878 0.497735
12 1 0.336684 0.982564 0.499215
17 1 0.494389 0.987286 0.500763
78 1 0.623226 0.962285 0.496919
47 1 0.707004 0.91741 0.501914
22 1 0.821653 0.952746 0.501618
ITEM: TIMESTEP
3500
ITEM: NUMBER OF ATOMS
67
ITEM: BOX BOUNDS pp pp pp
-4.8169191953092412e+00 4.8169191953092412e+00
-4.8571089195086588e+00 4.8571089195086588e+00
-1.0000000000000001e-01 1.0000000000000001e-01
ITEM: ATOMS id type xs ys zs
6 1 0.0939066 0.0377081 0.496502
59 1 0.216832 0.0475207 0.496446
79 1 0.545814 0.0865822 0.502644
42 1 0.595407 0.0320174 0.495179
15 1 0.704785 0.0408606 0.500465
35 1 0.841187 0.0811723 0.503007
34 1 0.954228 0.0539676 0.501491
13 1 0.0285474 0.180539 0.49703
27 1 0.159347 0.162846 0.506936
4 1 0.287149 0.129486 0.49796
20 1 0.617737 0.158962 0.507294
10 1 0.768055 0.202523 0.504502
53 1 0.913728 0.158771 0.502375
36 1 0.075122 0.327829 0.500789
58 1 0.160583 0.261161 0.507898
18 1 0.280598 0.279374 0.495002
38 1 0.449324 0.328634 0.501105
30 1 0.56166 0.313436 0.500837
76 1 0.645533 0.262526 0.495974
33 1 0.713381 0.327109 0.500228
19 1 0.91367 0.28755 0.502272
39 1 0.18972 0.384068 0.507749
32 1 0.356421 0.404316 0.501454
40 1 0.527911 0.426509 0.498974
69 1 0.634304 0.369397 0.503683
73 1 0.708709 0.431891 0.504883
46 1 0.779254 0.418239 0.500373
77 1 0.863012 0.399687 0.496987
75 1 0.928488 0.391276 0.492264
11 1 0.0750367 0.455889 0.502427
63 1 0.0198386 0.554107 0.493857
67 1 0.180977 0.486695 0.498986
9 1 0.277023 0.541325 0.503834
16 1 0.430218 0.524236 0.502938
41 1 0.634258 0.455495 0.501292
5 1 0.735022 0.535807 0.509412
56 1 0.848293 0.483967 0.500986
37 1 0.941599 0.489765 0.499819
45 1 0.079125 0.609604 0.499787
57 1 0.1668 0.583046 0.499929
3 1 0.577145 0.558742 0.49577