LAMMPS (23 Jun 2022 - Update 4)
  using 1 OpenMP thread(s) per MPI task
# Compute elastic constant tensor for a crystal
#
# Written by Aidan Thompson (Sandia, athomps@sandia.gov)
#
#  This script uses the following three include files.
#
#   init.mod      (must be modified for different crystal structures)
# 	       	  Define units, deformation parameters and initial
#		  configuration of the atoms and simulation cell.
#
#
#   potential.mod    (must be modified for different pair styles)
# 		     Define pair style and other attributes
#		     not stored in restart file
#
#
#   displace.mod    (displace.mod should not need to be modified)
# 		    Perform positive and negative box displacements
# 		    in direction ${dir} and size ${up}.
# 		    It uses the resultant changes
#		    in stress to compute one
# 		    row of the elastic stiffness tensor
#
#		    Inputs variables:
#		    	   dir = the Voigt deformation component
#		    		    (1,2,3,4,5,6)
#		    Global constants:
#       	    	   up = the deformation magnitude (strain units)
#       		   cfac = conversion from LAMMPS pressure units to
#               	   output units for elastic constants
#
#
#  To run this on a different system, it should only be necessary to
#  modify the files init.mod and potential.mod. In order to calculate
#  the elastic constants correctly, care must be taken to specify
#  the correct units in init.mod (units, cfac and cunits). It is also
#  important to verify that the minimization of energy w.r.t atom
#  positions in the deformed cell is fully converged.
#  One indication of this is that the elastic constants are insensitive
#  to the choice of the variable ${up} in init.mod. Another is to check
#  the final max and two-norm forces reported in the log file. If you know
#  that minimization is not required, you can set maxiter = 0.0 in
#  init.mod.
#



variable dt equal 0.01
variable strain equal 0.05
variable srate equal 1e-4
variable M equal 1000 # averaging time for properties
variable strainsteps equal ${strain}/${dt}/${srate}
variable strainsteps equal 0.05/${dt}/${srate}
variable strainsteps equal 0.05/0.01/${srate}
variable strainsteps equal 0.05/0.01/0.0001


dimension 2
include init.mod
# NOTE: This script can be modified for different atomic structures,
# units, etc. See in.elastic for more info.
#

# Define the finite deformation size. Try several values of this
# variable to verify that results do not depend on it.
variable up equal 1.0e-1

# Define the amount of random jiggle for atoms
# This prevents atoms from staying on saddle points
variable atomjiggle equal 1.0e-6

# Uncomment one of these blocks, depending on what units
# you are using in LAMMPS and for output

# metal units, elastic constants in eV/A^3
#units		metal
#variable cfac equal 6.2414e-7
#variable cunits string eV/A^3

# Choose potential
# metal units, elastic constants in GPa
units		metal
atom_style	full
#pair_style      lj/cut 1.0
#pair_style      yukawa 1.0 2.0
#pair_modify     mix arithmetic
bond_style      harmonic
angle_style     harmonic
dihedral_style  zero
special_bonds   amber
variable cfac equal 1.0e-4
variable cunits string GPa
boundary	p p p

# Need to set mass to something, just to satisfy LAMMPS
#mass 1 1.0e-20
read_data network.lmp
Reading data file ...
  orthogonal box = (-4.831607 -4.831607 -0.1) to (4.831607 4.831607 0.1)
  1 by 1 by 1 MPI processor grid
WARNING: Atom style in data file differs from currently defined atom style (src/read_data.cpp:538)
  reading atoms ...
  67 atoms
WARNING: Bond style in data file differs from currently defined bond style (src/read_data.cpp:630)
  scanning bonds ...
  5 = max bonds/atom
  reading bonds ...
  150 bonds
Finding 1-2 1-3 1-4 neighbors ...
  special bond factors lj:    0        0        0.5     
  special bond factors coul:  0        0        0.8333333333333334
     9 = max # of 1-2 neighbors
    39 = max # of 1-3 neighbors
   216 = max # of 1-4 neighbors
    35 = max # of special neighbors
  special bonds CPU = 0.000 seconds
  read_data CPU = 0.003 seconds

# real units, elastic constants in GPa
#units		real
#variable cfac equal 1.01325e-4
#variable cunits string GPa

# Define minimization parameters
variable etol equal 0.0
variable ftol equal 5.0e-10
variable maxiter equal 100000
variable maxeval equal 20000
variable dmax equal 1.0e-2


include potential.mod
# NOTE: This script can be modified for different pair styles
# See in.elastic for more info.

# Setup neighbor style
neighbor 3.0 nsq
neigh_modify once no every 1 delay 0 check yes
comm_modify cutoff 2.0

# Setup minimization style
min_style	     cg
min_modify	     dmax ${dmax} line quadratic
min_modify	     dmax 0.01 line quadratic

timestep	0.001


# Setup output
thermo		500
thermo_style custom step temp pe ebond eangle edihed press pxx pyy pzz pxy pxz pyz lx ly lz vol
thermo_modify norm no


#change_box all triclinic
comm_modify mode single cutoff 10.0 vel yes
atom_modify sort 0 0



# Compute initial state

#dump rela all atom 1 traj_relax.lmpstrj
fix 3 all box/relax x 0 y 0 # xy 0  #MS comment: relax if the network is periodic
minimize ${etol} ${ftol} ${maxiter} ${maxeval}
minimize 0 ${ftol} ${maxiter} ${maxeval}
minimize 0 5e-10 ${maxiter} ${maxeval}
minimize 0 5e-10 100000 ${maxeval}
minimize 0 5e-10 100000 20000
Neighbor list info ...
  update every 1 steps, delay 0 steps, check yes
  max neighbors/atom: 2000, page size: 100000
  master list distance cutoff = 0
  ghost atom cutoff = 10
  0 neighbor lists, perpetual/occasional/extra = 0 0 0
WARNING: Inconsistent image flags (src/domain.cpp:819)
Per MPI rank memory allocation (min/avg/max) = 9.159 | 9.159 | 9.159 Mbytes
   Step          Temp          PotEng         E_bond        E_angle        E_dihed         Press           Pxx            Pyy            Pzz            Pxy            Pxz            Pyz             Lx             Ly             Lz           Volume    
         0   0              2.7328725e-11  2.7328725e-11  0              0             -0.16272139    -0.15140826    -0.17403452     0             -0.020320953    0              0              9.663214       9.663214       0.2            93.377705    
       460   0              1.061096e-14   1.061096e-14   0              0             -5.5637673e-07 -1.3055894e-06  1.9283589e-07  0              7.4569567e-07  0              0              9.6632146      9.6632147      0.2            93.377717    
Loop time of 0.0322712 on 1 procs for 460 steps with 67 atoms

100.0% CPU use with 1 MPI tasks x 1 OpenMP threads

Minimization stats:
  Stopping criterion = force tolerance
  Energy initial, next-to-last, final = 
    2.73287253806717e-11 1.06109927354068e-14 1.06109599416794e-14
  Force two-norm initial, final = 2.3743105e-05 4.6244121e-10
  Force max component initial, final = 1.0143042e-05 1.7510358e-10
  Final line search alpha, max atom move = 1 1.7510358e-10
  Iterations, force evaluations = 460 920

MPI task timing breakdown:
Section |  min time  |  avg time  |  max time  |%varavg| %total
---------------------------------------------------------------
Pair    | 0          | 0          | 0          |   0.0 |  0.00
Bond    | 0.0046042  | 0.0046042  | 0.0046042  |   0.0 | 14.27
Neigh   | 0          | 0          | 0          |   0.0 |  0.00
Comm    | 0.0095667  | 0.0095667  | 0.0095667  |   0.0 | 29.64
Output  | 0          | 0          | 0          |   0.0 |  0.00
Modify  | 0          | 0          | 0          |   0.0 |  0.00
Other   |            | 0.0181     |            |       | 56.09

Nlocal:             67 ave          67 max          67 min
Histogram: 1 0 0 0 0 0 0 0 0 0
Nghost:            557 ave         557 max         557 min
Histogram: 1 0 0 0 0 0 0 0 0 0
Neighs:              0 ave           0 max           0 min
Histogram: 1 0 0 0 0 0 0 0 0 0

Total # of neighbors = 0
Ave neighs/atom = 0
Ave special neighs/atom = 23.164179
Neighbor list builds = 0
Dangerous builds = 0
#dump rela all atom 1 traj_relax.lmpstrj
thermo 100
unfix 3

fix 2d all enforce2d



#dump dump0 all xyz 1000000 cfg0.xyz
#dump_modify dump0 format line "%d %20.10g %20.10g %20.10g"
#minimize ${etol} ${ftol} ${maxiter} ${maxeval}

#undump rela

#write_restart restart.equil

# These formulas define the derivatives w.r.t. strain components
# Constants uses $, variables use v_


timestep        ${dt}
timestep        0.01
variable nsteps equal round(${strainsteps})
variable nsteps equal round(50000)

fix             4 all nve
fix             5 all langevin 0.1 0.1 1 904297
#fix		6 all press/berendsen y  0.0 0.0 1 x 0.0 0.0 10
fix             6 all nph y 0.0 0.0 10 ptemp 0.1 # x 0.0 0.0 10

# For PLUMED2
# fix 22 all plumed plumedfile plumed.dat outfile plumed.out

#fix             6 all nph x 0.0 0.0 10
fix     	9 all deform 1 x erate -${srate} units box remap x
fix     	9 all deform 1 x erate -0.0001 units box remap x

#fix     8 all deform 1 xy erate ${srate} units box remap x



#fix    10 all ave/time

dump 1 all atom 250 deform_dump.lammpstrj


#To avoid flying ice cube phenomenon:
#fix 21 all momentum 100 linear 1 1 1 angular


run  ${nsteps}
run  50000
WARNING: One or more atoms are time integrated more than once (src/modify.cpp:292)
WARNING: Inconsistent image flags (src/domain.cpp:819)
Per MPI rank memory allocation (min/avg/max) = 8.034 | 8.034 | 8.034 Mbytes
   Step          Temp          PotEng         E_bond        E_angle        E_dihed         Press           Pxx            Pyy            Pzz            Pxy            Pxz            Pyz             Lx             Ly             Lz           Volume    
       460   0              1.061096e-14   1.061096e-14   0              0             -5.5637673e-07 -1.3055894e-06  1.9283589e-07  0              7.4569567e-07  0              0              9.6632146      9.6632147      0.2            93.377717    
       500   0.15108027     0.00053108068  0.00053108068  0              0             -89.471565     -200.60955      21.479242      0             -145.20829      0              0              9.662828       9.6636547      0.2            93.378233    
       600   0.2297337      0.001079655    0.001079655    0              0             -224.01103     -478.47684      30.284606      0              334.12956      0              0              9.6618617      9.6700469      0.2            93.430656    
       700   0.16352756     0.0013082142   0.0013082142   0              0              328.97616      529.6876       128.09561      0             -768.89741      0              0              9.6608954      9.6738548      0.2            93.4581      
       800   0.22168892     0.0011282416   0.0011282416   0              0              205.28539      370.01595      40.34719       0             -754.0656       0              0              9.6599291      9.6720279      0.2            93.431103    
       900   0.23493886     0.001225697    0.001225697    0              0              264.44921      647.80182     -119.12105      0              154.87004      0              0              9.6589627      9.6689149      0.2            93.391689    
      1000   0.19815608     0.0012228133   0.0012228133   0              0             -113.70544     -14.097        -213.50823      0             -601.15184      0              0              9.6579964      9.6706973      0.2            93.39956     
      1100   0.23975537     0.001187192    0.001187192    0              0             -2.2000845      199.16653     -203.8065       0              212.04261      0              0              9.6570301      9.6615925      0.2            93.30229     
      1200   0.18164739     0.0012140669   0.0012140669   0              0              469.31693      1167.1016     -228.6401       0             -42.862544      0              0              9.6560638      9.6637393      0.2            93.313684    
      1300   0.18307181     0.0010605533   0.0010605533   0              0              390.23104      915.17887     -134.90206      0             -472.42328      0              0              9.6550975      9.6660479      0.2            93.326635    
      1400   0.18695028     0.0010956386   0.0010956386   0              0              438.80312      766.89226      110.50958      0              295.79362      0              0              9.6541311      9.6618069      0.2            93.27635     
      1500   0.24252255     0.0010820289   0.0010820289   0              0              273.07751      335.39349      210.55254      0             -347.43209      0              0              9.6531648      9.6678215      0.2            93.325074    
      1600   0.20809313     0.0010619177   0.0010619177   0              0              822.01756      1361.3084      282.52826      0             -219.61597      0              0              9.6521985      9.6624106      0.2            93.263505    
      1700   0.24864428     0.00098576372  0.00098576372  0              0              746.51792      1214.3996      278.41531      0             -333.8429       0              0              9.6512322      9.6726869      0.2            93.353347    
      1800   0.17632229     0.0012405291   0.0012405291   0              0              762.90418      1213.034       312.57002      0              470.95791      0              0              9.6502659      9.6747901      0.2            93.364297    
      1900   0.18709445     0.0013129762   0.0013129762   0              0              1144.4928      1901.7994      387.01161      0              118.5066       0              0              9.6492995      9.6767788      0.2            93.374137    
      2000   0.20067997     0.0010127539   0.0010127539   0              0              981.66476      1542.082       421.09442      0             -359.52763      0              0              9.6483332      9.6818655      0.2            93.413864    
      2100   0.23940568     0.0010673524   0.0010673524   0              0              875.16147      1246.0562      504.08794      0             -115.69617      0              0              9.6473669      9.680512       0.2            93.391451    
      2200   0.20290602     0.0011983752   0.0011983752   0              0              1234.1946      1831.6283      636.54926      0             -188.55141      0              0              9.6464006      9.6771921      0.2            93.350071    
      2300   0.25079903     0.0011862471   0.0011862471   0              0              906.72537      1053.8529      759.3957       0             -217.87368      0              0              9.6454342      9.6808517      0.2            93.376019    
      2400   0.21549998     0.0011493375   0.0011493375   0              0              815.02817      914.44296      715.39387      0              204.45137      0              0              9.6444679      9.6895691      0.2            93.450738    
      2500   0.17483859     0.0010322148   0.0010322148   0              0              518.14462      512.34207      523.77432      0             -8.8225133      0              0              9.6435016      9.7029742      0.2            93.570648    
      2600   0.23105648     0.0010051678   0.0010051678   0              0              131.07877      96.16323       165.79753      0             -120.56248      0              0              9.6425353      9.7031104      0.2            93.562584    
      2700   0.23956798     0.0014597226   0.0014597226   0              0             -416.46216     -666.79181     -166.33719      0             -217.63213      0              0              9.641569       9.705095       0.2            93.572343    
      2800   0.21658895     0.0010245347   0.0010245347   0              0             -101.77243      470.12128     -673.86582      0             -563.25935      0              0              9.6406026      9.7023417      0.2            93.536421    
      2900   0.21491308     0.001211129    0.001211129    0              0              240.41264      1507.5087     -1026.8787      0             -532.05672      0              0              9.6396363      9.7074602      0.2            93.576386    
      3000   0.23299564     0.0013047804   0.0013047804   0              0             -249.59532      693.9933      -1193.3694      0              442.91017      0              0              9.63867        9.7051864      0.2            93.545089    
      3100   0.11683513     0.00090145698  0.00090145698  0              0              315.8273       1815.964      -1184.5243      0              349.49311      0              0              9.6377037      9.7082877      0.2            93.5656      
      3200   0.19193259     0.0010805587   0.0010805587   0              0              189.34982      1344.3242     -965.80254      0             -784.28795      0              0              9.6367374      9.709844       0.2            93.571216    
      3300   0.14645435     0.0009444734   0.0009444734   0              0              234.17631      1128.083      -659.92735      0             -639.70696      0              0              9.635771       9.713457       0.2            93.596647    
      3400   0.26263993     0.0012042833   0.0012042833   0              0              57.201471      477.73353     -363.53289      0             -542.82953      0              0              9.6348047      9.7180564      0.2            93.631576    
      3500   0.19677615     0.0012289321   0.0012289321   0              0              525.67199      1096.3106     -45.147478      0             -445.44852      0              0              9.6338384      9.7142178      0.2            93.585205    
      3600   0.19824944     0.0013764459   0.0013764459   0              0              710.70056      1116.5757      304.64747      0              407.31463      0              0              9.6328721      9.7102508      0.2            93.537604    
      3700   0.2484018      0.0011311558   0.0011311558   0              0              735.26593      952.67159      517.66521      0              193.88112      0              0              9.6319057      9.7099972      0.2            93.525778    
      3800   0.2218169      0.0011355908   0.0011355908   0              0              1219.6323      1715.5894      723.48993      0              252.52393      0              0              9.6309394      9.7027959      0.2            93.447039    
      3900   0.21602495     0.0012243826   0.0012243826   0              0              1381.8007      1974.7451      788.67334      0              85.55718       0              0              9.6299731      9.7044824      0.2            93.453904    
      4000   0.21464449     0.001276235    0.001276235    0              0              1096.478       1322.4143      870.34543      0              895.2588       0              0              9.6290068      9.6989922      0.2            93.391661    
      4100   0.20447598     0.0011059142   0.0011059142   0              0              957.05022      1292.4622      621.45854      0              166.50292      0              0              9.6280405      9.7086084      0.2            93.474875    
      4200   0.19320926     0.0013773798   0.0013773798   0              0              1638.9918      2846.1244      431.66394      0             -201.47858      0              0              9.6270741      9.7100709      0.2            93.479572    
      4300   0.20952402     0.0014120513   0.0014120513   0              0              928.27334      1664.2143      192.10685      0              160.33485      0              0              9.6261078      9.7113207      0.2            93.482221    
      4400   0.22313799     0.0013392318   0.0013392318   0              0              276.25861      485.35716      66.986369      0             -13.906013      0              0              9.6251415      9.7038376      0.2            93.40081     
      4500   0.20931946     0.0014221298   0.0014221298   0              0              963.58895      1981.6604     -54.701794      0             -63.790236      0              0              9.6241752      9.6987399      0.2            93.342371    
      4600   0.2137306      0.0011571768   0.0011571768   0              0              656.88518      1613.9309     -300.37408      0             -617.17146      0              0              9.6232089      9.701279       0.2            93.357434    
      4700   0.2049881      0.001231035    0.001231035    0              0              631.18606      1853.7248     -591.57567      0             -448.64817      0              0              9.6222425      9.6957193      0.2            93.294563    
      4800   0.20451598     0.0013529788   0.0013529788   0              0              493.00405      1659.6669     -673.87685      0             -50.773371      0              0              9.6212762      9.6925329      0.2            93.254536    
      4900   0.23595848     0.0014485274   0.0014485274   0              0              681.67781      2150.5653     -787.36696      0             -631.48928      0              0              9.6203099      9.7002964      0.2            93.319858    
      5000   0.22303395     0.0015364502   0.0015364502   0              0              1064.8146      2901.2151     -771.77165      0             -397.29894      0              0              9.6193436      9.6958763      0.2            93.267965    
      5100   0.21372174     0.0015401578   0.0015401578   0              0              717.83689      2100.7052     -665.26279      0             -744.65721      0              0              9.6183772      9.701529       0.2            93.312966    
      5200   0.23261432     0.0017053073   0.0017053073   0              0              713.09152      1972.6314     -546.62618      0             -318.27849      0              0              9.6174109      9.6951767      0.2            93.242499    
      5300   0.1990565      0.0014043998   0.0014043998   0              0              1208.2449      2778.5998     -362.32728      0             -119.48488      0              0              9.6164446      9.6921404      0.2            93.203932    
      5400   0.2222341      0.0013459553   0.0013459553   0              0              1290.5451      2846.685      -265.79964      0             -39.090616      0              0              9.6154783      9.7030729      0.2            93.299687    
      5500   0.17594504     0.0013363683   0.0013363683   0              0              1032.192       2005.675       58.527527      0             -233.42748      0              0              9.614512       9.6972249      0.2            93.234085    
      5600   0.17298818     0.0014492235   0.0014492235   0              0              1823.2998      3388.9032      257.49504      0              144.60046      0              0              9.6135456      9.6993704      0.2            93.24534     
      5700   0.20127658     0.0013667629   0.0013667629   0              0              1955.7573      3555.3105      356.02505      0              246.00229      0              0              9.6125793      9.705017       0.2            93.290246    
      5800   0.18801976     0.0016276294   0.0016276294   0              0              2038.3395      3479.046       597.41724      0              423.84959      0              0              9.611613       9.7050963      0.2            93.28163     
      5900   0.20034551     0.0015804268   0.0015804268   0              0              1752.5277      2754.4471      750.35319      0              424.04851      0              0              9.6106467      9.7063232      0.2            93.284042    
      6000   0.2185281      0.001449858    0.001449858    0              0              1832.0287      2895.9334      767.91266      0              524.33745      0              0              9.6096804      9.6975475      0.2            93.190331    
      6100   0.19096895     0.0014073692   0.0014073692   0              0              1897.8087      3056.0581      739.37381      0              693.16162      0              0              9.608714       9.6960096      0.2            93.166184    
      6200   0.19491113     0.001618525    0.001618525    0              0              1860.2101      3159.2556      560.96506      0              212.50604      0              0              9.6077477      9.7007614      0.2            93.202468    
      6300   0.20113556     0.0017790826   0.0017790826   0              0              1947.278       3543.7124      350.64841      0              721.58738      0              0              9.6067814      9.7019524      0.2            93.204536    
      6400   0.19601107     0.0014785761   0.0014785761   0              0              1225.9057      2343.0449      108.55397      0              57.619247      0              0              9.6058151      9.702359       0.2            93.199067    
      6500   0.20672635     0.001457598    0.001457598    0              0              1569.5864      3200.7561     -61.721368      0             -301.96023      0              0              9.6048487      9.7053869      0.2            93.218773    
      6600   0.16749952     0.0016371095   0.0016371095   0              0              1651.9818      3477.3491     -173.58573      0              479.09974      0              0              9.6038824      9.7048485      0.2            93.204224    
      6700   0.16718799     0.0014475859   0.0014475859   0              0              1848.8993      3992.2942     -294.70402      0              237.54735      0              0              9.6029161      9.7098804      0.2            93.243167    
      6800   0.20565101     0.0016370236   0.0016370236   0              0              1475.5266      3352.4058     -401.53734      0              822.69937      0              0              9.6019498      9.7016602      0.2            93.154854    
      6900   0.21501985     0.0013473811   0.0013473811   0              0              1498.3115      3337.3027     -340.83072      0              174.11827      0              0              9.6009835      9.7056751      0.2            93.184026    
      7000   0.16073599     0.0016561829   0.0016561829   0              0              744.71431      1811.8001     -322.55655      0             -325.7676       0              0              9.6000171      9.7161507      0.2            93.275213    
      7100   0.20158886     0.0014952043   0.0014952043   0              0              1327.6601      2834.5313     -179.40724      0              97.419889      0              0              9.5990508      9.7163478      0.2            93.267717    
      7200   0.20569812     0.0015447582   0.0015447582   0              0              2226.7091      4513.4879     -60.254882      0             -425.49106      0              0              9.5980845      9.7200619      0.2            93.293975    
      7300   0.17569072     0.0017816232   0.0017816232   0              0              1929.2484      3732.6989      125.62012      0             -827.15073      0              0              9.5971182      9.7244733      0.2            93.326919    
      7400   0.22776679     0.0016964261   0.0016964261   0              0              1786.2382      3271.8219      300.41301      0             -497.72724      0              0              9.5961519      9.7287292      0.2            93.358363    
      7500   0.24610744     0.0015331283   0.0015331283   0              0              961.09804      1636.0164      285.97193      0              134.309        0              0              9.5951855      9.7202852      0.2            93.26794     
      7600   0.2983059      0.0019165551   0.0019165551   0              0              1396.0608      2518.8503      273.07514      0             -155.99866      0              0              9.5942192      9.7279221      0.2            93.331817    
      7700   0.21510469     0.001686511    0.001686511    0              0              1626.7592      2976.3376      276.9483       0             -93.728151      0              0              9.5932529      9.7249458      0.2            93.293865    
      7800   0.2047232      0.0017162862   0.0017162862   0              0              1708.25        3309.2834      107.02522      0             -472.58986      0              0              9.5922866      9.7319711      0.2            93.351856    
      7900   0.27323828     0.0017226769   0.0017226769   0              0              1266.397       2615.3416     -82.699275      0             -53.130811      0              0              9.5913202      9.7282995      0.2            93.307236    
      8000   0.2260753      0.0020375647   0.0020375647   0              0              1107.7047      2415.094      -199.92042      0              246.43717      0              0              9.5903539      9.7353172      0.2            93.365138    
      8100   0.23242593     0.0016663975   0.0016663975   0              0              1453.8941      3256.8226     -349.21398      0              81.730274      0              0              9.5893876      9.7417438      0.2            93.417358    
      8200   0.24711531     0.0016691386   0.0016691386   0              0              1169.1873      2832.3065     -494.14368      0             -463.19617      0              0              9.5884213      9.7428702      0.2            93.418743    
      8300   0.18366926     0.0017739768   0.0017739768   0              0              1139.7857      2789.6946     -510.32688      0              405.47401      0              0              9.587455       9.7446353      0.2            93.426252    
      8400   0.1997389      0.0016516671   0.0016516671   0              0              1243.8703      2752.421      -264.87492      0             -320.72675      0              0              9.5864886      9.7482954      0.2            93.451923    
      8500   0.20447355     0.0018677957   0.0018677957   0              0              1719.8351      3394.5957      44.905871      0              358.98636      0              0              9.5855223      9.7556747      0.2            93.513237    
      8600   0.18238778     0.0018112298   0.0018112298   0              0              1408.3234      2670.5504      145.89425      0              203.8906       0              0              9.584556       9.7467604      0.2            93.418371    
      8700   0.22197707     0.0016086552   0.0016086552   0              0              1108.7885      1951.0534      266.32153      0              366.51961      0              0              9.5835897      9.7440179      0.2            93.38267     
      8800   0.17671082     0.0020240496   0.0020240496   0              0              2269.3066      4070.2389      468.14787      0              979.69565      0              0              9.5826234      9.7423981      0.2            93.357731    
      8900   0.22366593     0.0019881151   0.0019881151   0              0              1859.7493      3198.016       521.26768      0              437.55375      0              0              9.581657       9.7401946      0.2            93.327204    
      9000   0.25582022     0.0016041865   0.0016041865   0              0              2049.1477      3818.9779      279.14403      0             -128.00758      0              0              9.5806907      9.7439639      0.2            93.353904    
      9100   0.1945748      0.0018081002   0.0018081002   0              0              1969.6914      3998.3406     -59.18325       0             -2.1274055      0              0              9.5797244      9.753269       0.2            93.433628    
      9200   0.18750581     0.0017339664   0.0017339664   0              0              1318.3714      3016.6329     -380.09887      0             -136.85968      0              0              9.5787581      9.7517215      0.2            93.409381    
      9300   0.24201294     0.0014992752   0.0014992752   0              0              1442.7695      3359.593      -474.233        0             -353.39986      0              0              9.5777917      9.7585932      0.2            93.465773    
      9400   0.19798747     0.0018596485   0.0018596485   0              0              1506.1472      3604.8652     -592.77692      0              23.813042      0              0              9.5768254      9.7576161      0.2            93.446986    
      9500   0.23326055     0.0015033389   0.0015033389   0              0              997.31775      2558.3826     -563.96149      0             -21.631974      0              0              9.5758591      9.7569362      0.2            93.431046    
      9600   0.18676072     0.0018264401   0.0018264401   0              0              1503.7994      3222.8726     -215.45971      0             -713.57192      0              0              9.5748928      9.7581402      0.2            93.433146    
      9700   0.23325531     0.0019205353   0.0019205353   0              0              1522.5556      2769.9087      275.00718      0              29.539032      0              0              9.5739265      9.7487001      0.2            93.333338    
      9800   0.19875494     0.0017021558   0.0017021558   0              0              1964.9287      3193.439       736.20609      0             -227.63218      0              0              9.5729601      9.7448104      0.2            93.286681    
      9900   0.24254742     0.0018857386   0.0018857386   0              0              2086.7323      3085.8281      1087.4417      0              202.58848      0              0              9.5719938      9.7496694      0.2            93.323776    
     10000   0.2020992      0.0017537782   0.0017537782   0              0              2229.9266      3389.925       1069.7237      0              642.97109      0              0              9.5710275      9.7452195      0.2            93.271764    
     10100   0.17515542     0.0018124958   0.0018124958   0              0              1934.7858      3255.5151      613.86222      0              397.92218      0              0              9.5700612      9.749257       0.2            93.300986    
     10200   0.18964634     0.0019922795   0.0019922795   0              0              1603.5604      3172.937       33.954596      0             -186.48463      0              0              9.5690949      9.7492374      0.2            93.291378    
     10300   0.23934373     0.0016920255   0.0016920255   0              0              1412.9058      3490.8335     -665.20118      0             -43.592905      0              0              9.5681285      9.7474058      0.2            93.264432    
     10400   0.20528522     0.0017239044   0.0017239044   0              0              1062.5327      3352.6804     -1227.8103      0              108.97642      0              0              9.5671622      9.754663       0.2            93.324444    
     10500   0.18626561     0.0017138484   0.0017138484   0              0              1124.8364      3700.3065     -1450.8672      0             -346.62113      0              0              9.5661959      9.7568541      0.2            93.335977    
     10600   0.23739213     0.0017861024   0.0017861024   0              0              860.61021      3076.7585     -1355.744       0              538.27018      0              0              9.5652296      9.7571522      0.2            93.3294      
     10700   0.21113743     0.0019069679   0.0019069679   0              0              1242.4918      3282.5592     -797.79981      0              216.92348      0              0              9.5642632      9.7546774      0.2            93.296302    
     10800   0.21454218     0.0017268495   0.0017268495   0              0              1068.7113      2175.163      -37.977047      0              677.33861      0              0              9.5632969      9.7479379      0.2            93.222425    
     10900   0.21109364     0.0018268616   0.0018268616   0              0              1911.4442      3354.414       468.26432      0              130.11993      0              0              9.5623306      9.7416922      0.2            93.153281    
     11000   0.19111427     0.0017923139   0.0017923139   0              0              2310.5675      3698.2772      922.62678      0             -93.455364      0              0              9.5613643      9.7442485      0.2            93.16831     
     11100   0.17941091     0.0020246715   0.0020246715   0              0              2382.0612      3631.0912      1132.8689      0             -124.83621      0              0              9.560398       9.7408446      0.2            93.126351    
     11200   0.18703999     0.0019154432   0.0019154432   0              0              2572.6718      4156.3594      988.76032      0             -277.5934       0              0              9.5594316      9.7462705      0.2            93.168807    
     11300   0.18916314     0.00216565     0.00216565     0              0              2305.5652      4002.6957      608.23942      0              50.4882        0              0              9.5584653      9.7502547      0.2            93.197471    
     11400   0.24337144     0.0017703501   0.0017703501   0              0              1944.6543      3643.0903      246.04575      0              147.81459      0              0              9.557499       9.7484641      0.2            93.170936    
     11500   0.14715985     0.0019991257   0.0019991257   0              0              1846.095       3793.4022     -101.42         0              268.15849      0              0              9.5565327      9.7375268      0.2            93.056993    
     11600   0.20883675     0.0019352532   0.0019352532   0              0              1570.9381      3564.2378     -422.52945      0             -99.486356      0              0              9.5555664      9.7449859      0.2            93.11886     
     11700   0.16516463     0.0020161817   0.0020161817   0              0              1417.3855      3504.3706     -669.81738      0             -196.15831      0              0              9.5546         9.7458484      0.2            93.117683    
     11800   0.17705568     0.0017860243   0.0017860243   0              0              1793.2579      4119.5798     -533.25954      0             -391.59222      0              0              9.5536337      9.7474247      0.2            93.123325    
     11900   0.14465346     0.0019210701   0.0019210701   0              0              1221.0771      2739.9427     -297.99248      0              6.7545366      0              0              9.5526674      9.7510401      0.2            93.148443    
     12000   0.21255738     0.0017973457   0.0017973457   0              0              2258.2404      4571.9132     -55.663052      0              249.71944      0              0              9.5517011      9.7521477      0.2            93.1496      
     12100   0.18661326     0.0019517059   0.0019517059   0              0              1642.3143      3184.2654      100.16474      0             -337.19609      0              0              9.5507347      9.7553954      0.2            93.171194    
     12200   0.20828612     0.0018192284   0.0018192284   0              0              1564.7541      2887.0303      242.30469      0              202.17147      0              0              9.5497684      9.7544707      0.2            93.152936    
     12300   0.17409229     0.0019092625   0.0019092625   0              0              1919.3471      3467.0384      371.45436      0             -169.61492      0              0              9.5488021      9.7483672      0.2            93.085229    
     12400   0.19456186     0.00176926     0.00176926     0              0              2127.4783      3872.1339      382.60408      0              104.94108      0              0              9.5478358      9.7427994      0.2            93.022649    
     12500   0.22613579     0.002048335    0.002048335    0              0              2050.346       3795.6065      304.89099      0              434.62611      0              0              9.5468695      9.7474937      0.2            93.05805     
     12600   0.21294704     0.0021903311   0.0021903311   0              0              1935.0166      3827.4715      42.361557      0              538.93662      0              0              9.5459031      9.7468166      0.2            93.042167    
     12700   0.18673956     0.0019331101   0.0019331101   0              0              1668.1531      3604.2333     -268.11533      0              338.28541      0              0              9.5449368      9.7534788      0.2            93.096339    
     12800   0.18772059     0.0024162179   0.0024162179   0              0              1557.5352      3364.3063     -249.45656      0              590.50102      0              0              9.5439705      9.7490493      0.2            93.044639    
     12900   0.22197835     0.0023685165   0.0023685165   0              0              1436.8762      3057.5032     -183.9291       0              760.93847      0              0              9.5430042      9.7507882      0.2            93.051812    
     13000   0.20516223     0.0021666053   0.0021666053   0              0              1714.4654      3531.8434     -103.1314       0              361.04754      0              0              9.5420379      9.7537433      0.2            93.070587    
     13100   0.25083655     0.002128153    0.002128153    0              0              2091.5765      4078.8264      104.09712      0              716.02454      0              0              9.5410715      9.7575855      0.2            93.097821    
     13200   0.25052592     0.0025146128   0.0025146128   0              0              2067.8906      3779.5036      356.05888      0              729.71024      0              0              9.5401052      9.7624087      0.2            93.134406    
     13300   0.24869317     0.00204758     0.00204758     0              0              2516.6723      4731.8422      301.28605      0              826.25084      0              0              9.5391389      9.7567925      0.2            93.071399    
     13400   0.23614193     0.0020575423   0.0020575423   0              0              2322.8507      4376.0757      269.44977      0             -122.6121       0              0              9.5381726      9.7581522      0.2            93.074939    
     13500   0.21136606     0.0021212548   0.0021212548   0              0              2686.1362      5167.8311      204.20956      0             -150.47535      0              0              9.5372062      9.7544253      0.2            93.029966    
     13600   0.22289984     0.002148479    0.002148479    0              0              1390.6121      2725.6886      55.330734      0              215.4917       0              0              9.5362399      9.7620969      0.2            93.093699    
     13700   0.2128421      0.0022147153   0.0022147153   0              0              2125.0202      4420.3874     -170.55479      0              139.76481      0              0              9.5352736      9.7612523      0.2            93.076211    
     13800   0.18075825     0.0021948861   0.0021948861   0              0              1624.7345      3751.0009     -501.75561      0              128.74268      0              0              9.5343073      9.7661745      0.2            93.113708    
     13900   0.18915331     0.0025415431   0.0025415431   0              0              1456.7902      3469.9741     -556.56058      0              66.381649      0              0              9.533341       9.7739893      0.2            93.178772    
     14000   0.19862211     0.0024869766   0.0024869766   0              0              1768.3839      3968.6287     -432.07091      0             -96.006232      0              0              9.5323746      9.7717328      0.2            93.147818    
     14100   0.22693592     0.0021931487   0.0021931487   0              0              1316.3797      2814.8793     -182.34365      0              335.77621      0              0              9.5314083      9.7701982      0.2            93.123748    
     14200   0.16913333     0.0022057327   0.0022057327   0              0              1894.3759      3845.4518     -56.922968      0              162.40535      0              0              9.530442       9.7703574      0.2            93.115825    
     14300   0.20297605     0.0022215098   0.0022215098   0              0              2623.5233      4901.8951      344.9575       0             -52.933478      0              0              9.5294757      9.7706781      0.2            93.109439    
     14400   0.24583914     0.002380732    0.002380732    0              0              2108.5967      3795.0469      422.00535      0             -107.72379      0              0              9.5285094      9.7763651      0.2            93.154186    
     14500   0.22174306     0.0023652164   0.0023652164   0              0              2239.9312      4080.9547      398.68514      0              40.023871      0              0              9.527543       9.77872        0.2            93.167175    
     14600   0.2520795      0.0023020257   0.0023020257   0              0              1686.2866      3129.6513      242.69508      0             -397.08298      0              0              9.5265767      9.7858773      0.2            93.225911    
     14700   0.22291353     0.0023584947   0.0023584947   0              0              2296.5358      4498.0659      94.823934      0              105.26747      0              0              9.5256104      9.7829533      0.2            93.188601    
     14800   0.22027273     0.0022399953   0.0022399953   0              0              1686.3125      3564.8117     -192.37708      0              275.81876      0              0              9.5246441      9.7828632      0.2            93.17829     
     14900   0.19675854     0.0021847701   0.0021847701   0              0              1784.0179      3971.7748     -403.90897      0              544.71714      0              0              9.5236777      9.7811292      0.2            93.152322    
     15000   0.21581339     0.0022327881   0.0022327881   0              0              1406.5842      3353.9844     -541.0451       0              460.24201      0              0              9.5227114      9.7864154      0.2            93.19321     
     15100   0.19775572     0.0022246381   0.0022246381   0              0              1439.03        3258.7824     -380.92592      0              237.66538      0              0              9.5217451      9.7843661      0.2            93.16424     
     15200   0.2194498      0.0024902263   0.0024902263   0              0              1715.9463      3539.4212     -107.74092      0              99.110576      0              0              9.5207788      9.7925186      0.2            93.232403    
     15300   0.23740266     0.0024288767   0.0024288767   0              0              1786.7412      3203.6878      369.60582      0              953.86236      0              0              9.5198125      9.7843338      0.2            93.145023    
     15400   0.20895636     0.0023427621   0.0023427621   0              0              2126.572       3532.1062      720.81913      0              387.75101      0              0              9.5188461      9.7806773      0.2            93.100762    
     15500   0.24617685     0.0022362467   0.0022362467   0              0              2289.7705      3953.4833      625.83999      0              92.650875      0              0              9.5178798      9.7862219      0.2            93.144084    
     15600   0.26079741     0.0023144063   0.0023144063   0              0              1508.1024      2798.2177      217.74937      0              385.66959      0              0              9.5169135      9.7846833      0.2            93.119985    
     15700   0.19947666     0.0022627249   0.0022627249   0              0              1270.634       2982.0035     -440.97002      0              368.43823      0              0              9.5159472      9.788632       0.2            93.148105    
     15800   0.20498622     0.0024004761   0.0024004761   0              0              852.75917      2575.5164     -870.18448      0              673.9716       0              0              9.5149809      9.7890163      0.2            93.142302    
     15900   0.22189906     0.0025345283   0.0025345283   0              0              1157.5949      3236.4879     -921.5021       0              182.74242      0              0              9.5140145      9.7906371      0.2            93.148264    
     16000   0.21391616     0.0024167832   0.0024167832   0              0              999.2739       2357.3776     -359.02417      0             -214.48285      0              0              9.5130482      9.7900061      0.2            93.1328      
     16100   0.21596203     0.0025548801   0.0025548801   0              0              2105.4057      3752.5656      458.05932      0              272.41599      0              0              9.5120819      9.7828613      0.2            93.055378    
     16200   0.23948243     0.0025699364   0.0025699364   0              0              2402.3105      3729.3655      1075.0693      0             -576.04449      0              0              9.5111156      9.7780276      0.2            92.999951    
     16300   0.2164528      0.0023797567   0.0023797567   0              0              2899.6854      4731.9614      1067.2037      0             -108.32595      0              0              9.5101492      9.782539       0.2            93.033406    
     16400   0.21667715     0.0023989018   0.0023989018   0              0              2012.3711      3462.2997      562.24987      0             -668.09914      0              0              9.5091829      9.7872413      0.2            93.068668    
     16500   0.23460989     0.0026673282   0.0026673282   0              0              1964.2932      4162.6946     -234.28062      0             -146.75651      0              0              9.5082166      9.7881776      0.2            93.068112    
     16600   0.1991424      0.0027012986   0.0027012986   0              0              1654.1268      4023.2798     -715.2327       0              246.12559      0              0              9.5072503      9.7921927      0.2            93.096827    
     16700   0.22654768     0.0024002682   0.0024002682   0              0              914.37171      2790.8313     -962.28875      0              162.42415      0              0              9.506284       9.7889368      0.2            93.056412    
     16800   0.21623535     0.0025142921   0.0025142921   0              0              1248.8063      3228.498      -731.10154      0             -3.5008448      0              0              9.5053176      9.7901126      0.2            93.05813     
     16900   0.21751101     0.0023236288   0.0023236288   0              0              2431.1355      5107.3913     -245.34907      0              242.97634      0              0              9.5043513      9.7814822      0.2            92.966643    
     17000   0.2168413      0.0022879618   0.0022879618   0              0              2444.6527      4511.1792      377.90871      0              371.24999      0              0              9.503385       9.7818654      0.2            92.960833    
     17100   0.23028055     0.0025614371   0.0025614371   0              0              2226.6637      3643.204       809.9315       0             -328.44733      0              0              9.5024187      9.7862386      0.2            92.992936    
     17200   0.22510469     0.0027130039   0.0027130039   0              0              2373.7785      3884.1148      863.25398      0              114.8656       0              0              9.5014524      9.7887815      0.2            93.007641    
     17300   0.19863635     0.0028794939   0.0028794939   0              0              2475.4951      4368.424       582.40675      0              1074.3525      0              0              9.500486       9.7864649      0.2            92.976173    
     17400   0.22240885     0.0027261614   0.0027261614   0              0              1982.5378      4205.832      -240.92791      0             -92.801503      0              0              9.4995197      9.7934561      0.2            93.033129    
     17500   0.22325385     0.0028286127   0.0028286127   0              0              1834.3711      4505.3481     -836.79674      0              40.182744      0              0              9.4985534      9.7944336      0.2            93.03295     
     17600   0.20209708     0.0028693171   0.0028693171   0              0              1515.7257      4090.7579     -1059.4911      0             -222.64531      0              0              9.4975871      9.7995417      0.2            93.072001    
     17700   0.26012957     0.0024905691   0.0024905691   0              0              1270.4834      3333.7243     -792.97847      0              616.93832      0              0              9.4966207      9.7935355      0.2            93.005492    
     17800   0.19524732     0.0026589066   0.0026589066   0              0              1865.0599      3885.0992     -155.15983      0             -123.62211      0              0              9.4956544      9.7918054      0.2            92.9796      
     17900   0.1926436      0.0027962914   0.0027962914   0              0              2021.9941      3599.2175      444.56454      0             -288.90612      0              0              9.4946881      9.796235       0.2            93.012196    
     18000   0.23402148     0.0026717376   0.0026717376   0              0              2505.6729      4181.55        829.62364      0             -393.73459      0              0              9.4937218      9.7921236      0.2            92.963697    
     18100   0.17996338     0.002756105    0.002756105    0              0              3251.3101      5693.7527      808.6419       0              448.8612       0              0              9.4927555      9.7783903      0.2            92.823868    
     18200   0.20689077     0.0025859317   0.0025859317   0              0              2331.0025      4335.5074      326.28775      0             -30.882959      0              0              9.4917891      9.7890871      0.2            92.915951    
     18300   0.25079788     0.0025862754   0.0025862754   0              0              1824.9316      3792.0712     -142.43016      0              615.49698      0              0              9.4908228      9.7868881      0.2            92.885621    
     18400   0.21400661     0.002524749    0.002524749    0              0              1509.2643      3746.0945     -727.75808      0              23.621139      0              0              9.4898565      9.7952006      0.2            92.955048    
     18500   0.21228717     0.0027724608   0.0027724608   0              0              930.79308      2718.4007     -857.01122      0              396.09904      0              0              9.4888902      9.7896909      0.2            92.893302    
     18600   0.22925687     0.0026987273   0.0026987273   0              0              1390.8713      3520.6361     -739.0787       0              294.05501      0              0              9.4879239      9.7920021      0.2            92.90577     
     18700   0.21396529     0.0026503613   0.0026503613   0              0              1659.3036      3501.6072     -183.17681      0             -177.71356      0              0              9.4869575      9.7993916      0.2            92.966412    
     18800   0.18936649     0.0027323282   0.0027323282   0              0              2382.077       4384.7685      379.17862      0              254.20513      0              0              9.4859912      9.7933129      0.2            92.89928     
     18900   0.22895232     0.0027167573   0.0027167573   0              0              2808.507       5023.4389      593.37088      0             -140.71532      0              0              9.4850249      9.791417       0.2            92.871834    
     19000   0.19661662     0.0028638836   0.0028638836   0              0              2585.8041      4547.7553      623.64645      0             -136.34725      0              0              9.4840586      9.7890815      0.2            92.840223    
     19100   0.21612709     0.002608661    0.002608661    0              0              2249.3027      4139.5116      358.90788      0              387.6165       0              0              9.4830922      9.7845884      0.2            92.788154    
     19200   0.22094293     0.002741018    0.002741018    0              0              2252.1457      4563.576      -59.463955      0             -95.614259      0              0              9.4821259      9.7857067      0.2            92.789303    
     19300   0.21165003     0.0026815126   0.0026815126   0              0              1397.6773      3196.274      -401.09069      0              542.19784      0              0              9.4811596      9.7850846      0.2            92.773949    
     19400   0.22158886     0.0025753819   0.0025753819   0              0              1851.3251      4083.9595     -381.522        0              712.68266      0              0              9.4801933      9.7862248      0.2            92.775302    
     19500   0.20484974     0.0025286362   0.0025286362   0              0              2180.7031      4631.27       -270.08886      0              557.51556      0              0              9.479227       9.787538       0.2            92.778294    
     19600   0.18222874     0.0025888092   0.0025888092   0              0              1306.9037      2835.1262     -221.51805      0              177.377        0              0              9.4782606      9.7949083      0.2            92.838693    
     19700   0.18384384     0.0027773984   0.0027773984   0              0              2126.644       4217.2313      35.831821      0              235.93737      0              0              9.4772943      9.7863871      0.2            92.748471    
     19800   0.24600567     0.0028873928   0.0028873928   0              0              2491.781       4869.9133      113.49739      0              370.0131       0              0              9.476328       9.786425       0.2            92.739373    
     19900   0.20585665     0.0026677019   0.0026677019   0              0              1892.7804      3641.4425      143.92059      0              620.89475      0              0              9.4753617      9.7836272      0.2            92.703406    
     20000   0.18167954     0.0028557013   0.0028557013   0              0              2492.1836      4750.0213      234.16328      0              212.6491       0              0              9.4743954      9.7820154      0.2            92.678682    
     20100   0.23998655     0.0028908803   0.0028908803   0              0              2015.5792      3828.8906      202.08296      0              505.0336       0              0              9.473429       9.7783137      0.2            92.634161    
     20200   0.19606092     0.0031911773   0.0031911773   0              0              1971.373       3921.4929      21.028405      0              386.42738      0              0              9.4724627      9.7829592      0.2            92.668716    
     20300   0.22429834     0.002931448    0.002931448    0              0              2025.7922      4185.5269     -134.12452      0              563.68457      0              0              9.4714964      9.7781882      0.2            92.614075    
     20400   0.20307273     0.0030304048   0.0030304048   0              0              2608.1419      5502.1499     -286.08273      0             -149.47491      0              0              9.4705301      9.7820678      0.2            92.641367    
     20500   0.25545588     0.0028374347   0.0028374347   0              0              1996.9921      4271.6547     -277.88099      0              17.002562      0              0              9.4695637      9.7878239      0.2            92.686422    
     20600   0.25563086     0.0028614599   0.0028614599   0              0              1752.3594      3787.7229     -283.16222      0             -140.1675       0              0              9.4685974      9.7867737      0.2            92.667021    
     20700   0.23381994     0.0028683723   0.0028683723   0              0              1893.2641      3703.8066      82.554904      0              179.54603      0              0              9.4676311      9.7795125      0.2            92.588817    
     20800   0.22849879     0.0030973434   0.0030973434   0              0              2038.1776      3540.0712      536.06345      0              733.49519      0              0              9.4666648      9.7773211      0.2            92.558622    
     20900   0.20429465     0.0029239937   0.0029239937   0              0              2265.901       3798.7112      732.89835      0              840.53992      0              0              9.4656985      9.7746149      0.2            92.523557    
     21000   0.19429437     0.0028731442   0.0028731442   0              0              2130.2573      3707.1969      553.12177      0              959.64956      0              0              9.4647321      9.7804168      0.2            92.569025    
     21100   0.19370765     0.0027995005   0.0027995005   0              0              1674.0038      3328.6394      19.165279      0              291.42631      0              0              9.4637658      9.7834581      0.2            92.588356    
     21200   0.20981434     0.0028592234   0.0028592234   0              0              1777.2663      3992.2809     -437.95548      0              320.58046      0              0              9.4627995      9.7834162      0.2            92.578506    
     21300   0.20079309     0.0028367366   0.0028367366   0              0              1718.1936      4097.4384     -661.21038      0              614.86301      0              0              9.4618332      9.783765       0.2            92.572352    
     21400   0.25315008     0.0027924124   0.0027924124   0              0              1318.059       3259.1459     -623.20984      0              273.88583      0              0              9.4608668      9.7909515      0.2            92.630888    
     21500   0.23869935     0.0030506428   0.0030506428   0              0              1988.0894      4213.7372     -237.77557      0              852.19484      0              0              9.4599005      9.7833046      0.2            92.549088    
     21600   0.24331687     0.0028705129   0.0028705129   0              0              2374.4388      4390.0793      358.60968      0             -160.32938      0              0              9.4589342      9.78293        0.2            92.536091    
     21700   0.22443711     0.0029213748   0.0029213748   0              0              2939.8779      5158.9608      720.59182      0              328.73718      0              0              9.4579679      9.7780028      0.2            92.480036    
     21800   0.20078443     0.0030470359   0.0030470359   0              0              2398.0159      4190.9336      604.91308      0             -238.37889      0              0              9.4570016      9.7795062      0.2            92.484806    
     21900   0.20156161     0.0029483931   0.0029483931   0              0              2070.1804      3985.7882      154.34148      0              294.11418      0              0              9.4560352      9.778424       0.2            92.465122    
     22000   0.2309896      0.003001073    0.003001073    0              0              2359.2879      5182.4657     -464.07677      0              320.62374      0              0              9.4550689      9.7868517      0.2            92.535357    
     22100   0.21552096     0.0031274069   0.0031274069   0              0              1547.6037      3907.408      -812.36919      0              81.65098       0              0              9.4541026      9.7923152      0.2            92.577553    
     22200   0.26482281     0.0030563752   0.0030563752   0              0              2080.4153      4716.2467     -555.61211      0             -639.91395      0              0              9.4531363      9.7874989      0.2            92.522561    
     22300   0.22658272     0.0030596811   0.0030596811   0              0              2237.7643      4513.6801     -38.352664      0             -32.199461      0              0              9.45217        9.7840429      0.2            92.480436    
     22400   0.28121022     0.0030226881   0.0030226881   0              0              2302.7916      3916.3048      689.02598      0              279.11518      0              0              9.4512036      9.7812255      0.2            92.444354    
     22500   0.21027987     0.0030504037   0.0030504037   0              0              2221.319       3649.1765      793.32295      0             -505.18148      0              0              9.4502373      9.7854112      0.2            92.474458    
     22600   0.19554821     0.0029532032   0.0029532032   0              0              2110.9074      3888.3627      333.27304      0             -558.03033      0              0              9.449271       9.7851071      0.2            92.462129    
     22700   0.17628281     0.0027285606   0.0027285606   0              0              1378.7259      3199.7774     -442.53271      0             -354.92516      0              0              9.4483047      9.7912026      0.2            92.510265    
     22800   0.22413624     0.003004526    0.003004526    0              0              673.06122      2382.386      -1036.4361      0              579.87681      0              0              9.4473383      9.7947703      0.2            92.534509    
     22900   0.21645225     0.0031296479   0.0031296479   0              0              1541.3441      3962.8133     -880.35094      0              1120.3848      0              0              9.446372       9.7873582      0.2            92.455027    
     23000   0.24275747     0.0029775305   0.0029775305   0              0              1794.5845      3778.8756     -189.88389      0              561.04872      0              0              9.4454057      9.7847257      0.2            92.420704    
     23100   0.24362105     0.002926064    0.002926064    0              0              2576.0031      4407.8685      743.93993      0              400.84221      0              0              9.4444394      9.7850937      0.2            92.414725    
     23200   0.17283937     0.0031525172   0.0031525172   0              0              2507.7336      3696.9988      1318.2433      0              777.96492      0              0              9.4434731      9.7838366      0.2            92.393397    
     23300   0.21876576     0.003065571    0.003065571    0              0              2643.4997      4333.3714      953.36629      0              284.98387      0              0              9.4425067      9.7864494      0.2            92.408614    
     23400   0.22014947     0.003079353    0.003079353    0              0              2432.5576      5035.3701     -170.46225      0              748.51882      0              0              9.4415404      9.7897272      0.2            92.430105    
     23500   0.19609335     0.0032029389   0.0032029389   0              0              1442.7111      4001.0597     -1115.8458      0              417.26043      0              0              9.4405741      9.7948723      0.2            92.469218    
     23600   0.21020841     0.0031249932   0.0031249932   0              0              1261.2113      3815.7882     -1293.5606      0             -58.945121      0              0              9.4396078      9.7963764      0.2            92.473951    
     23700   0.21019563     0.0032407307   0.0032407307   0              0              1707.2142      3981.0401     -566.80568      0              594.74769      0              0              9.4386415      9.7949368      0.2            92.450896    
     23800   0.22097186     0.003078554    0.003078554    0              0              2493.9184      4557.6886      429.96524      0              536.15261      0              0              9.4376751      9.7898483      0.2            92.393408    
     23900   0.2614261      0.0035589355   0.0035589355   0              0              3285.3557      5415.2499      1155.2835      0              1054.8967      0              0              9.4367088      9.7910705      0.2            92.395481    
     24000   0.23953646     0.0033055568   0.0033055568   0              0              2886.1824      4659.2827      1112.865       0              34.546679      0              0              9.4357425      9.796079       0.2            92.433279    
     24100   0.22194025     0.0033372473   0.0033372473   0              0              2319.6401      4481.887       157.19797      0              145.78218      0              0              9.4347762      9.7995897      0.2            92.456936    
     24200   0.24123748     0.0031534854   0.0031534854   0              0              1902.7416      4729.6857     -924.39295      0              470.51229      0              0              9.4338098      9.8003494      0.2            92.454633    
     24300   0.22103273     0.0033016075   0.0033016075   0              0              1490.6012      4205.4885     -1224.4828      0             -73.538262      0              0              9.4328435      9.7988079      0.2            92.430622    
     24400   0.18986493     0.0034980069   0.0034980069   0              0              2128.4134      4665.4861     -408.86867      0             -29.56071       0              0              9.4318772      9.7953801      0.2            92.388823    
     24500   0.21440384     0.0035373327   0.0035373327   0              0              1836.2595      3212.6461      459.69343      0              1058.6739      0              0              9.4309109      9.785802       0.2            92.289027    
     24600   0.23711736     0.0032682594   0.0032682594   0              0              3010.691       5202.8744      818.28562      0              392.65698      0              0              9.4299446      9.7824792      0.2            92.248237    
     24700   0.20157935     0.0031911646   0.0031911646   0              0              2788.4503      4859.2911      717.38719      0              160.01522      0              0              9.4289782      9.7836929      0.2            92.250228    
     24800   0.22064867     0.0034743397   0.0034743397   0              0              2142.0698      4270.9352      12.998439      0              790.54056      0              0              9.4280119      9.7845406      0.2            92.248766    
     24900   0.21484407     0.0032300949   0.0032300949   0              0              1387.7848      3398.5128     -623.15606      0              209.06056      0              0              9.4270456      9.797463       0.2            92.36113     
     25000   0.23435375     0.0032093662   0.0032093662   0              0              1716.8267      3995.0863     -561.64467      0             -490.51283      0              0              9.4260793      9.7941398      0.2            92.320339    
     25100   0.25056678     0.003167862    0.003167862    0              0              2095.8642      4382.5861     -191.05397      0             -394.38839      0              0              9.425113       9.7951101      0.2            92.320019    
     25200   0.21531375     0.0030922435   0.0030922435   0              0              2614.0339      4897.0151      330.82953      0             -125.34644      0              0              9.4241466      9.789265       0.2            92.255468    
     25300   0.19640963     0.003074148    0.003074148    0              0              2515.6034      4378.6778      652.34057      0              729.55305      0              0              9.4231803      9.7801397      0.2            92.160019    
     25400   0.19279858     0.0033097205   0.0033097205   0              0              2271.4014      4047.4617      495.16447      0              285.57289      0              0              9.422214       9.7823676      0.2            92.171561    
     25500   0.18410537     0.0032338954   0.0032338954   0              0              2150.3431      4167.9259      132.52055      0              6.831971       0              0              9.4212477      9.7799634      0.2            92.139457    
     25600   0.23306799     0.0031308834   0.0031308834   0              0              1494.7539      3344.0981     -354.81959      0              478.07137      0              0              9.4202813      9.7831845      0.2            92.160351    
     25700   0.22061659     0.0030761934   0.0030761934   0              0              1591.5115      3629.0504     -446.24266      0              166.54701      0              0              9.419315       9.7926581      0.2            92.240132    
     25800   0.18415677     0.0032664232   0.0032664232   0              0              1460.6518      3177.2765     -256.18562      0             -257.65801      0              0              9.4183487      9.7971121      0.2            92.272618    
     25900   0.18950206     0.0034721351   0.0034721351   0              0              1629.4513      3240.8864      17.803316      0              212.4063       0              0              9.4173824      9.7859583      0.2            92.158112    
     26000   0.14985791     0.0034630567   0.0034630567   0              0              2300.1605      4245.0716      355.01675      0             -170.77813      0              0              9.4164161      9.7834901      0.2            92.125413    
     26100   0.23560281     0.0035714553   0.0035714553   0              0              2047.6809      3814.1955      280.98121      0             -346.07174      0              0              9.4154497      9.7870848      0.2            92.149805    
     26200   0.1849718      0.0036318941   0.0036318941   0              0              2121.6812      4217.2161      25.930538      0              170.28534      0              0              9.4144834      9.783386       0.2            92.105526    
     26300   0.23537945     0.0032452408   0.0032452408   0              0              1669.6935      3456.5529     -117.36618      0              464.37839      0              0              9.4135171      9.7807258      0.2            92.071029    
     26400   0.18588486     0.0033870394   0.0033870394   0              0              1419.5409      3104.7597     -265.86354      0             -139.83147      0              0              9.4125508      9.7900582      0.2            92.14942     
     26500   0.18099459     0.0033876345   0.0033876345   0              0              1646.7723      3617.1565     -323.83409      0              599.98872      0              0              9.4115845      9.7925835      0.2            92.163727    
     26600   0.15698887     0.0031898703   0.0031898703   0              0              1442.7087      3085.6104     -200.39675      0              750.99148      0              0              9.4106181      9.7922427      0.2            92.151057    
     26700   0.19057888     0.0033316128   0.0033316128   0              0              1919.1851      3546.4439      291.70849      0             -63.953194      0              0              9.4096518      9.7880224      0.2            92.101882    
     26800   0.19023327     0.0032251164   0.0032251164   0              0              1788.1675      3100.7339      475.41552      0              711.53587      0              0              9.4086855      9.7937192      0.2            92.146024    
     26900   0.15902618     0.0036379812   0.0036379812   0              0              2051.2494      3886.6066      215.6934       0              557.9348       0              0              9.4077192      9.7912626      0.2            92.113448    
     27000   0.20824182     0.0034294066   0.0034294066   0              0              1629.5406      3447.5592     -188.66376      0              1252.6533      0              0              9.4067528      9.7871582      0.2            92.065378    
     27100   0.19314324     0.003477954    0.003477954    0              0              1582.377       3661.4713     -496.91153      0              292.5447       0              0              9.4057865      9.7938468      0.2            92.118833    
     27200   0.20247242     0.0034547415   0.0034547415   0              0              1944.6607      4143.22       -254.12333      0              362.69158      0              0              9.4048202      9.7905087      0.2            92.077974    
     27300   0.19883743     0.0033641974   0.0033641974   0              0              2108.3934      3984.9143      231.68962      0              787.32424      0              0              9.4038539      9.7886943      0.2            92.051451    
     27400   0.1895403      0.0031994395   0.0031994395   0              0              2427.0028      4345.4256      508.40955      0              361.01612      0              0              9.4028876      9.7897046      0.2            92.051492    
     27500   0.14407271     0.0034826944   0.0034826944   0              0              2354.3709      4379.2731      329.20734      0              1136.2085      0              0              9.4019212      9.7835293      0.2            91.983972    
     27600   0.19296059     0.0034231937   0.0034231937   0              0              1823.3175      3902.1029     -255.6449       0              335.69511      0              0              9.4009549      9.7987708      0.2            92.117803    
     27700   0.1805808      0.0036449189   0.0036449189   0              0              1828.0009      4412.8976     -757.10449      0              594.00327      0              0              9.3999886      9.7942722      0.2            92.066047    
     27800   0.21092626     0.0033640102   0.0033640102   0              0              2102.5616      4674.6599     -469.72348      0              586.33478      0              0              9.3990223      9.793287       0.2            92.047322    
     27900   0.18085606     0.0038634873   0.0038634873   0              0              1781.8268      3561.5795      1.903779       0             -420.42899      0              0              9.398056       9.7911762      0.2            92.018022    
     28000   0.18579271     0.0036707899   0.0036707899   0              0              2715.1431      4831.039       599.04704      0              388.80752      0              0              9.3970896      9.7821288      0.2            91.923541    
     28100   0.2148231      0.0034698779   0.0034698779   0              0              3000.2467      5177.5164      822.69391      0              23.518393      0              0              9.3961233      9.7797812      0.2            91.89203     
     28200   0.24532657     0.0036742753   0.0036742753   0              0              2577.5053      4858.8816      295.90146      0             -419.34725      0              0              9.395157       9.782436       0.2            91.907522    
[...]
     43200   0.20664019     0.0036089847   0.0036089847   0              0              1325.4292      2801.0802     -150.4157       0              50.574473      0              0              9.2502088      9.6140072      0.2            88.931573    
     43300   0.19695965     0.0039634306   0.0039634306   0              0              2722.479       4222.9322      1221.8302      0             -317.76654      0              0              9.2492425      9.6106787      0.2            88.891497    
     43400   0.17987633     0.0038331362   0.0038331362   0              0              2522.6902      3586.3824      1458.815       0              551.67603      0              0              9.2482761      9.6009252      0.2            88.792007    
     43500   0.16812648     0.0037986979   0.0037986979   0              0              2522.3974      4737.686       306.85893      0             -157.23328      0              0              9.2473098      9.6086328      0.2            88.854005    
     43600   0.21633694     0.003766094    0.003766094    0              0              996.34091      3150.7345     -1158.2776      0              587.88548      0              0              9.2463435      9.6227746      0.2            88.975479    
     43700   0.21176227     0.0039468444   0.0039468444   0              0              852.10742      3172.9921     -1469.0176      0             -686.79428      0              0              9.2453772      9.6219531      0.2            88.958586    
     43800   0.23327961     0.003629991    0.003629991    0              0              1309.7305      2896.967      -277.71748      0              202.1729       0              0              9.2444108      9.6061615      0.2            88.803304    
     43900   0.23668197     0.0037829334   0.0037829334   0              0              2059.5784      2980.7093      1138.2535      0              185.92296      0              0              9.2434445      9.5973627      0.2            88.712689    
     44000   0.22736785     0.0039169541   0.0039169541   0              0              2258.1823      3020.3191      1495.8529      0              107.61901      0              0              9.2424782      9.5999428      0.2            88.727262    
     44100   0.20368019     0.0037999418   0.0037999418   0              0              2083.6979      3725.9542      441.20732      0             -89.771497      0              0              9.2415119      9.6058473      0.2            88.772552    
     44200   0.20709342     0.0039346773   0.0039346773   0              0              930.81297      2587.2066     -725.77852      0              422.0118       0              0              9.2405456      9.6140994      0.2            88.839523    
     44300   0.23032021     0.0039800575   0.0039800575   0              0              1475.18        4227.549      -1277.3866      0              62.767815      0              0              9.2395792      9.6137799      0.2            88.827281    
     44400   0.22660982     0.0037297557   0.0037297557   0              0              1489.0722      3498.9295     -520.99633      0             -137.35093      0              0              9.2386129      9.608293       0.2            88.7673      
     44500   0.22074167     0.0036746001   0.0036746001   0              0              2496.2385      4483.524       508.76711      0              173.12883      0              0              9.2376466      9.6044417      0.2            88.722438    
     44600   0.20446372     0.0039020651   0.0039020651   0              0              2427.8008      4003.1908      852.19725      0              968.2931       0              0              9.2366803      9.6016072      0.2            88.686976    
     44700   0.19492114     0.003768442    0.003768442    0              0              2080.7679      3744.6382      416.75035      0              168.26666      0              0              9.235714       9.6084538      0.2            88.740931    
     44800   0.17481499     0.0037979042   0.0037979042   0              0              2010.6563      4040.7693     -19.716899      0             -250.94084      0              0              9.2347476      9.6184912      0.2            88.824339    
     44900   0.26998534     0.0039904138   0.0039904138   0              0              1548.1393      3635.5597     -539.51525      0             -13.394637      0              0              9.2337813      9.6156455      0.2            88.788768    
     45000   0.2167351      0.0042367712   0.0042367712   0              0              2348.7972      5085.6267     -388.22395      0             -521.94003      0              0              9.232815       9.623228       0.2            88.849483    
     45100   0.22652314     0.0040211683   0.0040211683   0              0              2004.5497      3988.8328      20.069509      0              257.14117      0              0              9.2318487      9.6099946      0.2            88.718016    
     45200   0.19332476     0.0041738745   0.0041738745   0              0              2862.3187      5286.6764      437.77949      0             -186.92842      0              0              9.2308823      9.6098482      0.2            88.707378    
     45300   0.2573931      0.0039322671   0.0039322671   0              0              2904.9014      5264.4338      545.16208      0             -405.17476      0              0              9.229916       9.6056079      0.2            88.658954    
     45400   0.2493838      0.0041854978   0.0041854978   0              0              2436.3482      4696.8759      175.64542      0              398.78816      0              0              9.2289497      9.6020318      0.2            88.616669    
     45500   0.19244422     0.0039457612   0.0039457612   0              0              2010.7073      4597.5593     -576.3977       0              346.6728       0              0              9.2279834      9.6120002      0.2            88.699378    
     45600   0.20138977     0.0044168598   0.0044168598   0              0              2100.3928      4939.6519     -739.08573      0             -92.2941        0              0              9.2270171      9.6082241      0.2            88.655247    
     45700   0.22334367     0.0040389702   0.0040389702   0              0              1881.5797      3998.5981     -235.62946      0              704.25145      0              0              9.2260507      9.6090825      0.2            88.653883    
     45800   0.19533736     0.0038673068   0.0038673068   0              0              2095.6914      3767.2098      423.94467      0              360.51625      0              0              9.2250844      9.6020463      0.2            88.579688    
     45900   0.18615614     0.0041652875   0.0041652875   0              0              2821.7263      5008.9394      634.31231      0              250.52293      0              0              9.2241181      9.5975826      0.2            88.529236    
     46000   0.2141694      0.0041710578   0.0041710578   0              0              2640.8734      5025.7806      255.77603      0              5.2792349      0              0              9.2231518      9.5984567      0.2            88.528023    
     46100   0.19046882     0.0040593849   0.0040593849   0              0              1792.0583      4010.8539     -426.94899      0              36.284748      0              0              9.2221855      9.5990397      0.2            88.524125    
     46200   0.18105103     0.004127202    0.004127202    0              0              1545.2072      3774.5579     -684.34393      0              446.25711      0              0              9.2212191      9.5957372      0.2            88.484395    
     46300   0.22531581     0.0042776977   0.0042776977   0              0              2441.9557      5102.7204     -219.03116      0              343.22608      0              0              9.2202528      9.5911519      0.2            88.432845    
     46400   0.19076427     0.0041594458   0.0041594458   0              0              2604.1547      4880.1124      327.99684      0             -548.07984      0              0              9.2192865      9.5886329      0.2            88.400354    
     46500   0.17411873     0.0041488193   0.0041488193   0              0              2592.484       4667.0862      517.66654      0             -572.7096       0              0              9.2183202      9.5828343      0.2            88.337635    
     46600   0.17314175     0.0043100854   0.0043100854   0              0              2398.2624      4568.9612      227.35221      0              215.80783      0              0              9.2173538      9.582507       0.2            88.325358    
     46700   0.22440626     0.0042373468   0.0042373468   0              0              2328.9927      4761.0854     -103.35636      0              150.20099      0              0              9.2163875      9.5852818      0.2            88.341671    
     46800   0.19867868     0.0043138833   0.0043138833   0              0              1901.4744      4289.548      -486.811        0              177.07928      0              0              9.2154212      9.5808063      0.2            88.291165    
     46900   0.16706503     0.0044157447   0.0044157447   0              0              2100.5266      4677.0653     -476.22636      0              160.00665      0              0              9.2144549      9.5779384      0.2            88.255481    
     47000   0.19357185     0.004349534    0.004349534    0              0              1824.1718      3714.8619     -66.695116      0              168.35484      0              0              9.2134886      9.5824681      0.2            88.28796     
     47100   0.19143084     0.0042165299   0.0042165299   0              0              2284.9979      3869.9099      699.8736       0              786.65763      0              0              9.2125222      9.5769159      0.2            88.227551    
     47200   0.18875649     0.0040847111   0.0040847111   0              0              3172.335       5786.8148      557.63665      0             -137.69337      0              0              9.2115559      9.5845909      0.2            88.288995    
     47300   0.21959374     0.0042733126   0.0042733126   0              0              2049.6494      4299.122      -200.02082      0              398.57874      0              0              9.2105896      9.5878459      0.2            88.309714    
     47400   0.22842417     0.004507387    0.004507387    0              0              1775.1436      4293.9783     -743.90723      0             -1.8549104      0              0              9.2096233      9.5938483      0.2            88.355729    
     47500   0.19689903     0.0044251554   0.0044251554   0              0              2212.2273      4981.395      -557.13149      0              179.86969      0              0              9.2086569      9.5936283      0.2            88.344432    
     47600   0.17868089     0.0045655712   0.0045655712   0              0              2959.6392      5673.9078      245.16491      0              14.203179      0              0              9.2076906      9.5830845      0.2            88.238078    
     47700   0.23061218     0.0044105935   0.0044105935   0              0              2143.4568      3514.2566      772.44543      0              203.74623      0              0              9.2067243      9.580707       0.2            88.206928    
     47800   0.24659686     0.0045934154   0.0045934154   0              0              2157.6854      3930.5859      384.57874      0              537.84467      0              0              9.205758       9.5876232      0.2            88.261338    
     47900   0.21731914     0.0044908222   0.0044908222   0              0              2076.279       4583.5335     -431.17155      0              214.54843      0              0              9.2047917      9.582403       0.2            88.204023    
     48000   0.22006589     0.0044039567   0.0044039567   0              0              1823.0616      4477.0952     -831.2253       0             -74.125896      0              0              9.2038253      9.5843446      0.2            88.212634    
     48100   0.21036772     0.0044629426   0.0044629426   0              0              2361.0539      5047.6941     -325.77833      0              452.39536      0              0              9.202859       9.5836073      0.2            88.196587    
     48200   0.21329657     0.0042427192   0.0042427192   0              0              2386.075       4259.2588      512.71002      0              4.1814554      0              0              9.2018927      9.5769083      0.2            88.125682    
     48300   0.20809893     0.0045174375   0.0045174375   0              0              2790.4704      4712.7721      867.95414      0             -35.983768      0              0              9.2009264      9.575972       0.2            88.107813    
     48400   0.18591843     0.0044590208   0.0044590208   0              0              2349.4397      4235.6202      463.07848      0             -30.067759      0              0              9.1999601      9.5834047      0.2            88.16694     
     48500   0.21686283     0.0043621748   0.0043621748   0              0              2283.0869      5009.6583     -443.68661      0              480.04793      0              0              9.1989937      9.5855214      0.2            88.177152    
     48600   0.19701708     0.004436113    0.004436113    0              0              1282.9892      3623.0352     -1057.2711      0              15.556144      0              0              9.1980274      9.5893593      0.2            88.20319     
     48700   0.2156037      0.0047569039   0.0047569039   0              0              1714.7906      4118.3061     -688.92034      0              504.52747      0              0              9.1970611      9.5824919      0.2            88.130764    
     48800   0.20147831     0.0046531248   0.0046531248   0              0              2618.3213      4698.0148      538.39525      0              247.86718      0              0              9.1960948      9.5782581      0.2            88.08257     
     48900   0.17961411     0.0047321123   0.0047321123   0              0              3408.318       5433.6437      1382.7444      0              376.82006      0              0              9.1951284      9.5742807      0.2            88.036741    
     49000   0.17377057     0.0046826445   0.0046826445   0              0              2880.862       4843.4963      917.99006      0              278.82151      0              0              9.1941621      9.5747537      0.2            88.031838    
     49100   0.22327827     0.0046724748   0.0046724748   0              0              2107.7016      4956.314      -741.1131       0              67.784137      0              0              9.1931958      9.5806917      0.2            88.077174    
     49200   0.17669916     0.0049885317   0.0049885317   0              0              1672.7161      5020.3968     -1675.1768      0             -485.69983      0              0              9.1922295      9.5860237      0.2            88.116929    
     49300   0.19697981     0.0049372905   0.0049372905   0              0              1998.4358      4903.2466     -906.58555      0              658.71458      0              0              9.1912632      9.5846716      0.2            88.095239    
     49400   0.20925618     0.0046961233   0.0046961233   0              0              2626.6222      4389.5595      863.41147      0              428.77016      0              0              9.1902968      9.5766848      0.2            88.012576    
     49500   0.22137925     0.004878143    0.004878143    0              0              3887.2298      5871.204       1903.0533      0              257.33163      0              0              9.1893305      9.5663618      0.2            87.90846     
     49600   0.21968538     0.0048092173   0.0048092173   0              0              2855.4898      4849.1917      861.5774       0             -181.28702      0              0              9.1883642      9.5756156      0.2            87.984244    
     49700   0.19607779     0.0051568375   0.0051568375   0              0              1209.2618      3433.092      -1014.768       0             -444.99584      0              0              9.1873979      9.5907161      0.2            88.113725    
     49800   0.18742547     0.0050014826   0.0050014826   0              0              1698.4841      5242.1555     -1845.4097      0              330.38204      0              0              9.1864316      9.5910286      0.2            88.107328    
     49900   0.15781462     0.0051764614   0.0051764614   0              0              1994.9838      4721.3693     -731.60622      0              4.1397956      0              0              9.1854652      9.5870859      0.2            88.061844    
     50000   0.20736952     0.0049585022   0.0049585022   0              0              3072.4921      5310.2103      834.53938      0             -91.779907      0              0              9.1844989      9.57846        0.2            87.973356    
     50100   0.2138275      0.0050506026   0.0050506026   0              0              3431.1854      5515.9759      1346.1863      0              137.44595      0              0              9.1835326      9.580622       0.2            87.983955    
     50200   0.16796822     0.005134412    0.005134412    0              0              2606.7474      4862.9203      350.39329      0              152.28647      0              0              9.1825663      9.5726054      0.2            87.901083    
     50300   0.19474804     0.0050055636   0.0050055636   0              0              1911.4266      4592.6125     -769.96045      0             -392.45018      0              0              9.1815999      9.5804854      0.2            87.964184    
     50400   0.20498839     0.0051435323   0.0051435323   0              0              2134.2052      5270.0584     -1001.8287      0             -880.03204      0              0              9.1806336      9.5835038      0.2            87.982637    
     50460   0.20752028     0.0049846733   0.0049846733   0              0              3081.4532      5580.6795      582.02075      0             -169.00752      0              0              9.1800538      9.5719161      0.2            87.870705    
Loop time of 1.22513 on 1 procs for 50000 steps with 67 atoms

Performance: 35261.625 ns/day, 0.001 hours/ns, 40812.065 timesteps/s
99.9% CPU use with 1 MPI tasks x 1 OpenMP threads

MPI task timing breakdown:
Section |  min time  |  avg time  |  max time  |%varavg| %total
---------------------------------------------------------------
Pair    | 0          | 0          | 0          |   0.0 |  0.00
Bond    | 0.18215    | 0.18215    | 0.18215    |   0.0 | 14.87
Neigh   | 0          | 0          | 0          |   0.0 |  0.00
Comm    | 0.41317    | 0.41317    | 0.41317    |   0.0 | 33.72
Output  | 0.0072946  | 0.0072946  | 0.0072946  |   0.0 |  0.60
Modify  | 0.59431    | 0.59431    | 0.59431    |   0.0 | 48.51
Other   |            | 0.0282     |            |       |  2.30

Nlocal:             67 ave          67 max          67 min
Histogram: 1 0 0 0 0 0 0 0 0 0
Nghost:            557 ave         557 max         557 min
Histogram: 1 0 0 0 0 0 0 0 0 0
Neighs:              0 ave           0 max           0 min
Histogram: 1 0 0 0 0 0 0 0 0 0

Total # of neighbors = 0
Ave neighs/atom = 0
Ave special neighs/atom = 23.164179
Neighbor list builds = 0
Dangerous builds = 0


Total wall time: 0:00:01
