LAMMPS data file.

     67 atoms
    150 bonds
      0 angles
      0 dihedrals
      0 impropers
      1 atom types
    150 bond types
      0 angle types
      0 dihedral types
      0 improper types
  -4.831607   4.831607 xlo xhi
  -4.831607   4.831607 ylo yhi
  -0.100000   0.100000 zlo zhi

Masses # ['atom_id', 'mass']

1 10000.0

Atoms # ['atomID', 'moleculeID', 'atomType', 'charge', 'x', 'y', 'z']

      6      1      1   0.000000  -3.947645  -4.491593   0.000000
     59      1      1   0.000000  -2.770961  -4.348110   0.000000
     79      1      1   0.000000   0.448756  -4.001007   0.000000
     42      1      1   0.000000   0.926652  -4.533420   0.000000
     15      1      1   0.000000   1.980606  -4.432700   0.000000
     35      1      1   0.000000   3.293933  -4.038297   0.000000
     34      1      1   0.000000   4.372737  -4.345761   0.000000
     13      1      1   0.000000  -4.537482  -3.083542   0.000000
     27      1      1   0.000000  -3.285300  -3.288015   0.000000
      4      1      1   0.000000  -2.049743  -3.589055   0.000000
     20      1      1   0.000000   1.134218  -3.294399   0.000000
     10      1      1   0.000000   2.585404  -2.858307   0.000000
     53      1      1   0.000000   4.020204  -3.312006   0.000000
     36      1      1   0.000000  -4.077712  -1.682459   0.000000
     58      1      1   0.000000  -3.251044  -2.329891   0.000000
     18      1      1   0.000000  -2.100991  -2.128557   0.000000
     38      1      1   0.000000  -0.495970  -1.637175   0.000000
     30      1      1   0.000000   0.585624  -1.799976   0.000000
     76      1      1   0.000000   1.396337  -2.288797   0.000000
     33      1      1   0.000000   2.046845  -1.656142   0.000000
     19      1      1   0.000000   4.003700  -2.060567   0.000000
     39      1      1   0.000000  -2.986808  -1.108832   0.000000
     32      1      1   0.000000  -1.394317  -0.900618   0.000000
     40      1      1   0.000000   0.270658  -0.693965   0.000000
     69      1      1   0.000000   1.276508  -1.249263   0.000000
     73      1      1   0.000000   2.019254  -0.651578   0.000000
     46      1      1   0.000000   2.699609  -0.784241   0.000000
     77      1      1   0.000000   3.498713  -0.971683   0.000000
     75      1      1   0.000000   4.129999  -1.053566   0.000000
     11      1      1   0.000000  -4.106501  -0.439420   0.000000
     63      1      1   0.000000  -4.634094   0.523011   0.000000
     67      1      1   0.000000  -3.094696  -0.117650   0.000000
      9      1      1   0.000000  -2.151088   0.376869   0.000000
     16      1      1   0.000000  -0.667830   0.259420   0.000000
     41      1      1   0.000000   1.298010  -0.416802   0.000000
      5      1      1   0.000000   2.279977   0.354376   0.000000
     56      1      1   0.000000   3.372353  -0.151323   0.000000
     37      1      1   0.000000   4.273801  -0.099346   0.000000
     45      1      1   0.000000  -4.056537   1.055571   0.000000
     57      1      1   0.000000  -3.214657   0.785830   0.000000
      3      1      1   0.000000   0.756094   0.584879   0.000000
     80      1      1   0.000000   1.532639   1.261523   0.000000
      7      1      1   0.000000   3.632636   0.998898   0.000000
     31      1      1   0.000000  -3.792123   2.158983   0.000000
     50      1      1   0.000000  -2.919317   1.642786   0.000000
     29      1      1   0.000000  -2.698390   2.653550   0.000000
     28      1      1   0.000000  -1.919414   1.627567   0.000000
     23      1      1   0.000000   0.948313   2.053156   0.000000
     68      1      1   0.000000   1.881792   1.722244   0.000000
     55      1      1   0.000000   1.968845   2.480367   0.000000
     43      1      1   0.000000   2.683781   1.812931   0.000000
     14      1      1   0.000000   3.743752   2.505954   0.000000
     21      1      1   0.000000   4.633980   1.640993   0.000000
     25      1      1   0.000000  -3.769659   3.389136   0.000000
     49      1      1   0.000000  -4.657250   2.695615   0.000000
     48      1      1   0.000000  -2.015443   3.505193   0.000000
     44      1      1   0.000000  -1.586898   2.727735   0.000000
      8      1      1   0.000000  -0.748683   3.502906   0.000000
      1      1      1   0.000000   0.962337   3.398015   0.000000
     26      1      1   0.000000   2.694781   3.343639   0.000000
     71      1      1   0.000000   3.590883   3.526556   0.000000
     24      1      1   0.000000  -2.843264   4.276223   0.000000
     12      1      1   0.000000  -1.561660   4.662688   0.000000
     17      1      1   0.000000  -0.040286   4.699157   0.000000
     78      1      1   0.000000   1.202171   4.458760   0.000000
     47      1      1   0.000000   2.011490   4.028146   0.000000
     22      1      1   0.000000   3.120997   4.381981   0.000000

Bond Coeffs # ['bondID', 'bondCoeff', 'd']

      1   0.733591   1.167543
      2   1.738184   0.758494
      3   1.279555   0.884037
      4   1.226527   0.902945
      5   0.433758   1.518365
      6   0.433758   1.518365
      7   0.922082   1.041394
      8   0.533768   1.368748
      9   0.922082   1.041394
     10   2.992474   0.578076
     11   0.830132   1.097555
     12   0.679099   1.213482
     13   0.767169   1.141707
     14   0.770162   1.139486
     15   0.816997   1.106343
     16   0.621207   1.268767
     17   1.195519   0.914580
     18   1.281056   0.883519
     19   0.794690   1.121763
     20   0.552840   1.344932
     21   0.548106   1.350727
     22   0.548106   1.350727
     23   1.317576   0.871189
     24   0.623175   1.266762
     25   0.925995   1.039192
     26   0.719034   1.179303
     27   0.690123   1.203751
     28   0.602612   1.288194
     29   0.498201   1.416765
     30   0.999962   1.000019
     31   0.576286   1.317288
     32   0.711657   1.185400
     33   1.953705   0.715436
     34   0.838273   1.092213
     35   0.429090   1.526602
     36   0.839128   1.091656
     37   0.972527   1.014026
     38   0.437912   1.511147
     39   0.658276   1.232526
     40   0.451702   1.487901
     41   0.531807   1.371271
     42   0.845522   1.087521
     43   0.517372   1.390268
     44   1.032930   0.983931
     45   1.900429   0.725394
     46   1.044022   0.978690
     47   2.081242   0.693168
     48   0.938969   1.031987
     49   1.044022   0.978690
     50   1.900429   0.725394
     51   0.784691   1.128887
     52   0.784691   1.128887
     53   0.947897   1.027116
     54   0.942623   1.029985
     55   0.906989   1.050023
     56   0.793768   1.122415
     57   0.781387   1.131271
     58   0.934185   1.034626
     59   1.451466   0.830035
     60   0.649071   1.241235
     61   0.925976   1.039203
     62   0.881101   1.065338
     63   1.217139   0.906421
     64   0.638418   1.251548
     65   0.857172   1.080105
     66   1.172099   0.923672
     67   0.857172   1.080105
     68   0.494708   1.421758
     69   0.635002   1.254909
     70   0.494708   1.421758
     71   0.635002   1.254909
     72   0.740991   1.161699
     73   0.892090   1.058755
     74   0.420991   1.541217
     75   1.115821   0.946679
     76   0.776741   1.134650
     77   1.442059   0.832738
     78   0.883181   1.064082
     79   0.676881   1.215468
     80   0.887088   1.061736
     81   0.607855   1.282626
     82   0.623512   1.266420
     83   1.717246   0.763104
     84   0.788152   1.126406
     85   0.641447   1.248589
     86   0.445415   1.498364
     87   0.691256   1.202764
     88   0.691256   1.202764
     89   0.832249   1.096159
     90   0.832249   1.096159
     91   0.554922   1.342407
     92   0.964862   1.018046
     93   0.494927   1.421442
     94   0.496993   1.418486
     95   0.494927   1.421442
     96   0.633611   1.256287
     97   2.467748   0.636575
     98   0.534447   1.367878
     99   1.484337   0.820793
    100   0.592169   1.299502
    101   1.268887   0.887746
    102   0.835875   1.093778
    103   0.660597   1.230359
    104   0.587605   1.304540
    105   0.799617   1.118301
    106   0.799617   1.118301
    107   0.639805   1.250191
    108   1.214456   0.907422
    109   0.529857   1.373791
    110   0.618078   1.271974
    111   0.912142   1.047053
    112   0.567693   1.327220
    113   0.706725   1.189528
    114   0.567693   1.327220
    115   1.073865   0.964995
    116   0.892525   1.058498
    117   0.892525   1.058498
    118   0.618341   1.271704
    119   0.558078   1.338605
    120   0.548092   1.350745
    121   0.757038   1.149320
    122   0.618343   1.271702
    123   1.087933   0.958736
    124   1.620239   0.785616
    125   0.468717   1.460645
    126   0.646841   1.243372
    127   0.842949   1.089179
    128   1.005954   0.997036
    129   0.498498   1.416343
    130   0.431796   1.521811
    131   0.775880   1.135279
    132   0.468235   1.461397
    133   0.775880   1.135279
    134   0.786026   1.127928
    135   1.031829   0.984456
    136   0.756164   1.149985
    137   1.045366   0.978061
    138   0.770987   1.138876
    139   0.805856   1.113964
    140   1.535132   0.807100
    141   1.019487   0.990397
    142   0.646951   1.243267
    143   0.435518   1.515295
    144   0.667652   1.223840
    145   0.694034   1.200354
    146   0.558752   1.337797
    147   1.069019   0.967180
    148   0.970872   1.014890
    149   0.527875   1.376368
    150   1.049819   0.975984

Bonds # ['ID', 'type', 'atom1', 'atom2']

         1         1        58        18
         2         2        73        41
         3         3        45        57
         4         4        56        37
         5         5        13        19
         6         6        19        13
         7         7        59        24
         8         8        32        16
         9         9        24        59
        10        10        80        68
        11        11        11        63
        12        12        46         5
        13        13        44         8
        14        14         9        57
        15        15        23        55
        16        16        13        27
        17        17        26        71
        18        18        30        69
        19        19        35        34
        20        20        23         1
        21        21         6        34
        22        22        34         6
        23        23        33        69
        24        24        48         8
        25        25        73         5
        26        26        56         7
        27        27         5        56
        28        28        29        28
        29        29        18        32
        30        30        50        28
        31        31        10        33
        32        32         6        59
        33        33        79        42
        34        34        34        53
        35        35         6        13
        36        36        29        48
        37        37        31        50
        38        38         7        14
        39        39        36        39
        40        40         9        16
        41        41        15        35
        42        42         1        78
        43        43         8        17
        44        44        80        23
        45        45        42        78
        46        46        63        37
        47        47        73        46
        48        48        14        71
        49        49        37        63
        50        50        78        42
        51        51        53        13
        52        52        13        53
        53        53        35        53
        54        54         3        80
        55        55        36        58
        56        56        26        22
        57        57        48        24
        58        58        50        29
        59        59        77        56
        60        60        14        21
        61        61        20        76
        62        62        67         9
        63        63        57        50
        64        64        53        19
        65        65        79        17
        66        66        46        56
        67        67        17        79
        68        68         6        24
        69        69        35        22
        70        70        24         6
        71        71        22        35
        72        72        38        32
        73        73        42        15
        74        74         5         3
        75        75        30        76
        76        76        45        31
        77        77        69        41
        78        78        40        41
        79        79        38        40
        80        80        11        67
        81        81        25        24
        82        82        43        14
        83        83        68        55
        84        84        25        49
        85        85        41         5
        86        86         5         7
        87        87        15        47
        88        88        47        15
        89        89        15        78
        90        90        78        15
        91        91        14        26
        92        92        31        49
        93        93        15        22
        94        94        15        20
        95        95        22        15
        96        96        42        20
        97        97        77        75
        98        98        40         3
        99        99        46        77
       100       100        29        25
       101       101        48        44
       102       102        38        30
       103       103        31        25
       104       104        39        11
       105       105        21        49
       106       106        49        21
       107       107         7        43
       108       108        76        33
       109       109         6        27
       110       110         9        28
       111       111        59         4
       112       112        11        37
       113       113         7        21
       114       114        37        11
       115       115        75        37
       116       116        42        17
       117       117        17        42
       118       118        37         7
       119       119        24        12
       120       120        18        39
       121       121        28        44
       122       122        27         4
       123       123        27        58
       124       124        63        45
       125       125        16         3
       126       126        36        11
       127       127        33        46
       128       128        39        67
       129       129         8        12
       130       130        12        17
       131       131        45        21
       132       132         4        18
       133       133        21        45
       134       134        55        26
       135       135        79        20
       136       136        30        40
       137       137        55        43
       138       138        41         3
       139       139        29        44
       140       140        68        43
       141       141        23        68
       142       142        48        12
       143       143        20        10
       144       144         1        47
       145       145        31        29
       146       146        40        16
       147       147        26        47
       148       148        19        75
       149       149        35        10
       150       150        71        22
