LAMMPS data file via write_data, version 23 Jun 2022, timestep = 10000

80 atoms
4 atom types

-4.809659500466014 4.809659500466014 xlo xhi
-4.809659500466014 4.809659500466014 ylo yhi
-0.1 0.1 zlo zhi

Atoms # sphere

15 1 1.6 0.2441406249999999 -4.496198864902766 -4.732405815491061 0 0 1 0
53 3 1 1 -3.0529438952268038 -4.134198676292615 0 0 0 0
9 1 1.6 0.2441406249999999 -0.9360204055472421 -3.907414680925404 0 0 0 0
72 4 0.7 2.915451895043732 0.06690791785825745 -3.7534499412604747 0 0 0 0
47 3 1 1 0.8887043323513577 -4.100562651943302 0 0 1 0
69 4 0.7 2.915451895043732 1.6549944623999044 -4.205562530257151 0 0 1 0
73 4 0.7 2.915451895043732 2.34355752257746 -4.002749321579958 0 -1 0 0
3 1 1.6 0.2441406249999999 3.22536353503789 -4.5199897837916545 0 0 1 0
32 2 1.3 0.4551661356395083 -4.054054090442806 -3.5819350658687146 0 0 0 0
51 3 1 1 -2.7152241779461836 -3.169312391783076 0 0 1 0
42 3 1 1 -3.4075758434806716 -2.5889368036313005 0 0 0 0
41 3 1 1 -2.1235555739088547 -3.833990709121588 0 0 0 0
64 4 0.7 2.915451895043732 -1.7066662568890751 -3.0056355529996424 0 0 0 0
61 4 0.7 2.915451895043732 -0.8622395711142694 -3.0541578646313186 0 1 0 0
70 4 0.7 2.915451895043732 0.6020321158926336 -3.332400345881118 0 0 1 0
54 3 1 1 -0.1557787952947498 -3.0913614548002997 0 0 0 0
14 1 1.6 0.2441406249999999 1.6231303745390582 -3.200192342881481 0 0 0 0
38 2 1.3 0.4551661356395083 2.8606199010665003 -3.2434447615021362 0 0 1 0
11 1 1.6 0.2441406249999999 4.267246053703356 -3.3715291327998314 0 0 0 0
36 2 1.3 0.4551661356395083 -4.235505541481342 -2.3516653971317054 0 1 1 0
20 1 1.6 0.2441406249999999 -2.2471188969778058 -2.095526822479257 0 0 0 0
40 2 1.3 0.4551661356395083 -0.9542723547339484 -2.318526104416091 0 0 0 0
46 3 1 1 0.6259044560473699 -2.674131978073548 0 0 1 0
45 3 1 1 1.2008364408668317 -2.006952776235135 0 0 0 0
25 2 1.3 0.4551661356395083 2.4572642224925323 -2.0532674216834326 0 0 0 0
39 2 1.3 0.4551661356395083 3.55812342244385 -2.178382578863865 0 0 0 0
4 1 1.6 0.2441406249999999 -3.6626235251864534 -1.1155111723865034 0 1 0 0
78 4 0.7 2.915451895043732 -2.3877707584181183 -1.0245611319620673 0 0 0 0
77 4 0.7 2.915451895043732 -1.572463580837916 -1.2774612676839467 0 0 0 0
44 3 1 1 -0.7146329735007884 -1.2183562470708122 0 1 0 0
48 3 1 1 -1.6600395176948775 -0.5645548346584652 0 0 0 0
27 2 1.3 0.4551661356395083 0.17696585128942122 -1.7293500644569453 0 0 0 0
50 3 1 1 -0.7382509458457838 -0.3348021438159119 0 0 0 0
76 4 0.7 2.915451895043732 -0.21825386967412097 -0.8319609167067878 0 0 0 0
63 4 0.7 2.915451895043732 0.5198973008661003 -0.749375192086017 0 0 0 0
30 2 1.3 0.4551661356395083 1.6463123946353662 -1.0669016531210547 0 0 0 0
8 1 1.6 0.2441406249999999 3.0366411381298315 -0.830557183189963 0 0 0 0
2 1 1.6 0.2441406249999999 4.475485965847374 -1.4048037428568505 0 0 0 0
59 3 1 1 -4.662235379813024 -0.23830886318628508 0 0 0 0
7 1 1.6 0.2441406249999999 -2.6318531175202176 0.14303633492603485 0 0 0 0
12 1 1.6 0.2441406249999999 0.11197236757803619 0.3104986062858508 0 0 0 0
43 3 1 1 1.1245852590832266 -0.26530075569739164 0 0 0 0
1 1 1.6 0.2441406249999999 2.178213980378853 0.29129821906861153 0 0 0 0
66 4 0.7 2.915451895043732 4.040541566713169 -0.30962200535679596 0 0 0 0
58 3 1 1 4.677235890852166 0.6424655982561944 0 -1 0 0
21 2 1.3 0.4551661356395083 -3.8535685698372593 0.37996951993208405 0 0 0 0
56 3 1 1 -1.9951285723328032 1.2349439742576749 0 0 0 0
22 2 1.3 0.4551661356395083 -1.255957986514797 0.5025783514273465 0 0 0 0
60 3 1 1 1.1932904853023283 0.9348495776877845 0 0 0 0
67 4 0.7 2.915451895043732 2.5389679973187738 1.4477895326746717 0 0 0 0
10 1 1.6 0.2441406249999999 3.444550538312657 0.8102384249009837 0 0 0 0
18 1 1.6 0.2441406249999999 -4.308082030914928 1.7053709209629808 0 0 0 0
33 2 1.3 0.4551661356395083 -3.090359295764628 1.4046762214288009 0 1 0 0
74 4 0.7 2.915451895043732 -3.305487243474616 2.3894545756630556 0 0 -1 0
49 3 1 1 -1.365351294344793 1.9204671153282007 0 0 0 0
29 2 1.3 0.4551661356395083 -0.37940803864195694 1.5218577136658862 0 0 0 0
37 2 1.3 0.4551661356395083 0.6639837111719249 1.9461170933802503 0 0 0 0
28 2 1.3 0.4551661356395083 1.7909516412814215 1.7431068614021328 0 0 0 0
79 4 0.7 2.915451895043732 2.4580196284713836 2.3409649820086322 0 0 0 0
55 3 1 1 3.105913167558236 1.9811336969289863 0 0 -1 0
26 2 1.3 0.4551661356395083 4.182811306093551 2.0338495433389028 0 -1 -1 0
57 3 1 1 -3.816972205017523 2.9228649240846556 0 0 0 0
35 2 1.3 0.4551661356395083 -2.9363813058042965 3.595934891186814 0 0 -1 0
13 1 1.6 0.2441406249999999 -2.2852364047046945 2.444352591118239 0 0 0 0
31 2 1.3 0.4551661356395083 -0.40118632016913924 2.6549546115284883 0 0 0 0
24 2 1.3 0.4551661356395083 0.4206994201353229 3.4158472199190575 0 0 0 0
23 2 1.3 0.4551661356395083 1.6816971134426133 3.0264345101132726 0 0 0 0
19 1 1.6 0.2441406249999999 3.259473903843939 3.0710140567686643 0 -1 0 0
5 1 1.6 0.2441406249999999 4.68430803867238 3.380646441569499 0 -1 -1 0
75 4 0.7 2.915451895043732 -4.00170943871302 3.7101760386771057 0 0 -1 0
68 4 0.7 2.915451895043732 -3.219771810974861 4.6459283306603565 0 0 0 0
16 1 1.6 0.2441406249999999 -2.0289702439253405 4.526286279667878 0 0 0 0
34 2 1.3 0.4551661356395083 -1.187111582741959 3.459053908071259 0 0 0 0
6 1 1.6 0.2441406249999999 -0.40256000446088347 4.397893425894929 0 0 -1 0
17 1 1.6 0.2441406249999999 1.3097980546676835 4.43160390534648 0 0 0 0
65 4 0.7 2.915451895043732 2.160967906202215 -4.680803157468653 0 0 1 0
52 3 1 1 2.248098013471859 4.020788224118244 0 1 0 0
80 4 0.7 2.915451895043732 3.0571350328468796 4.139841805508142 0 0 0 0
62 4 0.7 2.915451895043732 3.6972726094976265 4.03189576034798 0 -1 -1 0
71 4 0.7 2.915451895043732 4.212812423122586 4.541031565410861 0 -1 -1 0

Velocities

15 0.008118323054052329 -0.04037665782055066 0 0 0 0
53 -0.21302486752841854 0.002781405043884915 0 0 0 0
9 0.0862465490771843 0.006210091683484625 0 0 0 0
72 0.0013849312477135615 0.09732768431079142 0 0 0 0
47 -0.06328324007194733 -0.0019027612383531664 0 0 0 0
69 0.08139891510389839 0.009305039336104156 0 0 0 0
73 0.251448646586246 -0.0019360577575845556 0 0 0 0
3 -0.0060609628610404295 -0.14546348188369249 0 0 0 0
32 -0.13283632151960156 -0.0016594113359598747 0 0 0 0
51 -0.004038231127104501 -0.036069197029151394 0 0 0 0
42 -0.09280524061618119 0.06285082955492495 0 0 0 0
41 0.08988042569238333 -0.04041985136213145 0 0 0 0
64 0.031111356106462658 0.1240159053023227 0 0 0 0
61 -0.07985864599284938 0.17890101621993434 0 0 0 0
70 -0.005454049973907684 -0.027478247864721625 0 0 0 0
54 -0.07500898288308959 -0.09083755782594762 0 0 0 0
14 -0.02383551884851733 0.0912977865795037 0 0 0 0
38 0.0032022656693308756 -0.21124297034609593 0 0 0 0
11 0.06654232068205591 -0.11467387301585255 0 0 0 0
36 -0.08762728838593788 0.08638330032429707 0 0 0 0
20 0.13359784419617388 -0.14657836763730517 0 0 0 0
40 -0.045117201329757835 -0.032667223136129325 0 0 0 0
46 0.0897642128148688 -0.16395902027239118 0 0 0 0
45 -0.024323263645506837 -0.10434480949973482 0 0 0 0
25 -0.1417672776543553 -0.0023968464318671833 0 0 0 0
39 0.03555799145595308 0.023245701214751276 0 0 0 0
4 0.13607648628582333 -0.043199147475628766 0 0 0 0
78 0.045858325257312225 0.15639523092398439 0 0 0 0
77 0.1654711684014914 0.001485194292803348 0 0 0 0
44 0.02400163805276458 -0.042832384191961365 0 0 0 0
48 -0.10883880784524279 -0.13116824220601703 0 0 0 0
27 -0.0009007987185587054 0.11624067663663126 0 0 0 0
50 -0.13355940540788816 0.04506845562873973 0 0 0 0
76 0.052258045609012586 -0.15906087864524196 0 0 0 0
63 -0.04619973498192433 0.1658745421626018 0 0 0 0
30 -0.018189198257421102 -0.07472026539821933 0 0 0 0
8 -0.16186043018534935 -0.06512885094733573 0 0 0 0
2 0.2369594507733132 -0.20639511262235602 0 0 0 0
59 0.06607112255251858 0.12019949269981617 0 0 0 0
7 0.04246828119144602 0.1216282457642245 0 0 0 0
12 -0.08766977557012103 0.06016832460782296 0 0 0 0
43 -0.01367228093108568 -0.05744700014818759 0 0 0 0
1 0.1471461176656644 -0.0151258534799339 0 0 0 0
66 -0.11435002441836473 -0.028365092133792572 0 0 0 0
58 0.021624270068060315 0.21534255073045833 0 0 0 0
21 -0.008127915548722876 0.04357320065594597 0 0 0 0
56 0.09643928628417575 0.16682998588349587 0 0 0 0
22 -0.05763405358984067 -0.10422016130706688 0 0 0 0
60 0.04433491477092165 0.20827680009533758 0 0 0 0
67 -0.11909617474779646 -0.1430660934673279 0 0 0 0
10 -0.0398342546478448 -0.0027909851404281203 0 0 0 0
18 -0.12990547205030656 0.13931051632258584 0 0 0 0
33 -0.03922940916070308 -0.013889205256300913 0 0 0 0
74 0.04113265962294846 -0.14891485721233752 0 0 0 0
49 0.02092935320248535 -0.006933752728395234 0 0 0 0
29 -0.09389267622689539 0.03858895277118752 0 0 0 0
37 -0.10541980692275234 -0.068645167381904 0 0 0 0
28 0.26736697643655705 0.10687325133307211 0 0 0 0
79 -0.0538661235798032 0.07025347951577479 0 0 0 0
55 0.08905328983851528 0.017620225430377306 0 0 0 0
26 0.0692053943615123 -0.06012695966910676 0 0 0 0
57 -0.11260055336194172 -0.032983346147202296 0 0 0 0
35 0.13009343467427908 -0.10137262884869676 0 0 0 0
13 0.15471084462224 -0.1293129184812297 0 0 0 0
31 -0.024331121271597048 -0.010286903869880811 0 0 0 0
24 -0.2160801035935608 0.04641874485395531 0 0 0 0
23 -0.0728706500631101 -0.0073064431139799385 0 0 0 0
19 0.05867441211987309 0.047233332569592626 0 0 0 0
5 0.02556251985597399 -0.009805463159321784 0 0 0 0
75 0.024543710990533832 0.06103928114270949 0 0 0 0
68 0.12504221191310522 0.04704819248390363 0 0 0 0
16 -0.00471130561169579 -0.07105571182832417 0 0 0 0
34 0.07176078331542415 0.06790722604414463 0 0 0 0
6 -0.23800545146531055 -0.12220569369571053 0 0 0 0
17 -0.05710600672756301 -0.017423508220018855 0 0 0 0
65 -0.017082138824953404 -0.005415135270669388 0 0 0 0
52 -0.09766568698351692 0.14090726758957298 0 0 0 0
80 0.07593313703618766 0.07916721715377245 0 0 0 0
62 0.08229719710053919 0.06701576304562694 0 0 0 0
71 -0.025528360556920315 0.008419186595916239 0 0 0 0
