LAMMPS data file.

     50 atoms
    110 bonds
      0 angles
      0 dihedrals
      0 impropers
      1 atom types
    110 bond types
      0 angle types
      0 dihedral types
      0 improper types
  -4.809660   4.809660 xlo xhi
  -4.809660   4.809660 ylo yhi
  -0.100000   0.100000 zlo zhi

Masses # ['atom_id', 'mass']

1 10000.0

Atoms # ['atomID', 'moleculeID', 'atomType', 'charge', 'x', 'y', 'z']

      9      1      1   0.000000  -0.936020  -3.907415   0.000000
     72      1      1   0.000000   0.066908  -3.753450   0.000000
     47      1      1   0.000000   0.888704  -4.100563   0.000000
     69      1      1   0.000000   1.654994  -4.205563   0.000000
     73      1      1   0.000000   2.343558  -4.002749   0.000000
      3      1      1   0.000000   3.225364  -4.519990   0.000000
     61      1      1   0.000000  -0.862240  -3.054158   0.000000
     70      1      1   0.000000   0.602032  -3.332400   0.000000
     54      1      1   0.000000  -0.155779  -3.091361   0.000000
     14      1      1   0.000000   1.623130  -3.200192   0.000000
     38      1      1   0.000000   2.860620  -3.243445   0.000000
     11      1      1   0.000000   4.267246  -3.371529   0.000000
     40      1      1   0.000000  -0.954272  -2.318526   0.000000
     46      1      1   0.000000   0.625904  -2.674132   0.000000
     45      1      1   0.000000   1.200836  -2.006953   0.000000
     25      1      1   0.000000   2.457264  -2.053267   0.000000
     39      1      1   0.000000   3.558123  -2.178383   0.000000
     44      1      1   0.000000  -0.714633  -1.218356   0.000000
     48      1      1   0.000000  -1.660040  -0.564555   0.000000
     27      1      1   0.000000   0.176966  -1.729350   0.000000
     50      1      1   0.000000  -0.738251  -0.334802   0.000000
     76      1      1   0.000000  -0.218254  -0.831961   0.000000
     30      1      1   0.000000   1.646312  -1.066902   0.000000
      8      1      1   0.000000   3.036641  -0.830557   0.000000
      2      1      1   0.000000   4.475486  -1.404804   0.000000
     59      1      1   0.000000  -4.662235  -0.238309   0.000000
      7      1      1   0.000000  -2.631853   0.143036   0.000000
     12      1      1   0.000000   0.111972   0.310499   0.000000
     43      1      1   0.000000   1.124585  -0.265301   0.000000
      1      1      1   0.000000   2.178214   0.291298   0.000000
     58      1      1   0.000000   4.677236   0.642466   0.000000
     21      1      1   0.000000  -3.853569   0.379970   0.000000
     56      1      1   0.000000  -1.995129   1.234944   0.000000
     22      1      1   0.000000  -1.255958   0.502578   0.000000
     60      1      1   0.000000   1.193290   0.934850   0.000000
     67      1      1   0.000000   2.538968   1.447790   0.000000
     10      1      1   0.000000   3.444551   0.810238   0.000000
     18      1      1   0.000000  -4.308082   1.705371   0.000000
     33      1      1   0.000000  -3.090359   1.404676   0.000000
     49      1      1   0.000000  -1.365351   1.920467   0.000000
     29      1      1   0.000000  -0.379408   1.521858   0.000000
     37      1      1   0.000000   0.663984   1.946117   0.000000
     28      1      1   0.000000   1.790952   1.743107   0.000000
     79      1      1   0.000000   2.458020   2.340965   0.000000
     55      1      1   0.000000   3.105913   1.981134   0.000000
     26      1      1   0.000000   4.182811   2.033850   0.000000
     13      1      1   0.000000  -2.285236   2.444353   0.000000
     19      1      1   0.000000   3.259474   3.071014   0.000000
     17      1      1   0.000000   1.309798   4.431604   0.000000
     65      1      1   0.000000   2.160968  -4.680803   0.000000

Bond Coeffs # ['bondID', 'bondCoeff', 'd']

      1   0.494472   1.422096
      2   0.641411   1.248624
      3   0.627886   1.262001
      4   0.862962   1.076475
      5   0.627886   1.262001
      6   0.554950   1.342372
      7   0.825477   1.100645
      8   0.497212   1.418173
      9   0.859762   1.078477
     10   0.735716   1.165856
     11   0.735716   1.165856
     12   0.767561   1.141415
     13   0.786659   1.127475
     14   1.018901   0.990681
     15   1.018901   0.990681
     16   0.616953   1.273133
     17   0.501138   1.412606
     18   1.671610   0.773450
     19   0.518602   1.388619
     20   1.108057   0.949990
     21   2.156843   0.680912
     22   0.850846   1.084113
     23   0.788232   1.126349
     24   1.650484   0.778385
     25   0.740714   1.161916
     26   0.971279   1.014677
     27   1.273708   0.886064
     28   0.943289   1.029622
     29   0.614693   1.275472
     30   1.246239   0.895776
     31   0.809804   1.111245
     32   0.989630   1.005226
     33   0.502797   1.410274
     34   0.768017   1.141076
     35   1.581335   0.795221
     36   0.489655   1.429074
     37   1.363344   0.856441
     38   1.093179   0.956433
     39   0.988353   1.005875
     40   0.624160   1.265762
     41   0.519089   1.387967
     42   2.075280   0.694163
     43   0.567342   1.327631
     44   1.170853   0.924164
     45   1.170853   0.924164
     46   1.487532   0.819911
     47   0.736958   1.164873
     48   0.762620   1.145107
     49   0.625907   1.263994
     50   0.646136   1.244050
     51   0.924091   1.040262
     52   0.884194   1.063472
     53   0.633225   1.256669
     54   0.691990   1.202126
     55   0.956828   1.022311
     56   0.646483   1.243717
     57   1.289200   0.880724
     58   0.546240   1.353033
     59   1.998118   0.707440
     60   0.860224   1.078188
     61   1.031750   0.984493
     62   0.723986   1.175263
     63   0.723986   1.175263
     64   0.416661   1.549204
     65   0.892344   1.058605
     66   1.546215   0.804202
     67   0.888593   1.060837
     68   0.613286   1.276934
     69   0.814634   1.107946
     70   0.635620   1.254299
     71   0.704257   1.191611
     72   0.578319   1.314971
     73   0.652859   1.237629
     74   0.652859   1.237629
     75   1.932129   0.719419
     76   0.815294   1.107498
     77   1.819425   0.741366
     78   0.673097   1.218881
     79   0.645692   1.244478
     80   0.612553   1.277698
     81   0.923589   1.040544
     82   1.153986   0.930893
     83   0.509354   1.401168
     84   0.797596   1.119718
     85   0.797596   1.119718
     86   0.788767   1.125967
     87   2.049388   0.698535
     88   2.527208   0.629042
     89   2.304747   0.658701
     90   0.694455   1.199991
     91   0.533929   1.368542
     92   1.280040   0.883870
     93   0.922693   1.041050
     94   1.040035   0.980564
     95   0.585190   1.307228
     96   0.922693   1.041050
     97   0.965055   1.017944
     98   0.722422   1.176534
     99   0.478795   1.445191
    100   1.820682   0.741110
    101   0.652209   1.238245
    102   0.814107   1.108305
    103   0.784486   1.129035
    104   0.913944   1.046020
    105   0.877738   1.067377
    106   0.415890   1.550639
    107   1.184979   0.918639
    108   0.524074   1.381350
    109   0.946913   1.027649
    110   0.501252   1.412446

Bonds # ['ID', 'type', 'atom1', 'atom2']

         1         1         7        22
         2         2        12        60
         3         3        59         2
         4         4         3        65
         5         5         2        59
         6         6         7        33
         7         7        55        19
         8         8        14        25
         9         9        73        14
        10        10        47        17
        11        11        17        47
        12        12        60        37
        13        13        14        46
        14        14        17        65
        15        15        65        17
        16        16        38        39
        17        17         8         1
        18        18        47        69
        19        19        26        19
        20        20        48        50
        21        21        72        70
        22        22        79        19
        23        23        29        37
        24        24        67        55
        25        25        47        14
        26        26         9        72
        27        27        54        46
        28        28        70        14
        29        29        40        27
        30        30        28        79
        31        31        54        40
        32        32        60        28
        33        33        30         8
        34        34        48        22
        35        35        70        54
        36        36        10        26
        37        37         9        61
        38        38        30        43
        39        39        69        14
        40        40        14        45
        41        41        11        39
        42        42        69        65
        43        43         3        38
        44        44        59        58
        45        45        58        59
        46        46        47        70
        47        47        12        43
        48        48        37        28
        49        49         7        56
        50        50        58        10
        51        51        45        30
        52        52        49        29
        53        53        38        25
        54        54        48         7
        55        55        73         3
        56        56        56        13
        57        57        46        45
        58        58        25         8
        59        59        61        54
        60        60        55        26
        61        61        50        22
        62        62        18        26
        63        63        26        18
        64        64         8         2
        65        65        49        13
        66        66        67        28
        67        67        45        27
        68        68        25        30
        69        69        25        39
        70        70        18        33
        71        71        43         1
        72        72        33        13
        73        73        58        18
        74        74        18        58
        75        75        50        76
        76        76        67        10
        77        77        61        40
        78        78        10        55
        79        79         7        21
        80        80        21        33
        81        81        56        22
        82        82        56        49
        83        83        21        18
        84        84        21        58
        85        85        58        21
        86        86        40        44
        87        87        72        54
        88        88        44        76
        89        89        70        46
        90        90        39         2
        91        91         1        10
        92        92        44        50
        93        93        69        17
        94        94        27        76
        95        95        12        29
        96        96        17        69
        97        97        59        21
        98        98         1        60
        99        99        39         8
       100       100        79        55
       101       101        14        38
       102       102        56        33
       103       103         9        54
       104       104        46        27
       105       105        50        12
       106       106         3        11
       107       107        73        38
       108       108        12        22
       109       109        44        27
       110       110        38        11
