ITEM: TIMESTEP
0
ITEM: NUMBER OF ATOMS
80
ITEM: BOX BOUNDS pp pp pp
-1.0000000000000000e+01 1.0000000000000000e+01
-1.0000000000000000e+01 1.0000000000000000e+01
-1.0000000000000001e-01 1.0000000000000001e-01
ITEM: ATOMS id type xs ys zs
35 2 0.000598009 0.050733 0.5
78 4 0.356938 0.0498754 0.5
9 1 0.697211 0.022976 0.5
8 1 0.90974 0.00583829 0.5
72 4 0.104427 0.103057 0.5
64 4 0.335521 0.101715 0.5
14 1 0.706081 0.102765 0.5
62 4 0.079261 0.139616 0.5
74 4 0.627782 0.125704 0.5
11 1 0.786526 0.148266 0.5
26 2 0.0207153 0.161554 0.5
57 3 0.0472544 0.205435 0.5
21 2 0.221944 0.206096 0.5
66 4 0.697519 0.202874 0.5
61 4 0.824607 0.176285 0.5
20 1 0.151617 0.219366 0.5
75 4 0.155306 0.219949 0.5
60 3 0.169467 0.224753 0.5
71 4 0.396158 0.235124 0.5
30 2 0.499985 0.252378 0.5
50 3 0.712219 0.259336 0.5
4 1 0.878815 0.238084 0.5
6 1 0.737805 0.291115 0.5
45 3 0.82027 0.284948 0.5
55 3 0.826935 0.292071 0.5
33 2 0.901368 0.284119 0.5
53 3 0.110092 0.318227 0.5
37 2 0.452511 0.354767 0.5
76 4 0.551993 0.338691 0.5
39 2 0.776839 0.330992 0.5
59 3 0.059284 0.385683 0.5
5 1 0.198809 0.385177 0.5
40 2 0.180187 0.404084 0.5
54 3 0.257594 0.388427 0.5
67 4 0.785708 0.397907 0.5
27 2 0.459598 0.466958 0.5
29 2 0.517608 0.434419 0.5
25 2 0.667371 0.498308 0.5
12 1 0.753824 0.521927 0.5
43 3 0.742817 0.52401 0.5
2 1 0.868657 0.510871 0.5
44 3 0.928156 0.512047 0.5
32 2 0.240824 0.531865 0.5
73 4 0.221668 0.567854 0.5
31 2 0.525408 0.539151 0.5
48 3 0.539867 0.537875 0.5
24 2 0.811837 0.54062 0.5
42 3 0.130995 0.625543 0.5
58 3 0.448479 0.591597 0.5
1 1 0.961183 0.603321 0.5
18 1 0.00842785 0.646914 0.5
49 3 0.0533516 0.679969 0.5
19 1 0.154678 0.67639 0.5
56 3 0.188115 0.649163 0.5
16 1 0.294501 0.674632 0.5
41 3 0.291347 0.670969 0.5
63 4 0.419864 0.659915 0.5
34 2 0.425696 0.671932 0.5
3 1 0.949347 0.669301 0.5
15 1 0.0444867 0.687773 0.5
77 4 0.190379 0.702692 0.5
68 4 0.361916 0.721597 0.5
38 2 0.954525 0.702668 0.5
65 4 0.0413397 0.796011 0.5
13 1 0.744978 0.840923 0.5
79 4 0.183427 0.865447 0.5
51 3 0.289634 0.879909 0.5
17 1 0.372873 0.876887 0.5
69 4 0.43862 0.884491 0.5
80 4 0.629671 0.878184 0.5
23 2 0.784369 0.882436 0.5
10 1 0.892003 0.890793 0.5
7 1 0.504546 0.902594 0.5
70 4 0.509664 0.917178 0.5
47 3 0.557324 0.945258 0.5
28 2 0.770031 0.918756 0.5
22 2 0.832743 0.915838 0.5
36 2 0.933237 0.920518 0.5
52 3 0.942103 0.918983 0.5
46 3 0.841494 0.99289 0.5
ITEM: TIMESTEP
10
ITEM: NUMBER OF ATOMS
80
ITEM: BOX BOUNDS pp pp pp
-9.2679661351404654e+00 9.2679661351404654e+00
-9.2679661351404654e+00 9.2679661351404654e+00
-1.0000000000000001e-01 1.0000000000000001e-01
ITEM: ATOMS id type xs ys zs
35 2 0.000598009 0.050733 0.5
78 4 0.356938 0.0498754 0.5
9 1 0.697211 0.0229728 0.5
8 1 0.90974 0.00583829 0.5
72 4 0.104427 0.103057 0.5
64 4 0.335521 0.101715 0.5
14 1 0.706081 0.102768 0.5
62 4 0.079261 0.139616 0.5
74 4 0.627782 0.125704 0.5
11 1 0.786494 0.148243 0.5
26 2 0.0207021 0.161532 0.5
57 3 0.0472676 0.205456 0.5
21 2 0.221959 0.206092 0.5
66 4 0.697519 0.202874 0.5
61 4 0.82464 0.176308 0.5
20 1 0.151251 0.219287 0.5
75 4 0.155404 0.219947 0.5
60 3 0.169718 0.224839 0.5
71 4 0.396158 0.235124 0.5
30 2 0.499985 0.252378 0.5
50 3 0.712162 0.259265 0.5
4 1 0.878779 0.238011 0.5
6 1 0.737817 0.29114 0.5
45 3 0.820169 0.28484 0.5
55 3 0.827036 0.292179 0.5
33 2 0.901403 0.284191 0.5
53 3 0.110092 0.318227 0.5
37 2 0.452511 0.354767 0.5
76 4 0.551993 0.338691 0.5
39 2 0.776884 0.331038 0.5
59 3 0.059284 0.385683 0.5
5 1 0.198903 0.385054 0.5
40 2 0.180068 0.404205 0.5
54 3 0.25762 0.388428 0.5
67 4 0.785708 0.397907 0.5
27 2 0.459597 0.466958 0.5
29 2 0.517609 0.434419 0.5
25 2 0.667371 0.498308 0.5
12 1 0.753975 0.521876 0.5
43 3 0.742622 0.524047 0.5
2 1 0.868663 0.510855 0.5
44 3 0.928179 0.512047 0.5
32 2 0.240841 0.531834 0.5
73 4 0.221651 0.567885 0.5
31 2 0.52525 0.539165 0.5
48 3 0.540025 0.537861 0.5
24 2 0.81185 0.54065 0.5
42 3 0.13098 0.625511 0.5
58 3 0.448479 0.591597 0.5
1 1 0.961147 0.603229 0.5
18 1 0.00844013 0.646838 0.5
49 3 0.0535281 0.679861 0.5
19 1 0.154589 0.676444 0.5
56 3 0.188179 0.649111 0.5
16 1 0.294645 0.6748 0.5
41 3 0.291203 0.670802 0.5
63 4 0.419805 0.659793 0.5
34 2 0.425755 0.672053 0.5
3 1 0.949255 0.669232 0.5
15 1 0.0444035 0.687975 0.5
77 4 0.19042 0.702722 0.5
68 4 0.361916 0.721597 0.5
38 2 0.954547 0.70281 0.5
65 4 0.0413397 0.796011 0.5
13 1 0.744937 0.84088 0.5
79 4 0.183427 0.865447 0.5
51 3 0.289634 0.879909 0.5
17 1 0.372873 0.876887 0.5
69 4 0.43862 0.884491 0.5
80 4 0.629671 0.878184 0.5
23 2 0.784424 0.882374 0.5
10 1 0.89194 0.890717 0.5
7 1 0.504494 0.902447 0.5
70 4 0.509715 0.917324 0.5
47 3 0.557324 0.945258 0.5
28 2 0.769984 0.918847 0.5
22 2 0.832745 0.915865 0.5
36 2 0.933128 0.920597 0.5
52 3 0.942305 0.918967 0.5
46 3 0.841494 0.99289 0.5
ITEM: TIMESTEP
20
ITEM: NUMBER OF ATOMS
80
ITEM: BOX BOUNDS pp pp pp
-8.3553446873445587e+00 8.3553446873445587e+00
-8.3553446873445587e+00 8.3553446873445587e+00
-1.0000000000000001e-01 1.0000000000000001e-01
ITEM: ATOMS id type xs ys zs
35 2 0.000598009 0.050733 0.5
78 4 0.356938 0.0498754 0.5
9 1 0.697205 0.0229228 0.5
8 1 0.909753 0.00584064 0.5
72 4 0.104427 0.103057 0.5
64 4 0.335521 0.101715 0.5
14 1 0.706086 0.102818 0.5
62 4 0.079261 0.139616 0.5
74 4 0.627782 0.125704 0.5
11 1 0.786364 0.148147 0.5
26 2 0.0206433 0.161435 0.5
57 3 0.0473265 0.205554 0.5
21 2 0.222073 0.206061 0.5
66 4 0.697519 0.202874 0.5
61 4 0.82477 0.176404 0.5
20 1 0.149938 0.219015 0.5
75 4 0.155742 0.219938 0.5
60 3 0.170579 0.22515 0.5
71 4 0.396158 0.235124 0.5
30 2 0.499985 0.252378 0.5
50 3 0.71195 0.259002 0.5
4 1 0.878645 0.237736 0.5
6 1 0.737853 0.291223 0.5
45 3 0.819816 0.284456 0.5
55 3 0.827395 0.292558 0.5
33 2 0.901538 0.284466 0.5
53 3 0.110092 0.318227 0.5
37 2 0.452511 0.354767 0.5
76 4 0.551993 0.338691 0.5
39 2 0.777053 0.331224 0.5
59 3 0.059284 0.385683 0.5
5 1 0.199209 0.384615 0.5
40 2 0.179643 0.404637 0.5
54 3 0.257738 0.388435 0.5
67 4 0.785708 0.397907 0.5
27 2 0.459572 0.466973 0.5
29 2 0.517634 0.434404 0.5
25 2 0.667371 0.498308 0.5
12 1 0.754478 0.521687 0.5
43 3 0.741939 0.524178 0.5
2 1 0.868686 0.510783 0.5
44 3 0.928289 0.512049 0.5
32 2 0.240909 0.531705 0.5
73 4 0.221582 0.568014 0.5
31 2 0.524693 0.539214 0.5
48 3 0.540582 0.537812 0.5
24 2 0.811898 0.540778 0.5
42 3 0.130916 0.625373 0.5
58 3 0.448479 0.591597 0.5
1 1 0.961005 0.602855 0.5
18 1 0.00850562 0.646539 0.5
49 3 0.0541675 0.679496 0.5
19 1 0.154253 0.676659 0.5
56 3 0.188418 0.648916 0.5
16 1 0.295149 0.675386 0.5
41 3 0.290699 0.670216 0.5
63 4 0.419597 0.659363 0.5
34 2 0.425963 0.672483 0.5
3 1 0.948896 0.669019 0.5
15 1 0.0441279 0.688705 0.5
77 4 0.190579 0.702839 0.5
68 4 0.361916 0.721597 0.5
38 2 0.954619 0.703331 0.5
65 4 0.0413397 0.796011 0.5
13 1 0.744775 0.840709 0.5
79 4 0.183427 0.865447 0.5
51 3 0.289634 0.879909 0.5
17 1 0.372872 0.876887 0.5
69 4 0.43862 0.884491 0.5
80 4 0.629671 0.878184 0.5
23 2 0.784619 0.882143 0.5
10 1 0.891708 0.890411 0.5
7 1 0.504298 0.901918 0.5
70 4 0.509897 0.917842 0.5
47 3 0.557339 0.94527 0.5
28 2 0.769783 0.919185 0.5
22 2 0.832777 0.915987 0.5
36 2 0.932764 0.920889 0.5
52 3 0.943038 0.918923 0.5
46 3 0.841482 0.992888 0.5
ITEM: TIMESTEP
30
ITEM: NUMBER OF ATOMS
80
ITEM: BOX BOUNDS pp pp pp
-7.6848520327261838e+00 7.6848520327261838e+00
-7.6848520327261838e+00 7.6848520327261838e+00
-1.0000000000000001e-01 1.0000000000000001e-01
ITEM: ATOMS id type xs ys zs
35 2 0.000598009 0.050733 0.5
78 4 0.356938 0.0498754 0.5
9 1 0.697186 0.0227496 0.5
8 1 0.909826 0.00586071 0.5
72 4 0.104427 0.103056 0.5
64 4 0.335521 0.101715 0.5
14 1 0.70608 0.102977 0.5
62 4 0.0792616 0.139616 0.5
74 4 0.627782 0.125704 0.5
11 1 0.786105 0.147952 0.5
26 2 0.0205055 0.161209 0.5
57 3 0.0474636 0.20578 0.5
21 2 0.222405 0.205969 0.5
66 4 0.697519 0.202874 0.5
61 4 0.825054 0.176613 0.5
20 1 0.147396 0.218514 0.5
75 4 0.156364 0.219914 0.5
60 3 0.172167 0.225768 0.5
71 4 0.396158 0.235124 0.5
30 2 0.499985 0.252378 0.5
50 3 0.711525 0.258475 0.5
4 1 0.878402 0.237144 0.5
6 1 0.737905 0.291371 0.5
45 3 0.819153 0.283713 0.5
55 3 0.828092 0.29327 0.5
33 2 0.901813 0.285028 0.5
53 3 0.110092 0.318227 0.5
37 2 0.452511 0.354767 0.5
76 4 0.551993 0.338691 0.5
39 2 0.777359 0.331665 0.5
59 3 0.059284 0.385683 0.5
5 1 0.199742 0.383765 0.5
40 2 0.178826 0.40547 0.5
54 3 0.258023 0.388453 0.5
67 4 0.785708 0.397907 0.5
27 2 0.459468 0.467031 0.5
29 2 0.517738 0.434346 0.5
25 2 0.66737 0.498308 0.5
12 1 0.755373 0.521303 0.5
43 3 0.740641 0.524429 0.5
2 1 0.868727 0.510615 0.5
44 3 0.928557 0.512055 0.5
32 2 0.241057 0.531428 0.5
73 4 0.221435 0.568291 0.5
31 2 0.52363 0.539308 0.5
48 3 0.541645 0.537718 0.5
24 2 0.811993 0.541073 0.5
42 3 0.130773 0.625062 0.5
58 3 0.448479 0.591597 0.5
1 1 0.960701 0.60204 0.5
18 1 0.0086971 0.645883 0.5
49 3 0.0554186 0.678826 0.5
19 1 0.153576 0.677117 0.5
56 3 0.188902 0.648524 0.5
16 1 0.296101 0.676491 0.5
41 3 0.289747 0.66911 0.5
63 4 0.419199 0.658543 0.5
34 2 0.426362 0.673303 0.5
3 1 0.948134 0.668672 0.5
15 1 0.0436448 0.690138 0.5
77 4 0.190917 0.703085 0.5
68 4 0.361916 0.721597 0.5
38 2 0.954726 0.704386 0.5
65 4 0.0413397 0.796011 0.5
13 1 0.744419 0.840315 0.5
79 4 0.183427 0.865447 0.5
51 3 0.289634 0.879909 0.5
17 1 0.372852 0.876885 0.5
69 4 0.43863 0.884491 0.5
80 4 0.629671 0.878184 0.5
23 2 0.784995 0.881679 0.5
10 1 0.891247 0.889749 0.5
7 1 0.503891 0.900875 0.5
70 4 0.510243 0.918829 0.5
47 3 0.55741 0.945328 0.5
28 2 0.769337 0.91989 0.5
22 2 0.832885 0.916277 0.5
36 2 0.932112 0.921475 0.5
52 3 0.94447 0.918856 0.5
46 3 0.841407 0.992873 0.5
ITEM: TIMESTEP
40
ITEM: NUMBER OF ATOMS
80
ITEM: BOX BOUNDS pp pp pp
-7.2156009675527946e+00 7.2156009675527946e+00
-7.2156009675527946e+00 7.2156009675527946e+00
-1.0000000000000001e-01 1.0000000000000001e-01
ITEM: ATOMS id type xs ys zs
35 2 0.000598009 0.050733 0.5
78 4 0.356938 0.0498754 0.5
9 1 0.697145 0.0223794 0.5
8 1 0.910005 0.00595313 0.5
72 4 0.104432 0.103049 0.5
64 4 0.335521 0.101715 0.5
14 1 0.706015 0.103287 0.5
62 4 0.0792738 0.139618 0.5
74 4 0.627782 0.125704 0.5
11 1 0.785727 0.147655 0.5
26 2 0.0202429 0.16081 0.5
57 3 0.0477087 0.206186 0.5
21 2 0.223062 0.205786 0.5
66 4 0.697519 0.202873 0.5
61 4 0.825539 0.17697 0.5
20 1 0.143425 0.217757 0.5
75 4 0.157299 0.219862 0.5
60 3 0.174547 0.22676 0.5
71 4 0.396158 0.235124 0.5
30 2 0.499985 0.252378 0.5
50 3 0.710838 0.25762 0.5
4 1 0.878084 0.236096 0.5
6 1 0.737943 0.291589 0.5
45 3 0.818147 0.282548 0.5
55 3 0.829173 0.294377 0.5
33 2 0.902274 0.28595 0.5
53 3 0.110092 0.318227 0.5
37 2 0.452511 0.354767 0.5
76 4 0.551993 0.338691 0.5
39 2 0.777791 0.332483 0.5
59 3 0.059284 0.385683 0.5
5 1 0.200496 0.382423 0.5
40 2 0.177551 0.406776 0.5
54 3 0.258543 0.388489 0.5
67 4 0.785708 0.397909 0.5
27 2 0.459235 0.467161 0.5
29 2 0.517971 0.434216 0.5
25 2 0.667344 0.498301 0.5
12 1 0.756698 0.520674 0.5
43 3 0.738625 0.524826 0.5
2 1 0.868787 0.510312 0.5
44 3 0.929048 0.512066 0.5
32 2 0.241308 0.530956 0.5
73 4 0.221184 0.568762 0.5
31 2 0.521982 0.539453 0.5
48 3 0.543293 0.537573 0.5
24 2 0.812159 0.541605 0.5
42 3 0.130509 0.624509 0.5
58 3 0.448479 0.591597 0.5
1 1 0.960186 0.600641 0.5
18 1 0.00909257 0.644745 0.5
49 3 0.0573955 0.677817 0.5
19 1 0.152471 0.677892 0.5
56 3 0.189701 0.647888 0.5
16 1 0.297564 0.67819 0.5
41 3 0.288284 0.667411 0.5
63 4 0.418581 0.65727 0.5
34 2 0.426979 0.674577 0.5
3 1 0.946811 0.668203 0.5
15 1 0.0430121 0.692429 0.5
77 4 0.191485 0.703498 0.5
68 4 0.361916 0.721597 0.5
38 2 0.954824 0.706111 0.5
65 4 0.0413397 0.796011 0.5
13 1 0.743796 0.839592 0.5
79 4 0.183427 0.865447 0.5
51 3 0.289621 0.879909 0.5
17 1 0.372778 0.876874 0.5
69 4 0.438651 0.884484 0.5
80 4 0.629671 0.878184 0.5
23 2 0.785588 0.880928 0.5
10 1 0.890513 0.888613 0.5
7 1 0.503252 0.899223 0.5
70 4 0.510773 0.920355 0.5
47 3 0.557586 0.945471 0.5
28 2 0.76857 0.921085 0.5
22 2 0.833112 0.916804 0.5
36 2 0.931169 0.922393 0.5
52 3 0.946732 0.918768 0.5
46 3 0.841214 0.992838 0.5
ITEM: TIMESTEP
50
ITEM: NUMBER OF ATOMS
80
ITEM: BOX BOUNDS pp pp pp
-6.9142654678604210e+00 6.9142654678604210e+00
-6.9142654678604210e+00 6.9142654678604210e+00
-1.0000000000000001e-01 1.0000000000000001e-01
ITEM: ATOMS id type xs ys zs
35 2 0.000601679 0.0507348 0.5
78 4 0.356938 0.0498754 0.5
9 1 0.697076 0.0217589 0.5
8 1 0.910316 0.00617924 0.5
72 4 0.104455 0.103016 0.5
64 4 0.335521 0.101715 0.5
14 1 0.705843 0.103772 0.5
62 4 0.0793146 0.139627 0.5
74 4 0.627781 0.125704 0.5
11 1 0.785254 0.147265 0.5
26 2 0.0198088 0.160219 0.5
57 3 0.0480791 0.206799 0.5
21 2 0.224123 0.205481 0.5
66 4 0.697514 0.202854 0.5
61 4 0.826247 0.177489 0.5
20 1 0.138011 0.216753 0.5
75 4 0.158519 0.21977 0.5
60 3 0.17768 0.228161 0.5
71 4 0.396158 0.235124 0.5
30 2 0.499985 0.252378 0.5
50 3 0.709871 0.256428 0.5
4 1 0.877739 0.234511 0.5
6 1 0.73791 0.291877 0.5
45 3 0.816825 0.280945 0.5
55 3 0.830618 0.2959 0.5
33 2 0.90297 0.287259 0.5
53 3 0.110092 0.318227 0.5
37 2 0.452511 0.354767 0.5
76 4 0.551993 0.338691 0.5
39 2 0.778325 0.333744 0.5
59 3 0.059284 0.385683 0.5
5 1 0.201438 0.380558 0.5
40 2 0.175805 0.408576 0.5
54 3 0.259347 0.388553 0.5
67 4 0.785712 0.397934 0.5
27 2 0.458835 0.467386 0.5
29 2 0.518371 0.433991 0.5
25 2 0.667234 0.49827 0.5
12 1 0.758447 0.51977 0.5
43 3 0.735882 0.525383 0.5
2 1 0.868867 0.509844 0.5
44 3 0.929806 0.512084 0.5
32 2 0.241676 0.530265 0.5
73 4 0.220816 0.569454 0.5
31 2 0.519734 0.539652 0.5
48 3 0.545541 0.537375 0.5
24 2 0.812424 0.542431 0.5
42 3 0.130092 0.623666 0.5
58 3 0.448479 0.591597 0.5
1 1 0.959433 0.598576 0.5
18 1 0.0097522 0.643052 0.5
49 3 0.0601274 0.676468 0.5
19 1 0.150908 0.679027 0.5
56 3 0.190861 0.646984 0.5
16 1 0.29953 0.680481 0.5
41 3 0.286303 0.665111 0.5
63 4 0.417738 0.655532 0.5
34 2 0.427823 0.676314 0.5
3 1 0.944815 0.667635 0.5
15 1 0.0423257 0.695643 0.5
77 4 0.192314 0.704109 0.5
68 4 0.36193 0.721607 0.5
38 2 0.954859 0.708572 0.5
65 4 0.0413397 0.796011 0.5
13 1 0.74286 0.838476 0.5
79 4 0.183427 0.865447 0.5
51 3 0.289559 0.879912 0.5
17 1 0.37265 0.87685 0.5
69 4 0.438674 0.884467 0.5
80 4 0.629671 0.878184 0.5
23 2 0.786414 0.879865 0.5
10 1 0.889505 0.886929 0.5
7 1 0.502396 0.896936 0.5
70 4 0.511462 0.922418 0.5
47 3 0.557919 0.945734 0.5
28 2 0.767439 0.922836 0.5
22 2 0.833483 0.917603 0.5
36 2 0.929963 0.923636 0.5
52 3 0.949855 0.918655 0.5
46 3 0.840861 0.992795 0.5
ITEM: TIMESTEP
60
ITEM: NUMBER OF ATOMS
80
ITEM: BOX BOUNDS pp pp pp
-6.7301195306762924e+00 6.7301195306762924e+00
-6.7301195306762924e+00 6.7301195306762924e+00
-1.0000000000000001e-01 1.0000000000000001e-01
ITEM: ATOMS id type xs ys zs
35 2 0.000631287 0.0507494 0.5
78 4 0.356938 0.0498754 0.5
9 1 0.696978 0.0208608 0.5
8 1 0.910751 0.00657702 0.5
72 4 0.104503 0.102946 0.5
64 4 0.335521 0.101715 0.5
14 1 0.705543 0.104437 0.5
62 4 0.0793956 0.139652 0.5
74 4 0.627766 0.125709 0.5
11 1 0.78472 0.146796 0.5
26 2 0.0191767 0.159435 0.5
57 3 0.0485535 0.207626 0.5
21 2 0.225619 0.205032 0.5
66 4 0.697499 0.20279 0.5
61 4 0.827158 0.178146 0.5
20 1 0.131316 0.215528 0.5
75 4 0.159967 0.219629 0.5
60 3 0.181459 0.229979 0.5
71 4 0.396158 0.235124 0.5
30 2 0.499985 0.252378 0.5
50 3 0.70863 0.254923 0.5
4 1 0.877426 0.232382 0.5
6 1 0.737753 0.292233 0.5
45 3 0.815234 0.278915 0.5
55 3 0.832387 0.297828 0.5
33 2 0.903928 0.28895 0.5
53 3 0.110092 0.318227 0.5
37 2 0.452511 0.354767 0.5
76 4 0.551993 0.338691 0.5
39 2 0.778941 0.335457 0.5
59 3 0.059284 0.385683 0.5
5 1 0.202519 0.378176 0.5
40 2 0.173614 0.410855 0.5
54 3 0.260458 0.388656 0.5
67 4 0.785721 0.398016 0.5
27 2 0.458246 0.467712 0.5
29 2 0.518958 0.433662 0.5
25 2 0.666979 0.498195 0.5
12 1 0.760549 0.518574 0.5
43 3 0.732484 0.526119 0.5
2 1 0.868996 0.509192 0.5
44 3 0.930846 0.512093 0.5
32 2 0.242163 0.52935 0.5
73 4 0.220329 0.570369 0.5
31 2 0.516923 0.539903 0.5
48 3 0.548354 0.537126 0.5
24 2 0.812799 0.543591 0.5
42 3 0.129512 0.622514 0.5
58 3 0.448479 0.591597 0.5
1 1 0.958441 0.595842 0.5
18 1 0.0107115 0.640792 0.5
49 3 0.063556 0.674801 0.5
19 1 0.148937 0.68053 0.5
56 3 0.192386 0.645814 0.5
16 1 0.301929 0.6833 0.5
41 3 0.28384 0.662249 0.5
63 4 0.416682 0.653356 0.5
34 2 0.428879 0.67849 0.5
3 1 0.942102 0.666996 0.5
15 1 0.0416328 0.699781 0.5
77 4 0.193414 0.704922 0.5
68 4 0.361995 0.721649 0.5
38 2 0.954801 0.711762 0.5
65 4 0.0413397 0.796011 0.5
13 1 0.741594 0.836947 0.5
79 4 0.183427 0.865447 0.5
51 3 0.289416 0.879917 0.5
17 1 0.372472 0.876808 0.5
69 4 0.438691 0.884437 0.5
80 4 0.629671 0.878184 0.5
23 2 0.787465 0.878489 0.5
10 1 0.888267 0.884662 0.5
7 1 0.501365 0.89404 0.5
70 4 0.512275 0.924974 0.5
47 3 0.558441 0.94614 0.5
28 2 0.76593 0.925146 0.5
22 2 0.834002 0.918678 0.5
36 2 0.928535 0.925177 0.5
52 3 0.953794 0.918511 0.5
46 3 0.840327 0.99277 0.5
ITEM: TIMESTEP
70
ITEM: NUMBER OF ATOMS
80
ITEM: BOX BOUNDS pp pp pp
-6.6455314916944834e+00 6.6455314916944834e+00
-6.6455314916944834e+00 6.6455314916944834e+00
-1.0000000000000001e-01 1.0000000000000001e-01
ITEM: ATOMS id type xs ys zs
35 2 0.000708804 0.0507875 0.5
78 4 0.356938 0.0498754 0.5
9 1 0.696851 0.0196853 0.5
8 1 0.911291 0.00716677 0.5
72 4 0.104583 0.102829 0.5
64 4 0.335521 0.101715 0.5
14 1 0.705108 0.105266 0.5
62 4 0.0795221 0.139698 0.5
74 4 0.627719 0.125722 0.5
11 1 0.784159 0.146269 0.5
26 2 0.0183423 0.15847 0.5
57 3 0.0490591 0.20865 0.5
21 2 0.22752 0.204425 0.5
66 4 0.69747 0.202656 0.5
61 4 0.828236 0.178908 0.5
20 1 0.123668 0.214131 0.5
75 4 0.16157 0.21943 0.5
60 3 0.185726 0.232194 0.5
71 4 0.396158 0.235124 0.5
30 2 0.499985 0.252378 0.5
50 3 0.707142 0.253154 0.5
4 1 0.877193 0.229764 0.5
6 1 0.737436 0.292653 0.5
45 3 0.813436 0.276501 0.5
55 3 0.834423 0.300115 0.5
33 2 0.905151 0.290983 0.5
53 3 0.110092 0.318227 0.5
37 2 0.452511 0.354767 0.5
76 4 0.551993 0.338691 0.5
39 2 0.779622 0.337589 0.5
59 3 0.059284 0.385683 0.5
5 1 0.203681 0.375316 0.5
40 2 0.171038 0.413561 0.5
54 3 0.261871 0.38881 0.5
67 4 0.785739 0.398179 0.5
27 2 0.457454 0.468125 0.5
29 2 0.519733 0.433227 0.5
25 2 0.666543 0.49806 0.5
12 1 0.76289 0.517081 0.5
43 3 0.728563 0.52704 0.5
2 1 0.869206 0.508343 0.5
44 3 0.932151 0.512059 0.5
32 2 0.242761 0.528227 0.5
73 4 0.219731 0.571492 0.5
31 2 0.513643 0.540213 0.5
48 3 0.551655 0.536835 0.5
24 2 0.813275 0.545105 0.5
42 3 0.128783 0.621065 0.5
58 3 0.448476 0.591599 0.5
1 1 0.957235 0.592515 0.5
18 1 0.0119762 0.63801 0.5
49 3 0.0675362 0.672855 0.5
19 1 0.146673 0.682383 0.5
56 3 0.194242 0.644408 0.5
16 1 0.304654 0.686544 0.5
41 3 0.280964 0.658908 0.5
63 4 0.415442 0.650802 0.5
34 2 0.430118 0.681045 0.5
3 1 0.938705 0.666314 0.5
15 1 0.0409524 0.704763 0.5
77 4 0.194771 0.705911 0.5
68 4 0.362145 0.721747 0.5
38 2 0.954645 0.715604 0.5
65 4 0.0413397 0.796011 0.5
13 1 0.74001 0.835035 0.5
79 4 0.183427 0.865447 0.5
51 3 0.289175 0.879926 0.5
17 1 0.372251 0.876746 0.5
69 4 0.438686 0.884398 0.5
80 4 0.629671 0.878184 0.5
23 2 0.788696 0.876825 0.5
10 1 0.886894 0.881822 0.5
7 1 0.500224 0.890615 0.5
70 4 0.513164 0.927944 0.5
47 3 0.559162 0.946688 0.5
28 2 0.764063 0.927962 0.5
22 2 0.834645 0.920023 0.5
36 2 0.926947 0.926971 0.5
52 3 0.958433 0.918328 0.5
46 3 0.839608 0.992788 0.5
ITEM: TIMESTEP
80
ITEM: NUMBER OF ATOMS
80
ITEM: BOX BOUNDS pp pp pp
-6.6475279977898438e+00 6.6475279977898438e+00
-6.6475279977898438e+00 6.6475279977898438e+00
-1.0000000000000001e-01 1.0000000000000001e-01
ITEM: ATOMS id type xs ys zs
35 2 0.000846056 0.0508548 0.5
78 4 0.356938 0.0498754 0.5
9 1 0.6967 0.0182606 0.5
8 1 0.911909 0.00795272 0.5
72 4 0.104695 0.102665 0.5
64 4 0.335521 0.101715 0.5
14 1 0.704542 0.106229 0.5
62 4 0.0796895 0.139761 0.5
74 4 0.627629 0.125746 0.5
11 1 0.783607 0.145704 0.5
26 2 0.0173251 0.157354 0.5
57 3 0.0495126 0.209838 0.5
21 2 0.229736 0.203659 0.5
66 4 0.697423 0.202436 0.5
61 4 0.829425 0.179729 0.5
20 1 0.115507 0.212627 0.5
75 4 0.163247 0.219168 0.5
60 3 0.190278 0.234755 0.5
71 4 0.396158 0.235124 0.5
30 2 0.499985 0.252378 0.5
50 3 0.70545 0.251185 0.5
4 1 0.877073 0.226765 0.5
6 1 0.736954 0.293131 0.5
45 3 0.811503 0.273782 0.5
55 3 0.836643 0.30268 0.5
33 2 0.906611 0.293288 0.5
53 3 0.110092 0.318227 0.5
37 2 0.452511 0.354767 0.5
76 4 0.551993 0.338691 0.5
39 2 0.780355 0.340065 0.5
59 3 0.059284 0.385683 0.5
5 1 0.204865 0.372055 0.5
40 2 0.168169 0.416608 0.5
54 3 0.263556 0.389025 0.5
67 4 0.785768 0.398442 0.5
27 2 0.456468 0.468598 0.5
29 2 0.520675 0.432699 0.5
25 2 0.665917 0.497857 0.5
12 1 0.765341 0.515301 0.5
43 3 0.724293 0.528144 0.5
2 1 0.869515 0.507303 0.5
44 3 0.933683 0.51195 0.5
32 2 0.243451 0.526931 0.5
73 4 0.219041 0.572788 0.5
31 2 0.510036 0.540576 0.5
48 3 0.555327 0.536511 0.5
24 2 0.813827 0.546969 0.5
42 3 0.127944 0.619362 0.5
58 3 0.448455 0.591616 0.5
1 1 0.955856 0.588726 0.5
18 1 0.0135169 0.634822 0.5
49 3 0.0718772 0.670692 0.5
19 1 0.14425 0.684539 0.5
56 3 0.196355 0.642823 0.5
16 1 0.307576 0.69008 0.5
41 3 0.277779 0.655205 0.5
63 4 0.414062 0.647959 0.5
34 2 0.431498 0.683888 0.5
3 1 0.934733 0.665621 0.5
15 1 0.0402853 0.710426 0.5
77 4 0.196347 0.707027 0.5
68 4 0.362409 0.721913 0.5
38 2 0.954406 0.719955 0.5
65 4 0.0413397 0.796011 0.5
13 1 0.738151 0.832811 0.5
79 4 0.183427 0.865447 0.5
51 3 0.28883 0.879939 0.5
17 1 0.371993 0.876663 0.5
69 4 0.438646 0.884358 0.5
80 4 0.629671 0.878184 0.5
23 2 0.790052 0.87492 0.5
10 1 0.885494 0.878467 0.5
7 1 0.499049 0.886782 0.5
70 4 0.51408 0.931219 0.5
47 3 0.560063 0.947356 0.5
28 2 0.761891 0.931173 0.5
22 2 0.835364 0.921611 0.5
36 2 0.925276 0.928954 0.5
52 3 0.963592 0.9181 0.5
46 3 0.838721 0.992865 0.5
ITEM: TIMESTEP
90
ITEM: NUMBER OF ATOMS
80
ITEM: BOX BOUNDS pp pp pp
-6.7173375647353311e+00 6.7173375647353311e+00
-6.7173375647353311e+00 6.7173375647353311e+00
-1.0000000000000001e-01 1.0000000000000001e-01
ITEM: ATOMS id type xs ys zs
35 2 0.00104453 0.0509516 0.5
78 4 0.356938 0.0498754 0.5
9 1 0.696527 0.0166405 0.5
8 1 0.912577 0.00892474 0.5
72 4 0.104836 0.102459 0.5
64 4 0.335521 0.101715 0.5
14 1 0.703855 0.107289 0.5
62 4 0.0798776 0.139818 0.5
74 4 0.627493 0.125782 0.5
11 1 0.783096 0.145124 0.5
26 2 0.0161631 0.156125 0.5
57 3 0.049834 0.211148 0.5
21 2 0.232167 0.202738 0.5
66 4 0.697362 0.202122 0.5
61 4 0.830667 0.180567 0.5
20 1 0.107281 0.211107 0.5
75 4 0.164925 0.218844 0.5
60 3 0.194906 0.237588 0.5
71 4 0.396158 0.235124 0.5
30 2 0.499985 0.252378 0.5
50 3 0.703609 0.249089 0.5
4 1 0.87708 0.223532 0.5
6 1 0.736318 0.29366 0.5
45 3 0.809508 0.270856 0.5
55 3 0.838965 0.305418 0.5
33 2 0.908261 0.295778 0.5
53 3 0.110092 0.318227 0.5
37 2 0.452511 0.354767 0.5
76 4 0.551993 0.338691 0.5
39 2 0.781133 0.342777 0.5
59 3 0.059284 0.385683 0.5
5 1 0.206019 0.368492 0.5
40 2 0.16511 0.419889 0.5
54 3 0.265461 0.389306 0.5
67 4 0.785806 0.398814 0.5
27 2 0.455317 0.469101 0.5
29 2 0.521749 0.432097 0.5
25 2 0.66512 0.497582 0.5
12 1 0.767775 0.513258 0.5
43 3 0.719841 0.529411 0.5
2 1 0.869918 0.506082 0.5
44 3 0.93539 0.511742 0.5
32 2 0.244207 0.525511 0.5
73 4 0.218285 0.574208 0.5
31 2 0.506259 0.540976 0.5
48 3 0.559235 0.536165 0.5
24 2 0.814438 0.549162 0.5
42 3 0.127047 0.617469 0.5
58 3 0.4484 0.591661 0.5
1 1 0.954361 0.58464 0.5
18 1 0.0152728 0.631389 0.5
49 3 0.0763755 0.668377 0.5
19 1 0.141802 0.686932 0.5
56 3 0.198627 0.641129 0.5
16 1 0.310558 0.693766 0.5
41 3 0.2744 0.651276 0.5
63 4 0.412594 0.644932 0.5
34 2 0.432966 0.686914 0.5
3 1 0.930355 0.664948 0.5
15 1 0.0396192 0.716541 0.5
77 4 0.198091 0.708214 0.5
68 4 0.362806 0.722157 0.5
38 2 0.954115 0.724631 0.5
65 4 0.0413398 0.796021 0.5
13 1 0.736077 0.830381 0.5
79 4 0.183427 0.865447 0.5
51 3 0.28839 0.879955 0.5
17 1 0.371706 0.876563 0.5
69 4 0.438561 0.884326 0.5
80 4 0.629671 0.878184 0.5
23 2 0.791474 0.872843 0.5
10 1 0.884173 0.874693 0.5
7 1 0.497922 0.882688 0.5
70 4 0.514974 0.934677 0.5
47 3 0.561107 0.948108 0.5
28 2 0.759495 0.934626 0.5
22 2 0.836113 0.923403 0.5
36 2 0.92359 0.931049 0.5
52 3 0.969059 0.917819 0.5
46 3 0.837696 0.993013 0.5
ITEM: TIMESTEP
100
ITEM: NUMBER OF ATOMS
80
ITEM: BOX BOUNDS pp pp pp
-6.8235553352534426e+00 6.8235553352534426e+00
-6.8235553352534426e+00 6.8235553352534426e+00
-1.0000000000000001e-01 1.0000000000000001e-01
ITEM: ATOMS id type xs ys zs
35 2 0.00129844 0.0510746 0.5
78 4 0.356938 0.0498754 0.5
9 1 0.696325 0.0148989 0.5
8 1 0.913273 0.0100658 0.5
72 4 0.105 0.102218 0.5
64 4 0.335521 0.101715 0.5
14 1 0.703057 0.108408 0.5
62 4 0.0800685 0.13984 0.5
74 4 0.627315 0.125828 0.5
11 1 0.782646 0.144544 0.5
26 2 0.014892 0.154816 0.5
57 3 0.0499554 0.212545 0.5
21 2 0.234737 0.201674 0.5
66 4 0.697288 0.201709 0.5
61 4 0.831907 0.181387 0.5
20 1 0.0993538 0.209656 0.5
75 4 0.166547 0.218462 0.5
60 3 0.199437 0.240615 0.5
71 4 0.396158 0.235124 0.5
30 2 0.499985 0.252378 0.5
50 3 0.701666 0.246931 0.5
4 1 0.877216 0.220213 0.5
6 1 0.735547 0.294233 0.5
45 3 0.807512 0.267823 0.5
55 3 0.841323 0.308223 0.5
33 2 0.91005 0.298367 0.5
53 3 0.110092 0.318227 0.5
37 2 0.452511 0.354767 0.5
76 4 0.551993 0.338691 0.5
39 2 0.781952 0.345613 0.5
59 3 0.059284 0.385683 0.5
5 1 0.207104 0.364728 0.5
40 2 0.161956 0.423304 0.5
54 3 0.26753 0.389656 0.5
67 4 0.785854 0.399298 0.5
27 2 0.454041 0.469611 0.5
29 2 0.522917 0.431443 0.5
25 2 0.664188 0.497234 0.5
12 1 0.770091 0.510981 0.5
43 3 0.715343 0.530819 0.5
2 1 0.870396 0.504695 0.5
44 3 0.937224 0.511418 0.5
32 2 0.245004 0.524014 0.5
73 4 0.217488 0.575705 0.5
31 2 0.502444 0.541393 0.5
48 3 0.563256 0.535809 0.5
24 2 0.815094 0.551653 0.5
42 3 0.126148 0.615444 0.5
58 3 0.448302 0.591744 0.5
1 1 0.952802 0.58042 0.5
18 1 0.0171797 0.627866 0.5
49 3 0.0808485 0.665978 0.5
19 1 0.13944 0.689501 0.5
56 3 0.200963 0.639381 0.5
16 1 0.313483 0.697478 0.5
41 3 0.270935 0.647243 0.5
63 4 0.411083 0.641819 0.5
34 2 0.434477 0.690027 0.5
3 1 0.925741 0.664314 0.5
15 1 0.0389488 0.722852 0.5
77 4 0.199949 0.70943 0.5
68 4 0.363347 0.722478 0.5
38 2 0.953791 0.72947 0.5
65 4 0.0413409 0.796072 0.5
13 1 0.733853 0.827848 0.5
79 4 0.183427 0.865447 0.5
51 3 0.287873 0.879975 0.5
17 1 0.371394 0.876447 0.5
69 4 0.438425 0.884314 0.5
80 4 0.629671 0.878184 0.5
23 2 0.792913 0.870666 0.5
10 1 0.883012 0.870611 0.5
7 1 0.49691 0.878475 0.5
70 4 0.51581 0.938211 0.5
47 3 0.562249 0.948895 0.5
28 2 0.756971 0.938155 0.5
22 2 0.836852 0.925351 0.5
36 2 0.921942 0.933186 0.5
52 3 0.974641 0.917481 0.5
46 3 0.836568 0.993236 0.5
ITEM: TIMESTEP
110
ITEM: NUMBER OF ATOMS
80
ITEM: BOX BOUNDS pp pp pp
-6.9277088716184174e+00 6.9277088716184174e+00
-6.9277088716184174e+00 6.9277088716184174e+00
-1.0000000000000001e-01 1.0000000000000001e-01
ITEM: ATOMS id type xs ys zs
35 2 0.00160035 0.0512199 0.5
78 4 0.356938 0.0498754 0.5
9 1 0.696083 0.0130993 0.5
8 1 0.913978 0.0113626 0.5
72 4 0.105181 0.10195 0.5
64 4 0.335521 0.101715 0.5
14 1 0.702156 0.109556 0.5
62 4 0.0802514 0.139811 0.5
74 4 0.627099 0.125882 0.5
11 1 0.782271 0.143974 0.5
26 2 0.0135295 0.153442 0.5
57 3 0.049823 0.214013 0.5
21 2 0.237388 0.200481 0.5
66 4 0.697205 0.201196 0.5
61 4 0.833104 0.182164 0.5
20 1 0.0919281 0.208314 0.5
75 4 0.168081 0.218027 0.5
60 3 0.203807 0.243789 0.5
71 4 0.396158 0.235124 0.5
30 2 0.499985 0.252378 0.5
50 3 0.69965 0.244751 0.5
4 1 0.877483 0.216926 0.5
6 1 0.734661 0.29485 0.5
45 3 0.805552 0.264762 0.5
55 3 0.843673 0.311015 0.5
33 2 0.911937 0.300993 0.5
53 3 0.110092 0.318227 0.5
37 2 0.452511 0.354767 0.5
76 4 0.551993 0.338691 0.5
39 2 0.782817 0.34848 0.5
59 3 0.059284 0.385683 0.5
5 1 0.208101 0.360834 0.5
40 2 0.158769 0.426783 0.5
54 3 0.26972 0.390071 0.5
67 4 0.785909 0.399899 0.5
27 2 0.452676 0.470111 0.5
29 2 0.524145 0.430755 0.5
25 2 0.663151 0.496811 0.5
12 1 0.772231 0.508493 0.5
43 3 0.710884 0.532353 0.5
2 1 0.87093 0.503155 0.5
44 3 0.939152 0.510961 0.5
32 2 0.245822 0.522477 0.5
73 4 0.21667 0.577242 0.5
31 2 0.498678 0.541813 0.5
48 3 0.567304 0.53545 0.5
24 2 0.815784 0.554419 0.5
42 3 0.125277 0.613324 0.5
58 3 0.448157 0.59187 0.5
1 1 0.951214 0.576185 0.5
18 1 0.0191938 0.624355 0.5
49 3 0.0851753 0.663541 0.5
19 1 0.137235 0.692201 0.5
56 3 0.203288 0.637618 0.5
16 1 0.316272 0.701138 0.5
41 3 0.267471 0.643189 0.5
63 4 0.409562 0.638686 0.5
34 2 0.435998 0.693161 0.5
3 1 0.921001 0.663715 0.5
15 1 0.0382966 0.729164 0.5
77 4 0.201879 0.71065 0.5
68 4 0.364043 0.722875 0.5
38 2 0.953431 0.734386 0.5
65 4 0.0413445 0.796195 0.5
13 1 0.731517 0.825263 0.5
79 4 0.183427 0.865447 0.5
51 3 0.287293 0.879998 0.5
17 1 0.371058 0.876318 0.5
69 4 0.438234 0.884333 0.5
80 4 0.629671 0.878184 0.5
23 2 0.794331 0.868446 0.5
10 1 0.882031 0.866293 0.5
7 1 0.496053 0.874235 0.5
70 4 0.516568 0.94175 0.5
47 3 0.563455 0.949683 0.5
28 2 0.754408 0.941654 0.5
22 2 0.837554 0.927416 0.5
36 2 0.920361 0.935309 0.5
52 3 0.980234 0.917097 0.5
46 3 0.835364 0.993539 0.5
ITEM: TIMESTEP
120
ITEM: NUMBER OF ATOMS
80
ITEM: BOX BOUNDS pp pp pp
-6.9936295114686233e+00 6.9936295114686233e+00
-6.9936295114686233e+00 6.9936295114686233e+00
-1.0000000000000001e-01 1.0000000000000001e-01
ITEM: ATOMS id type xs ys zs
35 2 0.00194669 0.0513851 0.5
78 4 0.356938 0.0498754 0.5
9 1 0.695785 0.0112837 0.5
8 1 0.914685 0.0128141 0.5
72 4 0.105377 0.10166 0.5
64 4 0.335521 0.101715 0.5
14 1 0.70115 0.110718 0.5
62 4 0.0804222 0.139715 0.5
74 4 0.626848 0.125944 0.5
11 1 0.781977 0.143415 0.5
26 2 0.0120818 0.152002 0.5
57 3 0.0493922 0.215563 0.5
21 2 0.240095 0.199167 0.5
66 4 0.697118 0.200576 0.5
61 4 0.834234 0.182889 0.5
20 1 0.085062 0.207078 0.5
75 4 0.169518 0.217541 0.5
60 3 0.208042 0.247101 0.5
71 4 0.396158 0.235124 0.5
30 2 0.499985 0.252378 0.5
50 3 0.697565 0.242566 0.5
4 1 0.877891 0.21372 0.5
6 1 0.733672 0.295514 0.5
45 3 0.803654 0.261699 0.5
55 3 0.845989 0.313772 0.5
33 2 0.913905 0.303624 0.5
53 3 0.110092 0.318227 0.5
37 2 0.452511 0.354767 0.5
76 4 0.551993 0.338691 0.5
39 2 0.783733 0.35134 0.5
59 3 0.059284 0.385683 0.5
5 1 0.209006 0.356845 0.5
40 2 0.155574 0.430293 0.5
54 3 0.272011 0.390549 0.5
67 4 0.785972 0.400624 0.5
27 2 0.451241 0.470588 0.5
29 2 0.525414 0.430046 0.5
25 2 0.662013 0.496303 0.5