ITEM: TIMESTEP
500
ITEM: NUMBER OF ATOMS
67
ITEM: BOX BOUNDS pp pp pp
-4.8058992384247281e+00 4.8058992384247281e+00
-4.8066881021176311e+00 4.8066881021176311e+00
-1.0000000000000001e-01 1.0000000000000001e-01
ITEM: ATOMS id type xs ys zs
48 1 0.999501 0.0377232 0.500963
36 1 0.120203 0.0723866 0.500638
44 1 0.411588 0.0860778 0.499663
50 1 0.543001 0.00136881 0.499404
3 1 0.638728 0.0918266 0.499914
58 1 0.719882 0.0144274 0.501163
34 1 0.83211 0.0678248 0.499329
65 1 0.912466 0.0221647 0.500456
8 1 0.0711927 0.183739 0.499882
23 1 0.210223 0.150079 0.499458
35 1 0.416366 0.193085 0.499985
47 1 0.498161 0.108123 0.500152
68 1 0.696044 0.195191 0.500694
70 1 0.736731 0.0957342 0.500443
1 1 0.812011 0.194836 0.500219
27 1 0.946723 0.130109 0.498847
63 1 0.0517531 0.299539 0.49946
32 1 0.102439 0.372693 0.499987
19 1 0.294369 0.252852 0.499865
39 1 0.53905 0.203901 0.498342
43 1 0.644402 0.248284 0.500168
67 1 0.563214 0.294256 0.500453
61 1 0.713337 0.263223 0.49976
26 1 0.953289 0.259813 0.500036
60 1 0.000408886 0.355523 0.49947
17 1 0.241098 0.388327 0.499866
9 1 0.450448 0.334126 0.499535
33 1 0.575772 0.382657 0.500238
31 1 0.686907 0.358024 0.499907
20 1 0.822864 0.354802 0.500114
73 1 0.930845 0.372605 0.500447
56 1 0.910907 0.450149 0.498692
15 1 0.026994 0.485223 0.50045
25 1 0.157034 0.485819 0.500147
30 1 0.265007 0.528366 0.500479
13 1 0.396684 0.476139 0.500436
52 1 0.515299 0.4684 0.499852
4 1 0.648814 0.492856 0.500203
64 1 0.74423 0.436504 0.500343
6 1 0.794491 0.534911 0.498935
7 1 0.132043 0.609076 0.500875
24 1 0.2895 0.653252 0.499739
77 1 0.334798 0.56708 0.501457
42 1 0.541096 0.567605 0.500807
59 1 0.612461 0.62403 0.499403
45 1 0.703766 0.614547 0.500467
10 1 0.974496 0.626308 0.501392
5 1 0.0423234 0.755109 0.499836
38 1 0.187697 0.738544 0.500089
57 1 0.560117 0.730648 0.500326
28 1 0.674534 0.70908 0.499379
2 1 0.806575 0.680088 0.50055
55 1 0.91722 0.737624 0.500211
40 1 0.137935 0.848002 0.500491
29 1 0.314035 0.774584 0.499188
14 1 0.451076 0.805443 0.500574
16 1 0.629182 0.839517 0.499951
49 1 0.729741 0.773056 0.499369
69 1 0.737978 0.866448 0.500754
11 1 0.844444 0.84327 0.500623
37 1 0.0948118 0.955267 0.499272
18 1 0.418673 0.952649 0.500054
41 1 0.540544 0.904834 0.500323
46 1 0.635628 0.959722 0.50026
51 1 0.724186 0.928334 0.499769
66 1 0.797108 0.978006 0.499333
21 1 0.964202 0.932654 0.500248
ITEM: TIMESTEP
750
ITEM: NUMBER OF ATOMS
67
ITEM: BOX BOUNDS pp pp pp
-4.8046976566743469e+00 4.8046976566743469e+00
-4.8012808637504536e+00 4.8012808637504536e+00
-1.0000000000000001e-01 1.0000000000000001e-01
ITEM: ATOMS id type xs ys zs
48 1 0.999983 0.0392151 0.500565
36 1 0.120992 0.0736108 0.501133
44 1 0.411571 0.0859954 0.50123
50 1 0.542979 0.000790323 0.499624
3 1 0.638746 0.0916821 0.498209
58 1 0.720006 0.0144041 0.502568
34 1 0.832006 0.0675562 0.499425
65 1 0.91271 0.0230647 0.499931
8 1 0.0713156 0.184392 0.499392
23 1 0.210421 0.151068 0.498687
35 1 0.416503 0.193479 0.499818
47 1 0.497629 0.107897 0.501046
68 1 0.696095 0.194751 0.500788
70 1 0.736844 0.0959989 0.49924
1 1 0.81214 0.194831 0.500835
27 1 0.946615 0.130442 0.499482
63 1 0.0514635 0.29961 0.501021
32 1 0.101787 0.373453 0.499633
19 1 0.294301 0.253549 0.499574
39 1 0.538718 0.203139 0.497693
43 1 0.644211 0.248398 0.49939
67 1 0.562443 0.293676 0.500569
61 1 0.713483 0.262964 0.500953
26 1 0.953068 0.260572 0.500254
60 1 0.000385224 0.356006 0.500281
17 1 0.241494 0.388548 0.499488
9 1 0.449986 0.334777 0.499144
33 1 0.575376 0.38291 0.503843
31 1 0.686884 0.358244 0.500782
20 1 0.822394 0.354601 0.500914
73 1 0.930534 0.372752 0.498628
56 1 0.910088 0.451155 0.499183
15 1 0.026098 0.485981 0.501378
25 1 0.156928 0.485908 0.500377
30 1 0.265074 0.528712 0.50024
13 1 0.39752 0.476816 0.501384
52 1 0.516156 0.468681 0.501741
4 1 0.64888 0.492922 0.499371
64 1 0.744835 0.436784 0.498853
6 1 0.795075 0.534566 0.498026
7 1 0.131796 0.609272 0.500934
24 1 0.290022 0.654202 0.500626
77 1 0.334674 0.567671 0.501896
42 1 0.540783 0.568652 0.502296
59 1 0.61322 0.622883 0.496908
45 1 0.704607 0.614595 0.499521
10 1 0.975381 0.626935 0.50161
5 1 0.042366 0.756641 0.500165
38 1 0.187999 0.739895 0.500421
57 1 0.559803 0.728735 0.498433
28 1 0.674672 0.708525 0.500122
2 1 0.807384 0.680704 0.499263
55 1 0.917418 0.738616 0.500139
40 1 0.138637 0.849273 0.501755
29 1 0.315039 0.77579 0.497103
14 1 0.451829 0.805102 0.50282
16 1 0.629139 0.839229 0.500894
49 1 0.729952 0.772867 0.49911
69 1 0.738513 0.866387 0.500972
11 1 0.844563 0.843082 0.50156
37 1 0.0957101 0.956265 0.498704
18 1 0.418609 0.952261 0.499347
41 1 0.540303 0.904715 0.499987
46 1 0.635903 0.959261 0.50089
51 1 0.724501 0.928206 0.498887
66 1 0.796927 0.977736 0.501263
21 1 0.965307 0.933471 0.50159
ITEM: TIMESTEP
1000
ITEM: NUMBER OF ATOMS
67
ITEM: BOX BOUNDS pp pp pp
-4.8034960749239648e+00 4.8034960749239648e+00
-4.8042424518627431e+00 4.8042424518627431e+00
-1.0000000000000001e-01 1.0000000000000001e-01
ITEM: ATOMS id type xs ys zs
48 1 1.00093 0.0386144 0.501817
36 1 0.122722 0.073584 0.499454
44 1 0.411525 0.0867789 0.50105
50 1 0.543198 0.0010667 0.49914
3 1 0.639562 0.0916169 0.497898
58 1 0.720128 0.0145391 0.503076
34 1 0.8329 0.0675116 0.499463
65 1 0.913922 0.0228536 0.49991
8 1 0.0724019 0.184174 0.499148
23 1 0.211524 0.151013 0.49942
35 1 0.416611 0.193556 0.501141
47 1 0.497738 0.108735 0.500595
68 1 0.695233 0.194526 0.500349
70 1 0.7379 0.0952984 0.499427
1 1 0.811767 0.195273 0.499097
27 1 0.947973 0.130508 0.500544
63 1 0.0508231 0.299699 0.502144
32 1 0.101912 0.372759 0.499706
19 1 0.295228 0.254565 0.498617
39 1 0.539063 0.203156 0.498252
43 1 0.64389 0.248589 0.499152
67 1 0.563373 0.293425 0.500804
61 1 0.7124 0.262966 0.500324
26 1 0.954099 0.260323 0.500455
60 1 0.000423523 0.356827 0.498238
17 1 0.240514 0.388865 0.50196
9 1 0.45106 0.334863 0.498918
33 1 0.576038 0.382068 0.503186
31 1 0.686901 0.357877 0.499407
20 1 0.822547 0.355447 0.501675
73 1 0.930451 0.373068 0.497796
56 1 0.910721 0.45129 0.499341
15 1 0.026689 0.486074 0.501912
25 1 0.157031 0.486602 0.500106
30 1 0.26508 0.528658 0.501369
13 1 0.397338 0.476777 0.501694
52 1 0.516047 0.468037 0.504268
4 1 0.648829 0.492605 0.499028
64 1 0.744655 0.436478 0.499746
6 1 0.794899 0.534724 0.495522
7 1 0.130976 0.610543 0.500377
24 1 0.290726 0.653755 0.502113
77 1 0.334766 0.567111 0.499657
42 1 0.541159 0.567482 0.501129
59 1 0.6133 0.623821 0.49697
45 1 0.704688 0.614814 0.498503
10 1 0.975594 0.626783 0.5005
5 1 0.043121 0.755215 0.499967
38 1 0.188431 0.739813 0.502383
57 1 0.560365 0.72842 0.499758
28 1 0.675145 0.709234 0.499345
2 1 0.807254 0.680308 0.498929
55 1 0.917913 0.737734 0.500265
40 1 0.138049 0.848524 0.502909
29 1 0.315364 0.776172 0.497296
14 1 0.452579 0.80562 0.504009
16 1 0.628821 0.839044 0.501961
49 1 0.730851 0.773819 0.497602
69 1 0.738497 0.866416 0.500897
11 1 0.845449 0.842993 0.502498
37 1 0.0963702 0.956544 0.498281
18 1 0.418448 0.953483 0.49971
41 1 0.540414 0.904941 0.501822
46 1 0.636185 0.959424 0.503345
51 1 0.724437 0.928226 0.49671
66 1 0.797127 0.978088 0.499366
21 1 0.965483 0.933491 0.501911
ITEM: TIMESTEP
1250
ITEM: NUMBER OF ATOMS
67
ITEM: BOX BOUNDS pp pp pp
-4.8022944931735827e+00 4.8022944931735827e+00
-4.8039858655965757e+00 4.8039858655965757e+00
-1.0000000000000001e-01 1.0000000000000001e-01
ITEM: ATOMS id type xs ys zs
48 1 1.00021 0.0386801 0.502157
36 1 0.121703 0.0736671 0.499195
44 1 0.411924 0.0865381 0.499383
50 1 0.542719 0.00155801 0.499244
3 1 0.639492 0.0912508 0.498711
58 1 0.719398 0.0138846 0.503476
34 1 0.832865 0.067707 0.499087
65 1 0.913229 0.0220347 0.496719
8 1 0.0719803 0.184008 0.498951
23 1 0.21153 0.151325 0.499558
35 1 0.416645 0.19359 0.500527
47 1 0.498347 0.107924 0.501365
68 1 0.695887 0.194768 0.499895
70 1 0.737638 0.0947442 0.500001
1 1 0.812521 0.195221 0.49899
27 1 0.947234 0.130154 0.500416
63 1 0.0504569 0.299581 0.503811
32 1 0.102041 0.373054 0.500805
19 1 0.295493 0.254117 0.499381
39 1 0.53919 0.203442 0.498689
43 1 0.644725 0.248667 0.499277
67 1 0.563732 0.293657 0.502501
61 1 0.71374 0.26261 0.50136
26 1 0.953822 0.260061 0.500845
60 1 8.55819e-05 0.356252 0.49857
17 1 0.241041 0.389 0.502448
9 1 0.45132 0.334911 0.499948
33 1 0.576211 0.382435 0.502552
31 1 0.687217 0.357471 0.498954
20 1 0.822892 0.355012 0.501862
73 1 0.930653 0.374972 0.49632
56 1 0.909639 0.452304 0.499518
15 1 0.0267601 0.485516 0.502053
25 1 0.157434 0.486204 0.498247
30 1 0.265473 0.528647 0.501929
13 1 0.397278 0.476642 0.502608
52 1 0.515953 0.468533 0.502451
4 1 0.649513 0.492621 0.498338
64 1 0.744726 0.436201 0.499218
6 1 0.794908 0.534345 0.49539
7 1 0.131619 0.60914 0.497477
24 1 0.291472 0.654185 0.500388
77 1 0.334781 0.567292 0.499775
42 1 0.541329 0.567711 0.500741
59 1 0.612809 0.623983 0.497127
45 1 0.704669 0.61474 0.498047
10 1 0.975253 0.626794 0.501197
5 1 0.0436778 0.755674 0.500555
38 1 0.189127 0.739226 0.503112
57 1 0.560312 0.728732 0.50046
28 1 0.67496 0.709381 0.499128
2 1 0.807951 0.680649 0.499943
55 1 0.918351 0.73819 0.499001
40 1 0.13883 0.848806 0.502169
29 1 0.315906 0.776131 0.497331
14 1 0.453066 0.805749 0.50409
16 1 0.629458 0.839033 0.503116
49 1 0.730985 0.773405 0.499003
69 1 0.738258 0.866233 0.500735
11 1 0.845842 0.843615 0.504022
37 1 0.097038 0.956009 0.49792
18 1 0.419004 0.951892 0.500796
41 1 0.541676 0.904969 0.49936
46 1 0.635187 0.959006 0.50323
51 1 0.724228 0.927782 0.496055
66 1 0.79686 0.978039 0.499749
21 1 0.966149 0.9331 0.50194
ITEM: TIMESTEP
1500
ITEM: NUMBER OF ATOMS
67
ITEM: BOX BOUNDS pp pp pp
-4.8010929114232006e+00 4.8010929114232006e+00
-4.8028066388346309e+00 4.8028066388346309e+00
-1.0000000000000001e-01 1.0000000000000001e-01
ITEM: ATOMS id type xs ys zs
48 1 0.999481 0.0377201 0.502176
36 1 0.121756 0.0732959 0.496475
44 1 0.411051 0.086252 0.499429
50 1 0.542345 0.00165659 0.498379
3 1 0.638764 0.0916246 0.499375
58 1 0.71935 0.0143921 0.504798
34 1 0.832747 0.0680374 0.499664
65 1 0.912945 0.0216539 0.494985
8 1 0.0713905 0.182835 0.501019
23 1 0.211394 0.150781 0.500345
35 1 0.416196 0.193704 0.502039
47 1 0.497503 0.107943 0.501392
68 1 0.69586 0.194467 0.497741
70 1 0.737051 0.0951745 0.500442
1 1 0.812104 0.19516 0.498818
27 1 0.946651 0.130085 0.501004
63 1 0.0506713 0.299618 0.505782
32 1 0.101826 0.372956 0.503415
19 1 0.294522 0.253666 0.499152
39 1 0.539252 0.203565 0.499243
43 1 0.644358 0.248122 0.498917
67 1 0.563679 0.293491 0.503859
61 1 0.713514 0.262362 0.502637
26 1 0.953447 0.260198 0.501132
60 1 -0.000178789 0.356211 0.499302
17 1 0.240503 0.388239 0.503559
9 1 0.451357 0.333867 0.500981
33 1 0.576255 0.382259 0.501032
31 1 0.687152 0.357487 0.497584
20 1 0.823062 0.355061 0.503239
73 1 0.930068 0.374322 0.49678
56 1 0.909427 0.452542 0.499315
15 1 0.0259426 0.485797 0.502684
25 1 0.156556 0.485737 0.499319
30 1 0.265033 0.528199 0.501013
13 1 0.397292 0.475044 0.505685
52 1 0.516221 0.468556 0.501815
4 1 0.649733 0.492256 0.499775
64 1 0.744632 0.436093 0.498832
6 1 0.795179 0.533981 0.495172
7 1 0.131237 0.609012 0.496004
24 1 0.291717 0.653276 0.499215
77 1 0.334763 0.566163 0.498355
42 1 0.541438 0.567853 0.501224
59 1 0.613231 0.624722 0.497542
45 1 0.704739 0.614757 0.497704
10 1 0.97516 0.627425 0.500561
5 1 0.0435549 0.755746 0.501344
38 1 0.189134 0.738349 0.503347
57 1 0.561198 0.728692 0.500199
28 1 0.675786 0.709108 0.500688
2 1 0.80783 0.68138 0.500061
55 1 0.918109 0.738569 0.500786
40 1 0.139318 0.848231 0.502338
29 1 0.316664 0.775483 0.496053
14 1 0.453345 0.805345 0.503439
16 1 0.629196 0.839111 0.502583
49 1 0.730625 0.773939 0.499988
69 1 0.737824 0.866647 0.50063
11 1 0.844576 0.843785 0.503937
37 1 0.0964844 0.956142 0.500482
18 1 0.418679 0.952601 0.501223
41 1 0.540951 0.90526 0.499207
46 1 0.635096 0.959456 0.500203
51 1 0.724085 0.928032 0.495396
66 1 0.796835 0.978245 0.500189
21 1 0.965544 0.932284 0.503004
ITEM: TIMESTEP
1750
ITEM: NUMBER OF ATOMS
67
ITEM: BOX BOUNDS pp pp pp
-4.7998913296728185e+00 4.7998913296728185e+00
-4.8040213145913429e+00 4.8040213145913429e+00
-1.0000000000000001e-01 1.0000000000000001e-01
ITEM: ATOMS id type xs ys zs
48 1 0.999913 0.0382783 0.50287
36 1 0.12046 0.0727756 0.495626
44 1 0.411832 0.0860294 0.496241
50 1 0.542591 0.00168573 0.498739
3 1 0.638935 0.0914324 0.500854
58 1 0.71972 0.014624 0.505299
34 1 0.832617 0.067625 0.500968
65 1 0.912698 0.0220641 0.496864
8 1 0.0721017 0.184221 0.50004
23 1 0.211008 0.149355 0.49845
35 1 0.416205 0.193599 0.503663
47 1 0.497875 0.108567 0.502374
68 1 0.696527 0.194189 0.497929
70 1 0.736969 0.0957047 0.501592
1 1 0.812616 0.195056 0.500054
27 1 0.947422 0.131019 0.498465
63 1 0.0500251 0.299609 0.5059
32 1 0.100971 0.373089 0.503432
19 1 0.294543 0.253803 0.500625
39 1 0.538723 0.203808 0.499452
43 1 0.645122 0.247801 0.499122
67 1 0.563276 0.29365 0.505569
61 1 0.713591 0.262506 0.502468
26 1 0.95346 0.260611 0.500418
60 1 -0.000791131 0.356925 0.501458
17 1 0.240492 0.388415 0.504504
9 1 0.450943 0.334385 0.502243
33 1 0.5756 0.382518 0.501261
31 1 0.686861 0.357806 0.49656
20 1 0.821821 0.354792 0.504881
73 1 0.929442 0.372998 0.497215
56 1 0.909517 0.451383 0.498397
15 1 0.025904 0.486144 0.505774
25 1 0.156402 0.485287 0.49843
30 1 0.26407 0.528588 0.49957
13 1 0.396874 0.47586 0.505125
52 1 0.515624 0.468987 0.503057
4 1 0.648859 0.492997 0.499933
64 1 0.74398 0.436732 0.498039
6 1 0.794731 0.534255 0.497337
7 1 0.132604 0.60932 0.496008
24 1 0.291692 0.653478 0.498142
77 1 0.334259 0.565785 0.496727
42 1 0.54121 0.568674 0.499747
59 1 0.613146 0.623318 0.497926
45 1 0.704595 0.615004 0.495935
10 1 0.976836 0.627977 0.50065
5 1 0.0434794 0.757415 0.500083
38 1 0.18916 0.738378 0.503957
57 1 0.560509 0.729412 0.499761
28 1 0.675153 0.709033 0.498558
2 1 0.807902 0.681177 0.501351
55 1 0.918326 0.738924 0.502619
40 1 0.139813 0.847921 0.503556
29 1 0.315758 0.775146 0.495224
14 1 0.452243 0.805914 0.506457
16 1 0.629103 0.839337 0.500886
49 1 0.730432 0.773514 0.499762
69 1 0.737744 0.866391 0.500583
11 1 0.844965 0.844238 0.505671
37 1 0.0961015 0.955449 0.501392
18 1 0.418289 0.952616 0.500796
41 1 0.541007 0.905895 0.499455
46 1 0.635503 0.959544 0.498107
51 1 0.72403 0.928245 0.496174
66 1 0.796619 0.977989 0.501829
21 1 0.965153 0.932935 0.502216
ITEM: TIMESTEP
2000
ITEM: NUMBER OF ATOMS
67
ITEM: BOX BOUNDS pp pp pp
-4.7986897479224364e+00 4.7986897479224364e+00
-4.8051463333400015e+00 4.8051463333400015e+00
-1.0000000000000001e-01 1.0000000000000001e-01
ITEM: ATOMS id type xs ys zs
48 1 0.999733 0.0385409 0.499281
36 1 0.119389 0.0723158 0.497241
44 1 0.412498 0.0859091 0.497894
50 1 0.542424 0.00178114 0.49734
3 1 0.638915 0.0919562 0.502343
58 1 0.719921 0.0148449 0.506024
34 1 0.832013 0.0684366 0.501537
65 1 0.912417 0.0228912 0.496567
8 1 0.0718548 0.183836 0.499048
23 1 0.210646 0.149017 0.497861
35 1 0.416747 0.193119 0.50457
47 1 0.498609 0.107724 0.501552
68 1 0.695519 0.194408 0.498164
70 1 0.73694 0.0960583 0.501407
1 1 0.812547 0.195965 0.501598
27 1 0.947251 0.129896 0.498955
63 1 0.0505133 0.299202 0.504688
32 1 0.102049 0.372471 0.501053
19 1 0.293957 0.252126 0.501473
39 1 0.539255 0.203744 0.499343
43 1 0.644603 0.248672 0.498911
67 1 0.563156 0.294227 0.504966
61 1 0.71371 0.262567 0.502796
26 1 0.953909 0.260159 0.500188
60 1 -0.000116845 0.356432 0.503187
17 1 0.241673 0.387836 0.503526
9 1 0.450405 0.333709 0.502175
33 1 0.575401 0.382597 0.499619
31 1 0.686796 0.357716 0.495746
20 1 0.822638 0.355873 0.50513
73 1 0.930485 0.374457 0.496015
56 1 0.909754 0.45217 0.497947
15 1 0.026774 0.484895 0.506179
25 1 0.157378 0.48562 0.498718
30 1 0.264994 0.527975 0.499233
13 1 0.397035 0.475467 0.503565
52 1 0.51654 0.469219 0.504738
4 1 0.648548 0.493616 0.499937
64 1 0.743747 0.436697 0.498352
6 1 0.794353 0.534803 0.496576
7 1 0.132815 0.608559 0.494688
24 1 0.290737 0.652544 0.499947
77 1 0.33486 0.565851 0.497003
42 1 0.540198 0.568878 0.499724
59 1 0.613117 0.623889 0.49832
45 1 0.70461 0.615826 0.496694
10 1 0.977868 0.627989 0.500143
5 1 0.0431936 0.758204 0.500644
38 1 0.188552 0.738746 0.500418
57 1 0.560336 0.728962 0.500751
28 1 0.674755 0.709695 0.498676
2 1 0.807651 0.681572 0.500722
55 1 0.91852 0.738127 0.504152
40 1 0.140745 0.848729 0.503295
29 1 0.315582 0.774934 0.494686
14 1 0.452432 0.805162 0.506695
16 1 0.628698 0.839779 0.50107
49 1 0.729825 0.773744 0.498802
69 1 0.738041 0.866679 0.500746
11 1 0.84444 0.842638 0.504988
37 1 0.0950788 0.955144 0.502437
18 1 0.417967 0.95212 0.499159
41 1 0.540181 0.905938 0.495948
46 1 0.635467 0.960083 0.498922
51 1 0.724473 0.928508 0.493498
66 1 0.797186 0.978392 0.50217
21 1 0.963928 0.93325 0.503358
ITEM: TIMESTEP
2250
ITEM: NUMBER OF ATOMS
67
ITEM: BOX BOUNDS pp pp pp
-4.7974881661720552e+00 4.7974881661720552e+00
-4.8060005564217887e+00 4.8060005564217887e+00
-1.0000000000000001e-01 1.0000000000000001e-01
ITEM: ATOMS id type xs ys zs
48 1 1.00039 0.0387694 0.497106
36 1 0.120536 0.0722438 0.49761
44 1 0.414089 0.086085 0.498024
50 1 0.542394 0.00124673 0.496113
3 1 0.63865 0.0919122 0.500267
58 1 0.71979 0.0146189 0.506729
34 1 0.832203 0.0679823 0.501704
65 1 0.912975 0.023923 0.497355
8 1 0.0723611 0.183367 0.500073
23 1 0.210905 0.148973 0.497602
35 1 0.416766 0.19361 0.504299
47 1 0.499925 0.109114 0.501371
68 1 0.695216 0.194925 0.498471
70 1 0.736831 0.0955751 0.500464
1 1 0.81168 0.19533 0.503179
27 1 0.946914 0.130285 0.496347
63 1 0.0509916 0.298632 0.504763
32 1 0.102497 0.371956 0.500349
19 1 0.294489 0.251915 0.500507
39 1 0.539004 0.204594 0.499818
43 1 0.64433 0.249379 0.498756
67 1 0.562824 0.294498 0.504965
61 1 0.713351 0.263161 0.502848
26 1 0.954115 0.259709 0.498131
60 1 2.4507e-05 0.355735 0.503069
17 1 0.24183 0.387603 0.504918
9 1 0.45073 0.334303 0.501426
33 1 0.575922 0.38324 0.500233
31 1 0.687112 0.358296 0.495451
20 1 0.822575 0.355965 0.504017
73 1 0.93043 0.374245 0.495904
56 1 0.909838 0.452477 0.499383
15 1 0.0272901 0.484956 0.504789
25 1 0.157441 0.485238 0.49786
30 1 0.264912 0.527644 0.500126
13 1 0.396622 0.475952 0.504243
52 1 0.515424 0.469134 0.503653
4 1 0.648363 0.492966 0.499588
64 1 0.74409 0.436592 0.499401
6 1 0.794066 0.534395 0.497195
7 1 0.133287 0.608746 0.494812
24 1 0.28938 0.652719 0.500376
77 1 0.334271 0.566063 0.497387
42 1 0.539943 0.568517 0.499373
59 1 0.612258 0.623644 0.498976
45 1 0.703732 0.614709 0.497357
10 1 0.979646 0.627382 0.498293
5 1 0.0417568 0.759321 0.501525
38 1 0.187409 0.738862 0.499225
57 1 0.559378 0.728888 0.499219
28 1 0.674387 0.70902 0.500594
2 1 0.806906 0.680952 0.5008
55 1 0.917583 0.736406 0.502737
40 1 0.140324 0.849352 0.501913
29 1 0.31497 0.774103 0.494223
14 1 0.451302 0.805905 0.506333
16 1 0.628707 0.839019 0.500816
49 1 0.729671 0.773376 0.497893
69 1 0.73802 0.866624 0.501612
11 1 0.844721 0.843213 0.505148
37 1 0.0947992 0.955351 0.50224
18 1 0.41827 0.952194 0.49773
41 1 0.540329 0.905134 0.497489
46 1 0.635206 0.959749 0.500361
51 1 0.724099 0.928423 0.495193
66 1 0.796942 0.978568 0.504326
21 1 0.96421 0.933975 0.5031
ITEM: TIMESTEP
2500
ITEM: NUMBER OF ATOMS
67
ITEM: BOX BOUNDS pp pp pp
-4.7962865844216731e+00 4.7962865844216731e+00
-4.8053380591259822e+00 4.8053380591259822e+00
-1.0000000000000001e-01 1.0000000000000001e-01
ITEM: ATOMS id type xs ys zs
48 1 1.00053 0.0382227 0.496196
36 1 0.121585 0.0720768 0.498493
44 1 0.413506 0.0852208 0.50034
50 1 0.541653 0.000538004 0.494902
3 1 0.638035 0.0918574 0.501509
58 1 0.718899 0.014615 0.504894
34 1 0.832015 0.0675518 0.501801
65 1 0.913158 0.0241303 0.497637
8 1 0.0717387 0.182758 0.502863
23 1 0.210708 0.148909 0.499558
35 1 0.416494 0.192108 0.505574
47 1 0.499326 0.108154 0.501487
68 1 0.695021 0.194776 0.497097
70 1 0.736804 0.0954475 0.498917
1 1 0.811664 0.195137 0.503869
27 1 0.946956 0.129887 0.493829
63 1 0.050775 0.298602 0.504367
32 1 0.102478 0.371428 0.500498
19 1 0.293972 0.25194 0.498899
39 1 0.538815 0.203924 0.500621
43 1 0.644049 0.249138 0.498655
67 1 0.563234 0.294067 0.507794
61 1 0.713061 0.26265 0.501928
26 1 0.95336 0.259278 0.498265
60 1 0.000281211 0.35533 0.502685
17 1 0.241626 0.387887 0.503592
9 1 0.450333 0.3338 0.502939
33 1 0.574848 0.382934 0.500209
31 1 0.686927 0.358065 0.494582
20 1 0.823086 0.355613 0.50508
73 1 0.931 0.374351 0.496171
56 1 0.909386 0.452109 0.500558
15 1 0.0264415 0.484516 0.505599
25 1 0.156863 0.484806 0.498273
30 1 0.264293 0.528471 0.498877
13 1 0.39668 0.47609 0.50564
52 1 0.515113 0.469108 0.501682
4 1 0.648354 0.492881 0.499473
64 1 0.743918 0.437128 0.49873
6 1 0.794357 0.535098 0.497206
7 1 0.131604 0.607962 0.497422
24 1 0.290101 0.653506 0.499076
77 1 0.334217 0.56675 0.496372
42 1 0.539893 0.568423 0.500301
59 1 0.612554 0.623419 0.498023
45 1 0.703988 0.615075 0.496817
10 1 0.98161 0.628101 0.497639
5 1 0.042151 0.759846 0.500303
38 1 0.186738 0.738133 0.497667
57 1 0.559547 0.728266 0.499546
28 1 0.673898 0.709355 0.499851
2 1 0.806713 0.680751 0.501033
55 1 0.918148 0.736508 0.504044
40 1 0.140543 0.849359 0.502552
29 1 0.314016 0.774947 0.496404
14 1 0.451579 0.804198 0.507969
16 1 0.628812 0.839178 0.500208
49 1 0.729955 0.773275 0.496941
69 1 0.738295 0.866418 0.501429
11 1 0.845077 0.841846 0.505258
37 1 0.0939632 0.955633 0.502957
18 1 0.41762 0.951719 0.497247
41 1 0.539289 0.904453 0.497929
46 1 0.634478 0.959602 0.500591
51 1 0.722994 0.928274 0.49578
66 1 0.796086 0.977745 0.504017
21 1 0.963259 0.933486 0.502471
ITEM: TIMESTEP
2750
ITEM: NUMBER OF ATOMS
67
ITEM: BOX BOUNDS pp pp pp
-4.7950850026712910e+00 4.7950850026712910e+00
-4.8062230330726363e+00 4.8062230330726363e+00
-1.0000000000000001e-01 1.0000000000000001e-01
ITEM: ATOMS id type xs ys zs
48 1 1.00106 0.0381041 0.494599
36 1 0.120757 0.0718679 0.49734
44 1 0.4116 0.0849873 0.500992
50 1 0.541717 0.000751303 0.494523
3 1 0.637654 0.0917045 0.501156
58 1 0.718898 0.0145265 0.503088
34 1 0.831801 0.0675672 0.501515
65 1 0.913223 0.0245032 0.497774
8 1 0.0711653 0.182725 0.504812
23 1 0.210544 0.15043 0.498722
35 1 0.414789 0.192018 0.505612
47 1 0.497871 0.108329 0.501685
68 1 0.695423 0.193835 0.498381
70 1 0.735855 0.0952596 0.49783
1 1 0.811671 0.195189 0.503494
27 1 0.946674 0.129056 0.494413
63 1 0.0513544 0.298392 0.504227
32 1 0.101893 0.372181 0.500341
19 1 0.293366 0.253557 0.498991
39 1 0.537499 0.20363 0.500303
43 1 0.64389 0.24787 0.500823
67 1 0.563758 0.293632 0.507571
61 1 0.713012 0.261998 0.501193
26 1 0.952873 0.258782 0.499186
60 1 -0.000210649 0.354435 0.503621
17 1 0.241912 0.388852 0.503005
9 1 0.45019 0.332661 0.501371
33 1 0.574478 0.382508 0.500423
31 1 0.685879 0.357227 0.492543
20 1 0.822083 0.354469 0.503885
73 1 0.930541 0.373369 0.49461
56 1 0.909205 0.450966 0.499151
15 1 0.0262182 0.484488 0.505018
25 1 0.15667 0.484878 0.49967
30 1 0.263979 0.528738 0.499322
13 1 0.39463 0.474365 0.507954
52 1 0.514124 0.468967 0.501878
4 1 0.648038 0.492737 0.498534
64 1 0.742967 0.43604 0.498539
6 1 0.793445 0.533925 0.495854
7 1 0.131056 0.608277 0.498185
24 1 0.290592 0.653562 0.496758
77 1 0.334561 0.566625 0.496058
42 1 0.540437 0.568311 0.500522
59 1 0.611347 0.624874 0.497241
45 1 0.702931 0.614805 0.49767
10 1 0.980775 0.627729 0.498628
5 1 0.0418018 0.759672 0.501301
38 1 0.187299 0.738381 0.497876
57 1 0.559868 0.729075 0.499609
28 1 0.673936 0.709378 0.499793
2 1 0.806579 0.680432 0.501354
55 1 0.91788 0.736435 0.505019
40 1 0.140465 0.848639 0.500957
29 1 0.31294 0.775199 0.495125
14 1 0.450978 0.805007 0.506758
16 1 0.628728 0.839605 0.501067
49 1 0.729855 0.773704 0.495376
69 1 0.738424 0.867046 0.499959
11 1 0.844974 0.842562 0.505479
37 1 0.0945351 0.955039 0.502606
18 1 0.417385 0.951332 0.497354
41 1 0.539242 0.904151 0.497333
46 1 0.634344 0.95942 0.500032
51 1 0.723453 0.928408 0.496784
66 1 0.796191 0.977691 0.504039
21 1 0.963332 0.933742 0.502689
ITEM: TIMESTEP
3000
ITEM: NUMBER OF ATOMS
67
ITEM: BOX BOUNDS pp pp pp
-4.7938834209209089e+00 4.7938834209209089e+00
-4.8046060120053866e+00 4.8046060120053866e+00
-1.0000000000000001e-01 1.0000000000000001e-01
ITEM: ATOMS id type xs ys zs
48 1 1.00033 0.0389883 0.495913
36 1 0.120471 0.0716447 0.498164
44 1 0.411627 0.0851268 0.500911
50 1 0.541291 0.000674155 0.494413
3 1 0.637338 0.0920222 0.503204
58 1 0.719484 0.0148761 0.504022
34 1 0.830979 0.068 0.501154
65 1 0.913118 0.0258412 0.496515
8 1 0.0707494 0.18313 0.504185
23 1 0.21022 0.149465 0.498913
35 1 0.414576 0.192385 0.504931
47 1 0.497591 0.108342 0.502624
68 1 0.695743 0.194573 0.499177
70 1 0.735938 0.096558 0.49838
1 1 0.812114 0.19534 0.50594
27 1 0.946135 0.12979 0.495983
63 1 0.0507209 0.298883 0.503621
32 1 0.101396 0.372614 0.501141
19 1 0.292745 0.252672 0.498678
39 1 0.537451 0.203807 0.50048
43 1 0.643414 0.247969 0.503096
67 1 0.561918 0.293626 0.507585
61 1 0.712363 0.263208 0.499713
26 1 0.952222 0.259514 0.498282
60 1 -0.00041211 0.355266 0.503807
17 1 0.240133 0.388117 0.503993
9 1 0.449203 0.333325 0.499999
33 1 0.57456 0.382431 0.499199
31 1 0.685761 0.357961 0.493097
20 1 0.822494 0.354972 0.503633
73 1 0.93034 0.374901 0.49477
56 1 0.907912 0.452558 0.497766
15 1 0.0251551 0.484368 0.504415
25 1 0.155937 0.485591 0.501798
30 1 0.264132 0.528532 0.500021
13 1 0.395538 0.474761 0.508506
52 1 0.514529 0.468051 0.501491
4 1 0.6481 0.492234 0.499321
64 1 0.743485 0.436389 0.499177
6 1 0.793523 0.534884 0.498084
7 1 0.129153 0.609023 0.497769
24 1 0.290651 0.653241 0.497841
77 1 0.334119 0.566214 0.495321
42 1 0.540199 0.567109 0.500746
59 1 0.610917 0.624619 0.49652
45 1 0.702916 0.615086 0.4982
10 1 0.981963 0.62849 0.498201
5 1 0.0425452 0.760933 0.500746
38 1 0.186549 0.737548 0.498066
57 1 0.559036 0.729448 0.500633
28 1 0.673473 0.70909 0.499583
2 1 0.806123 0.681055 0.500869
55 1 0.91792 0.736693 0.506157
40 1 0.141639 0.849309 0.500146
29 1 0.313166 0.775093 0.494238
14 1 0.450343 0.804094 0.506873
16 1 0.628456 0.839358 0.500469
49 1 0.728967 0.77354 0.496024
69 1 0.738487 0.867467 0.497864
11 1 0.844743 0.841825 0.505274
37 1 0.093877 0.954564 0.50226
18 1 0.417034 0.951594 0.498396
41 1 0.538733 0.904313 0.49769
46 1 0.634664 0.960122 0.500757
51 1 0.723178 0.928732 0.497394
66 1 0.796444 0.977624 0.50243
21 1 0.961859 0.934792 0.5015
ITEM: TIMESTEP
3250
ITEM: NUMBER OF ATOMS
67
ITEM: BOX BOUNDS pp pp pp
-4.7926818391705268e+00 4.7926818391705268e+00
-4.8104209050850688e+00 4.8104209050850688e+00
-1.0000000000000001e-01 1.0000000000000001e-01
ITEM: ATOMS id type xs ys zs
48 1 1.0004 0.0379844 0.496739
36 1 0.118989 0.0723675 0.496415
44 1 0.411548 0.0855276 0.499581
50 1 0.541681 0.00097999 0.494487
3 1 0.637906 0.0914634 0.501631
58 1 0.719154 0.0145444 0.502449
34 1 0.832135 0.0682934 0.501889
65 1 0.913237 0.0246678 0.49642
8 1 0.0709231 0.183609 0.506701
23 1 0.210025 0.148692 0.499065
35 1 0.415541 0.192393 0.50699
47 1 0.497291 0.107905 0.503392
68 1 0.695309 0.194012 0.500392
70 1 0.736386 0.0953499 0.499131
1 1 0.81146 0.195252 0.508197
27 1 0.946537 0.12918 0.495749
63 1 0.0509761 0.298729 0.501087
32 1 0.101985 0.372327 0.502003
19 1 0.293066 0.252711 0.497301
39 1 0.53795 0.203242 0.500483
43 1 0.643713 0.247924 0.503112
67 1 0.561598 0.293618 0.506963
61 1 0.712836 0.262149 0.501561
26 1 0.951405 0.259649 0.498747
60 1 -0.000377862 0.354979 0.504747
17 1 0.241677 0.389201 0.506042
9 1 0.448822 0.333957 0.49969
33 1 0.574824 0.382212 0.497918
31 1 0.686091 0.356965 0.49303
20 1 0.822588 0.35386 0.50222
73 1 0.930324 0.373833 0.494548
56 1 0.908892 0.451284 0.498028
15 1 0.0256511 0.484782 0.505564
25 1 0.156094 0.485036 0.502747
30 1 0.263736 0.529291 0.501425
13 1 0.395492 0.475203 0.508442
52 1 0.514685 0.46823 0.500461
4 1 0.648067 0.49212 0.499681
64 1 0.743569 0.435478 0.499663
6 1 0.793832 0.533365 0.498129
7 1 0.130044 0.608535 0.496852
24 1 0.290339 0.653232 0.497666
77 1 0.334263 0.566829 0.495636
42 1 0.5399 0.567463 0.49914
59 1 0.611508 0.623962 0.495307
45 1 0.702799 0.614081 0.497509
10 1 0.982576 0.628729 0.497366
5 1 0.0421326 0.761392 0.500805
38 1 0.187154 0.737964 0.496956
57 1 0.55899 0.73007 0.499084
28 1 0.673812 0.708939 0.497475
2 1 0.806328 0.680074 0.501497
55 1 0.917915 0.735674 0.507268
40 1 0.141405 0.849495 0.500861
29 1 0.313881 0.775471 0.491744
14 1 0.450462 0.805499 0.5081
16 1 0.628783 0.839602 0.499809
49 1 0.729641 0.772907 0.496519
69 1 0.737956 0.866605 0.496329
11 1 0.844417 0.841169 0.505769
37 1 0.0937136 0.955179 0.500856
18 1 0.417219 0.951871 0.49818
41 1 0.539495 0.905049 0.49817
46 1 0.634588 0.959694 0.500328
51 1 0.723734 0.928166 0.496912
66 1 0.796594 0.978344 0.501836
21 1 0.962396 0.933648 0.50122
ITEM: TIMESTEP
3500
ITEM: NUMBER OF ATOMS
67
ITEM: BOX BOUNDS pp pp pp
-4.7914802574201447e+00 4.7914802574201447e+00
-4.8112662926751923e+00 4.8112662926751923e+00
-1.0000000000000001e-01 1.0000000000000001e-01
ITEM: ATOMS id type xs ys zs
48 1 1.00173 0.038664 0.495755
36 1 0.120906 0.0735586 0.497201
44 1 0.411666 0.0855853 0.50227
50 1 0.541264 0.000949349 0.494254
3 1 0.637692 0.091656 0.499602
58 1 0.718468 0.0144319 0.502879
34 1 0.831929 0.0676909 0.501571
65 1 0.913795 0.0244326 0.496972
8 1 0.0717621 0.183869 0.507353
23 1 0.211211 0.15007 0.498584
35 1 0.415498 0.19287 0.507047
47 1 0.498325 0.107748 0.503862
68 1 0.694809 0.194725 0.502535
70 1 0.736096 0.0954692 0.500746
1 1 0.810663 0.194566 0.507706
27 1 0.947154 0.129176 0.49478
63 1 0.0506954 0.298951 0.502248
32 1 0.101553 0.372462 0.50125
19 1 0.293922 0.253506 0.495575
39 1 0.537861 0.203401 0.499732
43 1 0.643336 0.248463 0.502353
67 1 0.562417 0.292876 0.507819
61 1 0.712108 0.262915 0.501875
26 1 0.952632 0.259342 0.498946
60 1 -0.000602808 0.355186 0.50316
17 1 0.240783 0.388586 0.504225
9 1 0.449555 0.33372 0.501045
33 1 0.57456 0.381345 0.496339
31 1 0.685834 0.357515 0.492206
20 1 0.821979 0.354692 0.503221
73 1 0.93 0.373301 0.493443
56 1 0.90858 0.450456 0.498933
15 1 0.0251681 0.484181 0.503538
25 1 0.156188 0.485626 0.502396
30 1 0.263836 0.528314 0.501509
13 1 0.396269 0.475355 0.509398
52 1 0.515465 0.468177 0.500906
4 1 0.648001 0.491929 0.49903
64 1 0.743361 0.435894 0.499732
6 1 0.793313 0.533539 0.499361