LAMMPS (23 Jun 2022 - Update 4)
  using 1 OpenMP thread(s) per MPI task
# Compute elastic constant tensor for a crystal
#
# Written by Aidan Thompson (Sandia, athomps@sandia.gov)
#
#  This script uses the following three include files.
#
#   init.mod      (must be modified for different crystal structures)
# 	       	  Define units, deformation parameters and initial
#		  configuration of the atoms and simulation cell.
#
#
#   potential.mod    (must be modified for different pair styles)
# 		     Define pair style and other attributes
#		     not stored in restart file
#
#
#   displace.mod    (displace.mod should not need to be modified)
# 		    Perform positive and negative box displacements
# 		    in direction ${dir} and size ${up}.
# 		    It uses the resultant changes
#		    in stress to compute one
# 		    row of the elastic stiffness tensor
#
#		    Inputs variables:
#		    	   dir = the Voigt deformation component
#		    		    (1,2,3,4,5,6)
#		    Global constants:
#       	    	   up = the deformation magnitude (strain units)
#       		   cfac = conversion from LAMMPS pressure units to
#               	   output units for elastic constants
#
#
#  To run this on a different system, it should only be necessary to
#  modify the files init.mod and potential.mod. In order to calculate
#  the elastic constants correctly, care must be taken to specify
#  the correct units in init.mod (units, cfac and cunits). It is also
#  important to verify that the minimization of energy w.r.t atom
#  positions in the deformed cell is fully converged.
#  One indication of this is that the elastic constants are insensitive
#  to the choice of the variable ${up} in init.mod. Another is to check
#  the final max and two-norm forces reported in the log file. If you know
#  that minimization is not required, you can set maxiter = 0.0 in
#  init.mod.
#



variable dt equal 0.01
variable strain equal 0.05
variable srate equal 1e-4
variable M equal 1000 # averaging time for properties
variable strainsteps equal ${strain}/${dt}/${srate}
variable strainsteps equal 0.05/${dt}/${srate}
variable strainsteps equal 0.05/0.01/${srate}
variable strainsteps equal 0.05/0.01/0.0001


dimension 2
include init.mod
# NOTE: This script can be modified for different atomic structures,
# units, etc. See in.elastic for more info.
#

# Define the finite deformation size. Try several values of this
# variable to verify that results do not depend on it.
variable up equal 1.0e-1

# Define the amount of random jiggle for atoms
# This prevents atoms from staying on saddle points
variable atomjiggle equal 1.0e-6

# Uncomment one of these blocks, depending on what units
# you are using in LAMMPS and for output

# metal units, elastic constants in eV/A^3
#units		metal
#variable cfac equal 6.2414e-7
#variable cunits string eV/A^3

# Choose potential
# metal units, elastic constants in GPa
units		metal
atom_style	full
#pair_style      lj/cut 1.0
#pair_style      yukawa 1.0 2.0
#pair_modify     mix arithmetic
bond_style      harmonic
angle_style     harmonic
dihedral_style  zero
special_bonds   amber
variable cfac equal 1.0e-4
variable cunits string GPa
boundary	p p p

# Need to set mass to something, just to satisfy LAMMPS
#mass 1 1.0e-20
read_data network.lmp
Reading data file ...
  orthogonal box = (-4.806327 -4.806327 -0.1) to (4.806327 4.806327 0.1)
  1 by 1 by 1 MPI processor grid
WARNING: Atom style in data file differs from currently defined atom style (src/read_data.cpp:538)
  reading atoms ...
  67 atoms
WARNING: Bond style in data file differs from currently defined bond style (src/read_data.cpp:630)
  scanning bonds ...
  5 = max bonds/atom
  reading bonds ...
  157 bonds
Finding 1-2 1-3 1-4 neighbors ...
  special bond factors lj:    0        0        0.5     
  special bond factors coul:  0        0        0.8333333333333334
     8 = max # of 1-2 neighbors
    49 = max # of 1-3 neighbors
   282 = max # of 1-4 neighbors
    34 = max # of special neighbors
  special bonds CPU = 0.000 seconds
  read_data CPU = 0.003 seconds

# real units, elastic constants in GPa
#units		real
#variable cfac equal 1.01325e-4
#variable cunits string GPa

# Define minimization parameters
variable etol equal 0.0
variable ftol equal 5.0e-10
variable maxiter equal 100000
variable maxeval equal 20000
variable dmax equal 1.0e-2


include potential.mod
# NOTE: This script can be modified for different pair styles
# See in.elastic for more info.

# Setup neighbor style
neighbor 3.0 nsq
neigh_modify once no every 1 delay 0 check yes
comm_modify cutoff 2.0

# Setup minimization style
min_style	     cg
min_modify	     dmax ${dmax} line quadratic
min_modify	     dmax 0.01 line quadratic

timestep	0.001


# Setup output
thermo		500
thermo_style custom step temp pe ebond eangle edihed press pxx pyy pzz pxy pxz pyz lx ly lz vol
thermo_modify norm no


#change_box all triclinic
comm_modify mode single cutoff 10.0 vel yes
atom_modify sort 0 0



# Compute initial state

#dump rela all atom 1 traj_relax.lmpstrj
fix 3 all box/relax x 0 y 0 # xy 0  #MS comment: relax if the network is periodic
minimize ${etol} ${ftol} ${maxiter} ${maxeval}
minimize 0 ${ftol} ${maxiter} ${maxeval}
minimize 0 5e-10 ${maxiter} ${maxeval}
minimize 0 5e-10 100000 ${maxeval}
minimize 0 5e-10 100000 20000
Neighbor list info ...
  update every 1 steps, delay 0 steps, check yes
  max neighbors/atom: 2000, page size: 100000
  master list distance cutoff = 0
  ghost atom cutoff = 10
  0 neighbor lists, perpetual/occasional/extra = 0 0 0
WARNING: Inconsistent image flags (src/domain.cpp:819)
Per MPI rank memory allocation (min/avg/max) = 9.097 | 9.097 | 9.097 Mbytes
   Step          Temp          PotEng         E_bond        E_angle        E_dihed         Press           Pxx            Pyy            Pzz            Pxy            Pxz            Pyz             Lx             Ly             Lz           Volume    
         0   0              3.5792833e-11  3.5792833e-11  0              0              0.013237803    0.07102753    -0.044551925    0             -0.085060362    0              0              9.612654       9.612654       0.2            92.403117    
       411   0              3.1966353e-13  3.1966353e-13  0              0             -7.1665347e-07 -3.2407188e-06  1.8074118e-06  0             -0.0035514379   0              0              9.612654       9.6126535      0.2            92.403112    
Loop time of 0.0235228 on 1 procs for 411 steps with 67 atoms

100.0% CPU use with 1 MPI tasks x 1 OpenMP threads

Minimization stats:
  Stopping criterion = force tolerance
  Energy initial, next-to-last, final = 
    3.57928331713832e-11 3.19663537296511e-13 3.1966353249571e-13
  Force two-norm initial, final = 2.1930191e-05 4.503938e-10
  Force max component initial, final = 4.9765885e-06 1.8690357e-10
  Final line search alpha, max atom move = 1 1.8690357e-10
  Iterations, force evaluations = 411 822

MPI task timing breakdown:
Section |  min time  |  avg time  |  max time  |%varavg| %total
---------------------------------------------------------------
Pair    | 0          | 0          | 0          |   0.0 |  0.00
Bond    | 0.0034971  | 0.0034971  | 0.0034971  |   0.0 | 14.87
Neigh   | 0          | 0          | 0          |   0.0 |  0.00
Comm    | 0.0072085  | 0.0072085  | 0.0072085  |   0.0 | 30.64
Output  | 0          | 0          | 0          |   0.0 |  0.00
Modify  | 0          | 0          | 0          |   0.0 |  0.00
Other   |            | 0.01282    |            |       | 54.49

Nlocal:             67 ave          67 max          67 min
Histogram: 1 0 0 0 0 0 0 0 0 0
Nghost:            567 ave         567 max         567 min
Histogram: 1 0 0 0 0 0 0 0 0 0
Neighs:              0 ave           0 max           0 min
Histogram: 1 0 0 0 0 0 0 0 0 0

Total # of neighbors = 0
Ave neighs/atom = 0
Ave special neighs/atom = 25.402985
Neighbor list builds = 0
Dangerous builds = 0
#dump rela all atom 1 traj_relax.lmpstrj
thermo 100
unfix 3

fix 2d all enforce2d



#dump dump0 all xyz 1000000 cfg0.xyz
#dump_modify dump0 format line "%d %20.10g %20.10g %20.10g"
#minimize ${etol} ${ftol} ${maxiter} ${maxeval}

#undump rela

#write_restart restart.equil

# These formulas define the derivatives w.r.t. strain components
# Constants uses $, variables use v_


timestep        ${dt}
timestep        0.01
variable nsteps equal round(${strainsteps})
variable nsteps equal round(50000)

fix             4 all nve
fix             5 all langevin 0.1 0.1 1 904297
#fix		6 all press/berendsen y  0.0 0.0 1 x 0.0 0.0 10
fix             6 all nph y 0.0 0.0 10 ptemp 0.1 # x 0.0 0.0 10

# For PLUMED2
# fix 22 all plumed plumedfile plumed.dat outfile plumed.out

#fix             6 all nph x 0.0 0.0 10
fix     	9 all deform 1 x erate -${srate} units box remap x
fix     	9 all deform 1 x erate -0.0001 units box remap x

#fix     8 all deform 1 xy erate ${srate} units box remap x



#fix    10 all ave/time

dump 1 all atom 250 deform_dump.lammpstrj


#To avoid flying ice cube phenomenon:
#fix 21 all momentum 100 linear 1 1 1 angular


run  ${nsteps}
run  50000
WARNING: One or more atoms are time integrated more than once (src/modify.cpp:292)
WARNING: Inconsistent image flags (src/domain.cpp:819)
Per MPI rank memory allocation (min/avg/max) = 7.972 | 7.972 | 7.972 Mbytes
   Step          Temp          PotEng         E_bond        E_angle        E_dihed         Press           Pxx            Pyy            Pzz            Pxy            Pxz            Pyz             Lx             Ly             Lz           Volume    
       411   0              3.1966353e-13  3.1966353e-13  0              0             -7.1665347e-07 -3.2407188e-06  1.8074118e-06  0             -0.0035514379   0              0              9.612654       9.6126535      0.2            92.403112    
       500   0.18661817     0.00088180953  0.00088180953  0              0             -155.52379     -300.43073     -10.810278      0             -192.29096      0              0              9.6117985      9.6133762      0.2            92.401835    
       600   0.21948395     0.0010870517   0.0010870517   0              0              192.5135       352.32714      32.528118      0             -198.97863      0              0              9.6108372      9.6089775      0.2            92.350319    
       700   0.21571772     0.0011379256   0.0011379256   0              0             -274.7716      -477.77298     -71.980588      0             -577.21045      0              0              9.6098759      9.6052099      0.2            92.304876    
       800   0.18915482     0.0010945597   0.0010945597   0              0              205.78138      236.19394      175.15771      0             -463.88489      0              0              9.6089147      9.6085824      0.2            92.328048    
       900   0.21663624     0.0011880418   0.0011880418   0              0             -211.54996     -197.08638     -226.23977      0             -704.96961      0              0              9.6079534      9.6072752      0.2            92.306253    
      1000   0.20070763     0.001221396    0.001221396    0              0              164.86399      34.968462      294.56721      0             -378.61032      0              0              9.6069921      9.6084849      0.2            92.308639    
      1100   0.20707971     0.0010927266   0.0010927266   0              0             -139.24457     -97.26966      -181.44644      0             -353.15402      0              0              9.6060309      9.6078324      0.2            92.293135    
      1200   0.17879408     0.0010797475   0.0010797475   0              0              599.23556      1019.1064      179.15003      0              146.11192      0              0              9.6050696      9.6055378      0.2            92.26186     
      1300   0.22436098     0.0011646966   0.0011646966   0              0             -437.86613     -748.9766      -126.94833      0             -977.01609      0              0              9.6041084      9.6064277      0.2            92.261172    
      1400   0.21392903     0.0014813548   0.0014813548   0              0              137.29837      167.41617      106.96363      0             -351.87323      0              0              9.6031471      9.6085743      0.2            92.272552    
      1500   0.22146002     0.0012388642   0.0012388642   0              0              166.65294      291.34805      41.780482      0              736.51132      0              0              9.6021858      9.6056133      0.2            92.234884    
      1600   0.21836521     0.0012721002   0.0012721002   0              0              111.50161      221.62705      1.1913349      0             -502.73705      0              0              9.6012246      9.6099614      0.2            92.267397    
      1700   0.22543608     0.0010775678   0.0010775678   0              0              155.04651      335.03882     -25.124082      0             -311.89383      0              0              9.6002633      9.6079438      0.2            92.23879     
      1800   0.18258639     0.0010653972   0.0010653972   0              0              240.59844      505.07792     -24.081097      0             -472.60947      0              0              9.599302       9.6089662      0.2            92.239369    
      1900   0.19432053     0.00081570719  0.00081570719  0              0              344.56376      466.36706      222.56273      0             -633.27933      0              0              9.5983408      9.6090772      0.2            92.231197    
      2000   0.21027908     0.0011133393   0.0011133393   0              0             -350.40178     -401.5064      -299.51091      0             -455.27387      0              0              9.5973795      9.6102927      0.2            92.233626    
      2100   0.18982966     0.0010958354   0.0010958354   0              0              678.78939      1073.3544      284.03287      0              112.70407      0              0              9.5964182      9.6103098      0.2            92.224552    
      2200   0.24266554     0.0011985237   0.0011985237   0              0             -142.31123     -69.817088     -215.01862      0              171.19864      0              0              9.595457       9.6167185      0.2            92.276809    
      2300   0.23621607     0.0010820843   0.0010820843   0              0              330.52368      516.18789      144.61814      0              519.85368      0              0              9.5944957      9.6134307      0.2            92.236019    
      2400   0.20756859     0.0013939066   0.0013939066   0              0             -57.210791     -148.81584      34.208646      0             -48.67922       0              0              9.5935344      9.6100461      0.2            92.194308    
      2500   0.18190619     0.0010225345   0.0010225345   0              0              497.41995      1281.2787     -286.64428      0              659.80246      0              0              9.5925732      9.6106761      0.2            92.191114    
      2600   0.20362056     0.0014360059   0.0014360059   0              0              368.9994       226.41855      511.38856      0              235.72686      0              0              9.5916119      9.6023451      0.2            92.101967    
      2700   0.1731329      0.0010709916   0.0010709916   0              0             -465.38363     -242.07795     -688.87247      0              892.07936      0              0              9.5906506      9.6145125      0.2            92.20943     
      2800   0.21146119     0.0012035127   0.0012035127   0              0              597.58413      466.10926      728.87216      0              31.047907      0              0              9.5896894      9.6096719      0.2            92.153768    
      2900   0.20088581     0.0013843274   0.0013843274   0              0             -865.99515     -1112.0235     -620.14411      0             -265.16775      0              0              9.5887281      9.6157682      0.2            92.202987    
      3000   0.21549883     0.0010165059   0.0010165059   0              0              479.57925      426.56601      532.4086       0             -575.20322      0              0              9.5877668      9.609212       0.2            92.130884    
      3100   0.24019393     0.00089797191  0.00089797191  0              0              539.18546      1343.4964     -265.3366       0             -622.47402      0              0              9.5868056      9.6194069      0.2            92.219384    
      3200   0.20917359     0.00096321182  0.00096321182  0              0              40.320092      60.191177      20.249312      0              597.58078      0              0              9.5858443      9.6182587      0.2            92.19913     
      3300   0.2105515      0.000912963    0.000912963    0              0             -56.519212     -305.35639      192.11155      0              367.40587      0              0              9.584883       9.6211691      0.2            92.21778     
      3400   0.23834265     0.0010150184   0.0010150184   0              0              63.044216      549.47345     -423.59657      0              290.86271      0              0              9.5839218      9.6318711      0.2            92.3111      
      3500   0.21585092     0.0010576804   0.0010576804   0              0              625.88735      646.02806      605.53841      0              515.3442       0              0              9.5829605      9.6225326      0.2            92.21235     
      3600   0.20531206     0.0011839546   0.0011839546   0              0             -360.79978      16.285501     -738.06516      0              327.35581      0              0              9.5819992      9.630106       0.2            92.275669    
      3700   0.20152933     0.0012668157   0.0012668157   0              0              1124.4007      1344.997       903.60913      0              323.12532      0              0              9.581038       9.6176691      0.2            92.147253    
      3800   0.22263744     0.0013079213   0.0013079213   0              0              216.82977      1367.8831     -934.41779      0              862.96367      0              0              9.5800767      9.6243122      0.2            92.201649    
      3900   0.19978896     0.0012001353   0.0012001353   0              0              1204.4258      1620.4209      788.25731      0              781.77406      0              0              9.5791155      9.6170108      0.2            92.122457    
      4000   0.22105502     0.0011157882   0.0011157882   0              0              570.45724      1700.8558     -560.15573      0              309.78088      0              0              9.5781542      9.621397       0.2            92.155224    
      4100   0.18684435     0.0012334659   0.0012334659   0              0              716.46137      1142.5962      290.139        0             -206.19902      0              0              9.5771929      9.6233639      0.2            92.164813    
      4200   0.21807449     0.001228788    0.001228788    0              0              430.9831       787.67067      74.095942      0             -146.66013      0              0              9.5762317      9.6200499      0.2            92.123826    
      4300   0.23212264     0.0013158844   0.0013158844   0              0              388.57993      1066.7125     -289.80011      0             -92.015118      0              0              9.5752704      9.61863        0.2            92.100983    
      4400   0.24260349     0.00098373521  0.00098373521  0              0              661.72089      830.64795      492.57743      0              229.57751      0              0              9.5743091      9.6185311      0.2            92.09079     
      4500   0.21636755     0.0010148942   0.0010148942   0              0              773.30093      2211.8705     -665.46598      0              422.66236      0              0              9.5733479      9.6235492      0.2            92.129584    
      4600   0.16461326     0.00094065332  0.00094065332  0              0              999.53806      1139.7111      859.16583      0             -103.81233      0              0              9.5723866      9.6157324      0.2            92.045508    
      4700   0.2210295      0.001105428    0.001105428    0              0             -631.37924     -329.36364     -933.58667      0              73.905092      0              0              9.5714253      9.6192034      0.2            92.069487    
      4800   0.22593261     0.0012536274   0.0012536274   0              0              962.59801      930.6749       994.34554      0             -49.39848       0              0              9.5704641      9.6058318      0.2            91.932268    
      4900   0.20779465     0.00098984323  0.00098984323  0              0             -366.87674      310.94402     -1044.9018      0              602.66828      0              0              9.5695028      9.6220625      0.2            92.078354    
      5000   0.22470196     0.0010116296   0.0010116296   0              0              381.75892     -119.36302      882.66374      0              503.6343       0              0              9.5685415      9.6134365      0.2            91.986566    
      5100   0.25090565     0.0011866544   0.0011866544   0              0              206.98633      1055.7812     -642.02097      0              1111.6589      0              0              9.5675803      9.6173232      0.2            92.014511    
      5200   0.18340031     0.0011697921   0.0011697921   0              0              694.15786      929.04418      459.038        0             -7.3374517      0              0              9.566619       9.6175637      0.2            92.007567    
      5300   0.19619199     0.0011264298   0.0011264298   0              0              314.48957      842.71827     -213.92862      0             -216.47705      0              0              9.5656577      9.6187006      0.2            92.009197    
      5400   0.19795764     0.0010393778   0.0010393778   0              0              254.59276      410.57807      98.406107      0              138.57654      0              0              9.5646965      9.6140236      0.2            91.955217    
      5500   0.15520068     0.0011236472   0.0011236472   0              0              195.22228      273.29241      116.97155      0              393.7337       0              0              9.5637352      9.6193293      0.2            91.996718    
      5600   0.17725504     0.0010058409   0.0010058409   0              0              404.12074      1061.7309     -253.68374      0              124.25342      0              0              9.5627739      9.6175752      0.2            91.970698    
      5700   0.22947303     0.0010445171   0.0010445171   0              0              1410.4581      2366.1745      454.56095      0              167.28148      0              0              9.5618127      9.6195095      0.2            91.979948    
      5800   0.16436807     0.0014533842   0.0014533842   0              0              520.26787      1570.0719     -529.72845      0              169.14016      0              0              9.5608514      9.6295901      0.2            92.06708     
      5900   0.2122396      0.0013635282   0.0013635282   0              0              221.34019     -50.038754      492.49113      0              374.14501      0              0              9.5598901      9.6151104      0.2            91.919399    
      6000   0.17484036     0.0010483162   0.0010483162   0              0             -722.45503     -937.82413     -507.29225      0             -196.98653      0              0              9.5589289      9.623739       0.2            91.992636    
      6100   0.18973254     0.0009442819   0.0009442819   0              0              771.78032      894.81832      648.54418      0             -409.66424      0              0              9.5579676      9.6238498      0.2            91.984445    
      6200   0.24575421     0.0013217796   0.0013217796   0              0             -74.90166       633.62424     -783.6514       0              139.33943      0              0              9.5570063      9.62983        0.2            92.032346    
      6300   0.1691692      0.0010750971   0.0010750971   0              0              1497.9858      2207.1522      788.63886      0              93.164208      0              0              9.5560451      9.6227097      0.2            91.955048    
      6400   0.15262491     0.0014801287   0.0014801287   0              0             -259.76194      308.67563     -828.37951      0             -258.07019      0              0              9.5550838      9.6259121      0.2            91.976397    
      6500   0.25239961     0.001149914    0.001149914    0              0              1082.29        1402.9566      761.41989      0              34.265006      0              0              9.5541226      9.62199        0.2            91.929672    
      6600   0.20898762     0.0012005311   0.0012005311   0              0              83.089184      738.30592     -572.29333      0             -224.12437      0              0              9.5531613      9.6237229      0.2            91.936977    
      6700   0.20885732     0.0011258918   0.0011258918   0              0              458.67119      555.99082      361.13812      0             -793.77085      0              0              9.5522         9.6232911      0.2            91.923601    
      6800   0.19702811     0.0010373987   0.0010373987   0              0              196.77244      551.08165     -157.74973      0             -204.59338      0              0              9.5512388      9.6269951      0.2            91.949729    
      6900   0.16302967     0.0013461659   0.0013461659   0              0              1292.4197      2564.0472      20.567447      0             -390.55697      0              0              9.5502775      9.6334257      0.2            92.001889    
      7000   0.20047208     0.0011165711   0.0011165711   0              0              475.60345      879.31704      71.668694      0             -980.24078      0              0              9.5493162      9.6281177      0.2            91.941941    
      7100   0.24398918     0.0012911583   0.0012911583   0              0              896.81636      1926.7582     -133.29197      0              407.90387      0              0              9.548355       9.6286772      0.2            91.938028    
      7200   0.18706276     0.0012891104   0.0012891104   0              0              956.06053      1634.0143      277.87732      0             -23.191483      0              0              9.5473937      9.6267428      0.2            91.910304    
      7300   0.1999789      0.0014699882   0.0014699882   0              0              483.95882      1403.6032     -435.89006      0             -701.36256      0              0              9.5464324      9.6314528      0.2            91.946013    
      7400   0.22085078     0.0012383386   0.0012383386   0              0              1397.4896      2394.6931      400.10481      0              507.31132      0              0              9.5454712      9.6272892      0.2            91.897012    
      7500   0.26875451     0.0012680326   0.0012680326   0              0              785.32646      2060.2647     -489.8367       0              79.222492      0              0              9.5445099      9.6293347      0.2            91.90728     
      7600   0.20554519     0.0013106829   0.0013106829   0              0              1308.8419      2043.2463      574.26395      0              487.36423      0              0              9.5435486      9.6251381      0.2            91.857974    
      7700   0.21631142     0.0015067191   0.0015067191   0              0             -17.844152      589.82007     -625.70029      0              332.34552      0              0              9.5425874      9.6347773      0.2            91.940704    
      7800   0.22443019     0.0013879094   0.0013879094   0              0              634.2408       832.71308      435.56086      0              427.17263      0              0              9.5416261      9.6349626      0.2            91.93321     
      7900   0.22782707     0.0014509334   0.0014509334   0              0              555.23657      1557.3442     -447.06566      0              493.46994      0              0              9.5406648      9.637588       0.2            91.948997    
      8000   0.23579791     0.0013068636   0.0013068636   0              0              668.80315      986.66451      350.71902      0              233.00534      0              0              9.5397036      9.6415086      0.2            91.977134    
      8100   0.21876552     0.0012621751   0.0012621751   0              0              352.09957      1047.3982     -343.38506      0             -493.87338      0              0              9.5387423      9.6441509      0.2            91.99307     
      8200   0.20660804     0.0011601321   0.0011601321   0              0              765.81502      1099.0565      432.3913       0              208.52755      0              0              9.537781       9.6370342      0.2            91.915922    
      8300   0.21451751     0.0013183391   0.0013183391   0              0              564.9757       1531.0861     -401.3245       0             -437.69672      0              0              9.5368198      9.6410059      0.2            91.944536    
      8400   0.20205896     0.0013377226   0.0013377226   0              0              1030.9918      1737.9057      323.89036      0              48.381225      0              0              9.5358585      9.6422923      0.2            91.947535    
      8500   0.24948592     0.0010403371   0.0010403371   0              0              389.53215      1022.414      -243.55995      0             -29.069276      0              0              9.5348972      9.6449331      0.2            91.963446    
      8600   0.18045121     0.0010590539   0.0010590539   0              0              669.26346      1172.4915      165.83241      0              1088.4999      0              0              9.533936       9.6361595      0.2            91.870527    
      8700   0.17134006     0.0011774088   0.0011774088   0              0              479.42635      1252.801      -294.13479      0              1179.3678      0              0              9.5329747      9.6337803      0.2            91.838584    
      8800   0.26011193     0.0014260428   0.0014260428   0              0              544.17299      770.16922      317.97497      0              114.22064      0              0              9.5320134      9.6389679      0.2            91.878772    
      8900   0.20986105     0.0012192144   0.0012192144   0              0             -124.56458     -43.731382     -205.59296      0             -114.10227      0              0              9.5310522      9.643526       0.2            91.91295     
      9000   0.19462468     0.0015397189   0.0015397189   0              0              331.00837      581.45896      80.33146       0             -830.34044      0              0              9.5300909      9.6404239      0.2            91.874116    
      9100   0.18471179     0.0013762878   0.0013762878   0              0              111.78487      233.4756      -10.140442      0              778.04946      0              0              9.5291297      9.6409665      0.2            91.87002     
      9200   0.19843951     0.0012997804   0.0012997804   0              0              90.897472      152.47044      29.120623      0              328.33482      0              0              9.5281684      9.6448124      0.2            91.897396    
      9300   0.16477393     0.0011974083   0.0011974083   0              0              63.555752      148.50163     -21.568278      0              363.87745      0              0              9.5272071      9.644318       0.2            91.883416    
      9400   0.22041319     0.0011387081   0.0011387081   0              0             -42.685151     -59.006408     -26.543989      0              493.77239      0              0              9.5262459      9.6462439      0.2            91.892491    
      9500   0.2277743      0.0013006035   0.0013006035   0              0             -109.34796     -129.01094     -89.872941      0             -110.19333      0              0              9.5252846      9.651048       0.2            91.928979    
      9600   0.19576124     0.0012716166   0.0012716166   0              0              884.62888      1731.5067      37.551851      0              365.21781      0              0              9.5243233      9.643762       0.2            91.850307    
      9700   0.17960266     0.0013455687   0.0013455687   0              0              1297.0665      2548.1454      45.77513       0              501.73122      0              0              9.5233621      9.6426006      0.2            91.829977    
      9800   0.24305216     0.0015331177   0.0015331177   0              0              710.96576      1550.6518     -128.92634      0              577.90497      0              0              9.5224008      9.6436252      0.2            91.830464    
      9900   0.2515794      0.0012753286   0.0012753286   0              0              1312.8464      2571.5944      53.912702      0              269.9576       0              0              9.5214395      9.6371336      0.2            91.759385    
     10000   0.2311545      0.0014012507   0.0014012507   0              0              434.81013      917.17941     -47.784775      0              986.63011      0              0              9.5204783      9.6386645      0.2            91.764696    
     10100   0.18227347     0.0014035649   0.0014035649   0              0              1365.3506      2570.6896      159.7936       0              513.65104      0              0              9.519517       9.6380476      0.2            91.749558    
     10200   0.22870388     0.0014380258   0.0014380258   0              0              812.98025      1839.6889     -213.96627      0              242.95916      0              0              9.5185557      9.6413426      0.2            91.771657    
     10300   0.18954606     0.0013638344   0.0013638344   0              0              1750.3447      3319.9656      180.4912       0              396.42952      0              0              9.5175945      9.6427235      0.2            91.775532    
     10400   0.21282128     0.0013055831   0.0013055831   0              0              457.82142      1171.0716     -255.64694      0              877.20203      0              0              9.5166332      9.6466025      0.2            91.803177    
     10500   0.19668564     0.0013879738   0.0013879738   0              0              753.39801      1177.3409      329.22467      0             -102.2299       0              0              9.5156719      9.6409675      0.2            91.740284    
     10600   0.24645822     0.0013130756   0.0013130756   0              0              97.450117      635.6766      -440.99284      0             -201.76462      0              0              9.5147107      9.646602       0.2            91.784627    
     10700   0.18425266     0.001517167    0.001517167    0              0              302.45182      44.762278      559.92944      0             -492.80789      0              0              9.5137494      9.6406461      0.2            91.718691    
     10800   0.17943047     0.0015929408   0.0015929408   0              0             -211.92924      140.15831     -564.24893      0              843.00104      0              0              9.5127881      9.6466085      0.2            91.766143    
     10900   0.18390096     0.0012570877   0.0012570877   0              0              348.27649      93.833518      602.52094      0             -83.524116      0              0              9.5118269      9.6333237      0.2            91.630507    
     11000   0.18160756     0.0012614125   0.0012614125   0              0             -324.06019     -93.942785     -554.37785      0              43.185898      0              0              9.5108656      9.639703       0.2            91.68192     
     11100   0.17505874     0.0011240667   0.0011240667   0              0              258.70613     -39.963613      557.17124      0              230.59308      0              0              9.5099043      9.6378425      0.2            91.654961    
     11200   0.22855536     0.0010087201   0.0010087201   0              0              495.453        1620.2785     -629.58833      0              257.59179      0              0              9.5089431      9.6357602      0.2            91.625895    
     11300   0.2845323      0.001218063    0.001218063    0              0              1511.3176      2407.2639      615.13323      0              438.79915      0              0              9.5079818      9.6292767      0.2            91.554988    
     11400   0.20589196     0.0012986659   0.0012986659   0              0             -87.936794      579.85271     -755.92094      0              250.48473      0              0              9.5070205      9.6342501      0.2            91.593014    
     11500   0.21052465     0.0013298702   0.0013298702   0              0              1472.066       2031.5146      912.41282      0              83.98235       0              0              9.5060593      9.6267265      0.2            91.512233    
     11600   0.21544697     0.0013309972   0.0013309972   0              0              446.38688      1899.5729     -1006.9808      0             -90.067751      0              0              9.505098       9.6351837      0.2            91.583366    
     11700   0.19203646     0.0013982091   0.0013982091   0              0              1509.4984      1929.0461      1089.7491      0              303.14641      0              0              9.5041368      9.6257901      0.2            91.484825    
     11800   0.21021619     0.0010685359   0.0010685359   0              0              76.121772      1396.3178     -1244.2767      0              69.599553      0              0              9.5031755      9.6358605      0.2            91.571273    
     11900   0.14533093     0.0012071546   0.0012071546   0              0              1327.6859      1454.5107      1200.6753      0              179.88392      0              0              9.5022142      9.6308107      0.2            91.514027    
     12000   0.21518627     0.0014111215   0.0014111215   0              0             -605.41556      54.800805     -1265.8222      0             -196.69968      0              0              9.501253       9.6450466      0.2            91.640028    
     12100   0.19917887     0.0011140205   0.0011140205   0              0              1118.6349      953.91912      1283.1316      0              286.17226      0              0              9.5002917      9.6314043      0.2            91.50115     
     12200   0.18261081     0.0014423789   0.0014423789   0              0             -6.0625205      1343.2582     -1355.5676      0              640.3017       0              0              9.4993304      9.6439264      0.2            91.610844    
     12300   0.22613219     0.0013382688   0.0013382688   0              0              1127.4241      1030.5902      1224.0477      0              916.57677      0              0              9.4983692      9.6251766      0.2            91.423481    
     12400   0.19823369     0.0013135407   0.0013135407   0              0             -173.86185      712.72537     -1060.6834      0              510.46664      0              0              9.4974079      9.634621       0.2            91.503925    
     12500   0.21941792     0.0015506896   0.0015506896   0              0              1371.5357      1810.1551      932.71599      0              519.73817      0              0              9.4964466      9.63275        0.2            91.476897    
     12600   0.20115487     0.00162086     0.00162086     0              0              132.21137      1050.3141     -786.09226      0              701.92579      0              0              9.4954854      9.6397549      0.2            91.534152    
     12700   0.15795502     0.0015878973   0.0015878973   0              0              1719.5104      2599.6735      839.14199      0              824.54704      0              0              9.4945241      9.6329888      0.2            91.460644    
     12800   0.23027094     0.0013006651   0.0013006651   0              0             -25.471654      723.82519     -774.9829       0              639.78048      0              0              9.4935628      9.6299416      0.2            91.422456    
     12900   0.20153763     0.0013511976   0.0013511976   0              0              1348.4652      1951.493       745.26032      0              315.96604      0              0              9.4926016      9.619467       0.2            91.313767    
     13000   0.20940758     0.0015067922   0.0015067922   0              0              7.2666366      764.27106     -749.9278       0              64.740948      0              0              9.4916403      9.6275693      0.2            91.381425    
     13100   0.23106137     0.0014401319   0.0014401319   0              0              1109.5296      1547.3933      671.49962      0             -658.30998      0              0              9.490679       9.6208995      0.2            91.30887     
     13200   0.22815182     0.0014077382   0.0014077382   0              0              84.327046      765.70345     -597.24001      0              289.38929      0              0              9.4897178      9.6259757      0.2            91.347792    
     13300   0.20330873     0.0015666404   0.0015666404   0              0              1523.0283      2540.1399      505.66557      0              309.30416      0              0              9.4887565      9.6154315      0.2            91.238488    
     13400   0.1909019      0.0014584716   0.0014584716   0              0             -101.76008      322.98834     -526.73199      0              225.22926      0              0              9.4877952      9.6259061      0.2            91.328626    
     13500   0.19715683     0.0016282838   0.0016282838   0              0              912.29652      1443.8753      380.4821       0             -341.37236      0              0              9.486834       9.6245895      0.2            91.306882    
     13600   0.26446854     0.0013729243   0.0013729243   0              0              625.20405      1542.735      -292.52532      0              272.4496       0              0              9.4858727      9.6285768      0.2            91.335454    
     13700   0.20942382     0.0017324573   0.0017324573   0              0              865.10752      1497.8843      232.09137      0              253.8185       0              0              9.4849114      9.6319029      0.2            91.357746    
     13800   0.22727257     0.001725394    0.001725394    0              0              580.2356       1452.4744     -292.20518      0              831.94291      0              0              9.4839502      9.634436       0.2            91.372511    
     13900   0.2370475      0.0017291427   0.0017291427   0              0              1275.5183      2266.0383      284.79543      0              19.728314      0              0              9.4829889      9.6405583      0.2            91.421307    
     14000   0.20430305     0.0017852657   0.0017852657   0              0              608.93494      1465.7641     -248.10057      0             -26.138437      0              0              9.4820276      9.6396423      0.2            91.403355    
     14100   0.23902155     0.0015033293   0.0015033293   0              0              767.18178      1299.3201      234.79046      0              769.7507       0              0              9.4810664      9.6372808      0.2            91.371699    
     14200   0.19608187     0.0014447978   0.0014447978   0              0              585.93063      1451.9713     -280.31157      0              409.07735      0              0              9.4801051      9.6381537      0.2            91.37071     
     14300   0.18751102     0.0016693569   0.0016693569   0              0              744.4591       1242.841       245.87562      0              340.72919      0              0              9.4791439      9.6380349      0.2            91.360319    
     14400   0.21504818     0.0016480078   0.0016480078   0              0              969.86858      2178.767      -239.23443      0              1027.9678      0              0              9.4781826      9.6391364      0.2            91.361495    
     14500   0.22390991     0.0014276285   0.0014276285   0              0              855.42134      1559.5946      151.05322      0              365.60209      0              0              9.4772213      9.6380215      0.2            91.341663    
     14600   0.23805538     0.001677775    0.001677775    0              0              805.04404      1669.5283     -59.620879      0              1153.0319      0              0              9.4762601      9.6456765      0.2            91.404939    
     14700   0.19109711     0.0015569335   0.0015569335   0              0              949.55041      1800.6802      98.197885      0              984.81249      0              0              9.4752988      9.6431754      0.2            91.371968    
     14800   0.20076179     0.0012976387   0.0012976387   0              0              382.89078      880.06885     -114.46593      0              572.85531      0              0              9.4743375      9.6485974      0.2            91.414068    
     14900   0.1822447      0.0015739169   0.0015739169   0              0              815.31145      1517.5135      112.94489      0              368.81589      0              0              9.4733763      9.6448642      0.2            91.369428    
     15000   0.22643609     0.0015390733   0.0015390733   0              0              465.03529      993.50534     -63.625573      0              997.55321      0              0              9.472415       9.6447567      0.2            91.359138    
     15100   0.20391457     0.0016611352   0.0016611352   0              0              1037.0093      1994.209       79.657824      0              1068.2587      0              0              9.4714537      9.6452         0.2            91.354065    
     15200   0.20108669     0.0016581516   0.0016581516   0              0              890.65796      1815.135      -34.035618      0              612.52541      0              0              9.4704925      9.6447027      0.2            91.340085    
     15300   0.19556277     0.0015308106   0.0015308106   0              0              538.44955      1036.9464      39.778874      0              1247.4058      0              0              9.4695312      9.6417011      0.2            91.30239     
     15400   0.19425806     0.0015680055   0.0015680055   0              0              132.91252      376.31325     -110.7136       0              271.03769      0              0              9.4685699      9.6501305      0.2            91.372936    
     15500   0.19489366     0.0019310455   0.0019310455   0              0              1454.0589      2751.0587      156.83825      0              64.351224      0              0              9.4676087      9.6513071      0.2            91.374798    
     15600   0.21109922     0.0015368295   0.0015368295   0              0              1036.8287      2196.8359     -123.39275      0              521.02441      0              0              9.4666474      9.6518912      0.2            91.371051    
     15700   0.22587305     0.0017830885   0.0017830885   0              0              1451.2739      2631.081       271.29712      0              444.19285      0              0              9.4656861      9.6458033      0.2            91.304147    
     15800   0.19374148     0.001571101    0.001571101    0              0              442.99003      1145.3848     -259.60451      0             -207.03363      0              0              9.4647249      9.6594752      0.2            91.424276    
     15900   0.21828301     0.0015767491   0.0015767491   0              0              1596.1488      2914.8565      277.27325      0              912.90512      0              0              9.4637636      9.6567414      0.2            91.389118    
     16000   0.22867347     0.0012937441   0.0012937441   0              0              410.05314      1097.6826     -277.81721      0              382.66481      0              0              9.4628023      9.6559669      0.2            91.372506    
     16100   0.18753266     0.0015982486   0.0015982486   0              0              864.58193      1410.0951      318.88217      0              15.498748      0              0              9.4618411      9.6566626      0.2            91.369807    
     16200   0.17850971     0.0015990968   0.0015990968   0              0              444.29563      1133.4797     -245.02601      0             -399.87965      0              0              9.4608798      9.6544343      0.2            91.339442    
     16300   0.1866901      0.0013919489   0.0013919489   0              0              1023.3719      1795.276       251.25759      0              31.262176      0              0              9.4599185      9.6446672      0.2            91.237767    
     16400   0.17015856     0.0014991002   0.0014991002   0              0              212.9307       740.45692     -314.78009      0              506.13577      0              0              9.4589573      9.6472014      0.2            91.252466    
     16500   0.19011784     0.0017477212   0.0017477212   0              0              910.26799      1567.281       253.07218      0             -394.84199      0              0              9.457996       9.6476084      0.2            91.247041    
     16600   0.21959915     0.0016482079   0.0016482079   0              0              901.84614      2015.6359     -212.14917      0             -692.57117      0              0              9.4570347      9.6416997      0.2            91.181889    
     16700   0.20998254     0.0015252024   0.0015252024   0              0              817.33092      1342.6265      291.83849      0              403.23783      0              0              9.4560735      9.6367728      0.2            91.126032    
     16800   0.24559412     0.0016387852   0.0016387852   0              0              1018.0692      2389.4158     -353.43289      0             -717.48312      0              0              9.4551122      9.6444223      0.2            91.189095    
     16900   0.25238577     0.0016144836   0.0016144836   0              0              1451.7519      2527.6658      375.61067      0             -532.65855      0              0              9.454151       9.6484601      0.2            91.217998    
     17000   0.19117387     0.0014718387   0.0014718387   0              0              797.3334       2074.1738     -479.72657      0              832.0414       0              0              9.4531897      9.6545906      0.2            91.266676    
     17100   0.19127735     0.0017292085   0.0017292085   0              0              1769.17        2992.9991      545.14606      0              972.39839      0              0              9.4522284      9.6487355      0.2            91.202052    
     17200   0.24929687     0.0016564122   0.0016564122   0              0              363.60037      1366.9359     -639.94044      0              1013.2697      0              0              9.4512672      9.6483005      0.2            91.188666    
     17300   0.20782093     0.0015454435   0.0015454435   0              0              1805.0909      2878.4046      731.57049      0              1073.0475      0              0              9.4503059      9.6388706      0.2            91.090276    
     17400   0.19716667     0.0016785088   0.0016785088   0              0              706.33532      2239.8324     -827.34464      0             -121.00783      0              0              9.4493446      9.6486501      0.2            91.17342     
     17500   0.22526382     0.0015060362   0.0015060362   0              0              1489.7935      2036.447       942.91678      0             -3.0971787      0              0              9.4483834      9.6414887      0.2            91.096482    
     17600   0.21414132     0.0016718364   0.0016718364   0              0              933.19788      2785.6762     -919.453        0             -66.709877      0              0              9.4474221      9.6533252      0.2            91.199038    
     17700   0.18116833     0.0018016643   0.0018016643   0              0              1577.74        2275.9453      879.34601      0              367.1083       0              0              9.4464608      9.644372       0.2            91.105182    
     17800   0.20780513     0.001436852    0.001436852    0              0              624.52342      2136.7945     -887.93346      0              146.5669       0              0              9.4454996      9.6534374      0.2            91.181539    
     17900   0.1797901      0.0014598621   0.0014598621   0              0              683.71613      559.41929      807.79165      0              698.37746      0              0              9.4445383      9.6436726      0.2            91.080035    
     18000   0.1531301      0.0015555596   0.0015555596   0              0              195.81732      1183.22       -791.75473      0              305.58302      0              0              9.443577       9.6506783      0.2            91.136924    
     18100   0.19738422     0.0014870074   0.0014870074   0              0              1322.0263      1798.4543      845.42109      0              469.93356      0              0              9.4426158      9.642174       0.2            91.047344    
     18200   0.19536116     0.0013522106   0.0013522106   0              0              67.364193      914.85985     -780.31748      0              1632.2706      0              0              9.4416545      9.6464255      0.2            91.078217    
     18300   0.23417646     0.0016993718   0.0016993718   0              0              1791.164       2773.7048      808.40679      0              888.41697      0              0              9.4406932      9.6485801      0.2            91.089285    
     18400   0.19419872     0.0014794213   0.0014794213   0              0             -8.1476015      737.99514     -754.49873      0              501.9408       0              0              9.439732       9.6544453      0.2            91.135376    
     18500   0.23377621     0.001704085    0.001704085    0              0              1171.0513      1556.1145      785.7755       0              691.85067      0              0              9.4387707      9.6430841      0.2            91.01886     
     18600   0.17905657     0.0016034074   0.0016034074   0              0              502.81304      1802.209      -796.77857      0              454.2038       0              0              9.4378094      9.6493799      0.2            91.069009    
     18700   0.18946062     0.001590751    0.001590751    0              0              881.72266      1070.7022      692.53046      0              1087.6693      0              0              9.4368482      9.6439499      0.2            91.008491    
     18800   0.26056901     0.0017366348   0.0017366348   0              0              408.64706      1412.6848     -595.58982      0             -324.01931      0              0              9.4358869      9.6454468      0.2            91.013345    
     18900   0.21533567     0.001805489    0.001805489    0              0              1656.6018      2914.2033      398.81257      0              150.87572      0              0              9.4349256      9.6474865      0.2            91.023317    
     19000   0.21802258     0.0016774005   0.0016774005   0              0              791.63268      1744.2976     -161.27538      0              434.33879      0              0              9.4339644      9.6443923      0.2            90.984853    
     19100   0.23394475     0.0017011182   0.0017011182   0              0              1113.1749      2119.5124      106.63221      0              550.91703      0              0              9.4330031      9.6398504      0.2            90.932739    
     19200   0.20190263     0.001818708    0.001818708    0              0              1110.1932      2193.8397      26.327396      0             -707.77458      0              0              9.4320418      9.6470555      0.2            90.991431    
     19300   0.19980492     0.0017090878   0.0017090878   0              0              370.00732      1167.5531     -427.77502      0             -311.73617      0              0              9.4310806      9.6478729      0.2            90.989867    
     19400   0.21592243     0.0013393316   0.0013393316   0              0              1300.0868      1895.4827      704.49036      0              633.41616      0              0              9.4301193      9.6454681      0.2            90.957915    
     19500   0.17223101     0.0015787215   0.0015787215   0              0              203.54947      1352.9339     -946.03868      0              608.04976      0              0              9.4291581      9.6549223      0.2            91.037788    
     19600   0.19781416     0.0017642193   0.0017642193   0              0              1108.9301      1060.6566      1156.9863      0              760.68609      0              0              9.4281968      9.6423535      0.2            90.910006    
     19700   0.18074307     0.0017044513   0.0017044513   0              0             -307.63417      567.55972     -1183.0013      0              683.52276      0              0              9.4272355      9.6507014      0.2            90.979435    
     19800   0.22889146     0.0017665316   0.0017665316   0              0              1483.0497      1768.8154      1197.0991      0              1262.3515      0              0              9.4262743      9.6404313      0.2            90.873349    
     19900   0.20168436     0.0018055166   0.0018055166   0              0             -126.6836       1017.5201     -1271.1         0              742.41807      0              0              9.425313       9.6428444      0.2            90.886827    
     20000   0.16778846     0.0016611135   0.0016611135   0              0              2137.9162      3091.5467      1184.0743      0              1436.5569      0              0              9.4243517      9.6348901      0.2            90.802593    
     20100   0.21661568     0.0017412689   0.0017412689   0              0              164.83287      1536.8924     -1207.4291      0              436.72927      0              0              9.4233905      9.6460534      0.2            90.898527    
     20200   0.25837761     0.0020566882   0.0020566882   0              0              1221.7219      1314.2048      1129.0436      0              800.20907      0              0              9.4224292      9.6419082      0.2            90.850197    
     20300   0.21798913     0.0018106621   0.0018106621   0              0              207.36618      1504.5764     -1090.0618      0              280.41402      0              0              9.4214679      9.6554204      0.2            90.968234    
     20400   0.25356646     0.0015521116   0.0015521116   0              0              1853.6636      2625.0528      1082.1069      0              567.46279      0              0              9.4205067      9.645641       0.2            90.866825    
     20500   0.20877674     0.0017541498   0.0017541498   0              0              86.176292      1119.8915     -947.77647      0             -218.73529      0              0              9.4195454      9.6466826      0.2            90.867364    
     20600   0.23092075     0.0017313808   0.0017313808   0              0              1187.4925      1556.3714      818.41294      0              774.61179      0              0              9.4185841      9.6408609      0.2            90.80326     
     20700   0.21760069     0.0019172954   0.0019172954   0              0              304.41242      1380.2682     -771.63994      0              580.69403      0              0              9.4176229      9.6439926      0.2            90.823486    
     20800   0.23181464     0.0019558754   0.0019558754   0              0              1413.1735      2164.4386      661.73844      0              1006.9134      0              0              9.4166616      9.6437076      0.2            90.811531    
     20900   0.22398762     0.0015149501   0.0015149501   0              0              280.48821      1064.6333     -503.85288      0              860.84045      0              0              9.4157003      9.6476994      0.2            90.839847    
     21000   0.16149548     0.0017231922   0.0017231922   0              0              1311.9715      2316.51        307.27594      0              1140.3205      0              0              9.4147391      9.6447011      0.2            90.802345    
     21100   0.21528628     0.0016750504   0.0016750504   0              0              1361.3857      2953.4387     -230.89067      0              499.45438      0              0              9.4137778      9.6473248      0.2            90.817772    
     21200   0.15018676     0.0019564999   0.0019564999   0              0              957.54571      1817.451       97.451226      0              422.67636      0              0              9.4128165      9.6480112      0.2            90.81496     
     21300   0.1957082      0.0015534638   0.0015534638   0              0              875.89015      1872.3767     -120.79464      0              864.3959       0              0              9.4118553      9.6458845      0.2            90.785669    
     21400   0.19497604     0.0014898226   0.0014898226   0              0              1163.1492      2240.3857      85.726521      0              541.13499      0              0              9.410894       9.6415179      0.2            90.735303    
     21500   0.1949827      0.0016697555   0.0016697555   0              0              1225.7225      2371.7238      79.5333        0              994.55646      0              0              9.4099327      9.6485994      0.2            90.792672    
     21600   0.24354546     0.0016065284   0.0016065284   0              0              8.2355748      278.34274     -262.04808      0              266.15897      0              0              9.4089715      9.6481649      0.2            90.779308    
     21700   0.20056179     0.0016422384   0.0016422384   0              0              1004.0349      1684.1417      323.68148      0              570.12585      0              0              9.4080102      9.6448329      0.2            90.738686    
     21800   0.21814895     0.0015949345   0.0015949345   0              0              1166.2031      2725.0832     -392.89831      0              625.84296      0              0              9.4070489      9.6430949      0.2            90.713066    
     21900   0.21549053     0.001599178    0.001599178    0              0              1020.2864      1540.7305      499.6012       0              414.92189      0              0              9.4060877      9.6356401      0.2            90.633675    
     22000   0.20789384     0.0017012798   0.0017012798   0              0              450.39328      1392.4062     -491.83688      0              353.39173      0              0              9.4051264      9.6460086      0.2            90.72193     
     22100   0.22609669     0.001828696    0.001828696    0              0              1275.2848      2068.857       481.50078      0              710.88643      0              0              9.4041652      9.6427503      0.2            90.682017    
     22200   0.21775825     0.0019662508   0.0019662508   0              0              729.11462      1830.1121     -372.07328      0              559.3977       0              0              9.4032039      9.6449109      0.2            90.693063    
     22300   0.23368293     0.0019179452   0.0019179452   0              0              1246.6322      2163.2833      329.81506      0              465.31138      0              0              9.4022426      9.644249       0.2            90.677569    
     22400   0.20841856     0.0017386718   0.0017386718   0              0              228.77434      580.54586     -123.17593      0              94.179143      0              0              9.4012814      9.6454478      0.2            90.679569    
     22500   0.22502246     0.0018115257   0.0018115257   0              0              531.45834      1007.3         55.435017      0             -7.8776064      0              0              9.4003201      9.639925       0.2            90.61838     
     22600   0.20375148     0.0020193759   0.0020193759   0              0              1135.1895      2331.5733     -61.396405      0              242.94586      0              0              9.3993588      9.6436764      0.2            90.644375    
     22700   0.25834579     0.001936008    0.001936008    0              0              1113.3084      2143.9663      82.424409      0              525.04729      0              0              9.3983976      9.6326577      0.2            90.531547    
     22800   0.19825333     0.0019557105   0.0019557105   0              0              584.36095      1354.15       -185.64647      0             -352.4746       0              0              9.3974363      9.6400611      0.2            90.59186     
     22900   0.19012131     0.0018189316   0.0018189316   0              0              620.75866      994.75858      246.5294       0              233.95635      0              0              9.396475       9.640304       0.2            90.584876    
     23000   0.24955977     0.0017885314   0.0017885314   0              0              419.19072      888.60622     -50.400448      0              281.76741      0              0              9.3955138      9.6445094      0.2            90.61512     
     23100   0.18496664     0.0018294848   0.0018294848   0              0              601.1401       1246.3279     -44.276914      0              893.36998      0              0              9.3945525      9.640429       0.2            90.567516    
     23200   0.2094487      0.0016779078   0.0016779078   0              0              1231.9426      2493.1121     -29.398018      0              449.49595      0              0              9.3935912      9.644752       0.2            90.598858    
     23300   0.18333302     0.0019069688   0.0019069688   0              0              492.45429      955.30921      29.422933      0              869.41464      0              0              9.39263        9.6456889      0.2            90.598387    
     23400   0.19370304     0.0019229946   0.0019229946   0              0              901.00123      1702.5487      99.229313      0              1645.2099      0              0              9.3916687      9.6440488      0.2            90.573711    
     23500   0.21360983     0.0018635298   0.0018635298   0              0              738.30949      1619.8963     -143.48271      0              540.03869      0              0              9.3907074      9.6377284      0.2            90.505088    
     23600   0.18636455     0.0019309065   0.0019309065   0              0              845.60298      1511.2231      179.8079       0              779.33256      0              0              9.3897462      9.6359771      0.2            90.479379    
     23700   0.20904009     0.0018612584   0.0018612584   0              0              574.60449      1428.6593     -279.67158      0              1547.7429      0              0              9.3887849      9.6360881      0.2            90.471159    
     23800   0.18810341     0.0019812072   0.0019812072   0              0              649.8065       1034.9097      264.50042      0              569.94383      0              0              9.3878236      9.6395213      0.2            90.494126    
     23900   0.24703057     0.001907902    0.001907902    0              0              276.13678      817.95251     -265.89168      0              890.30175      0              0              9.3868624      9.646885       0.2            90.553982    
     24000   0.21011069     0.0019458083   0.0019458083   0              0              934.29286      1530.4757      337.91525      0              500.50675      0              0              9.3859011      9.6400173      0.2            90.480249    
     24100   0.21288161     0.0019661308   0.0019661308   0              0              589.6331       1571.0959     -392.05724      0              668.58282      0              0              9.3849398      9.6513373      0.2            90.57722     
     24200   0.23458057     0.0020853304   0.0020853304   0              0              1128.0359      1947.2042      308.65492      0              429.80749      0              0              9.3839786      9.6456537      0.2            90.514608    
     24300   0.17178821     0.0022623471   0.0022623471   0              0              1213.511       2815.8094     -388.96985      0              476.41207      0              0              9.3830173      9.6491699      0.2            90.538328    
     24400   0.20207187     0.0022545406   0.0022545406   0              0              1643.9846      2817.8475      469.93299      0              637.9572       0              0              9.382056       9.6461637      0.2            90.500848    
     24500   0.20774947     0.0021708083   0.0021708083   0              0              944.75188      2318.2103     -428.92282      0              889.01133      0              0              9.3810948      9.6454659      0.2            90.48503     
     24600   0.17516226     0.0019345541   0.0019345541   0              0              1317.7425      2180.298       455.00346      0              717.50642      0              0              9.3801335      9.6440774      0.2            90.462733    
     24700   0.25014519     0.0017789208   0.0017789208   0              0              576.06086      1551.6892     -399.76724      0              450.49154      0              0              9.3791722      9.6523642      0.2            90.531186    
     24800   0.25540798     0.0021183752   0.0021183752   0              0              1796.8929      3320.2056      273.3471       0              607.52493      0              0              9.378211       9.6480446      0.2            90.481398    
     24900   0.21766065     0.0021640454   0.0021640454   0              0              1080.4374      2416.336      -255.7018       0             -110.29953      0              0              9.3772497      9.6481535      0.2            90.473145    
     25000   0.24389691     0.0019854847   0.0019854847   0              0              1611.9538      2949.6468      274.07346      0             -210.11404      0              0              9.3762885      9.6484752      0.2            90.466887    
     25100   0.19329621     0.0020257658   0.0020257658   0              0              974.61206      2034.9727     -85.936434      0              342.93249      0              0              9.3753272      9.6550154      0.2            90.518929    
     25200   0.212976       0.0020252897   0.0020252897   0              0              1264.9924      2695.7818     -165.98925      0              364.72621      0              0              9.3743659      9.6556692      0.2            90.515776    
     25300   0.1782008      0.0019467348   0.0019467348   0              0              1846.4268      3424.3831      268.27162      0              506.11978      0              0              9.3734047      9.6496366      0.2            90.449949    
     25400   0.18189795     0.0020446961   0.0020446961   0              0              1353.6123      3142.5541     -435.55092      0              171.65798      0              0              9.3724434      9.6570304      0.2            90.509971    
     25500   0.18757248     0.001854283    0.001854283    0              0              874.97837      1248.3681      501.40172      0              568.45033      0              0              9.3714821      9.6553053      0.2            90.484521    
     25600   0.16088599     0.0018211346   0.0018211346   0              0              618.61625      1807.5689     -570.51889      0              551.86746      0              0              9.3705209      9.6595121      0.2            90.51466     
     25700   0.16950579     0.0021792873   0.0021792873   0              0              1589.7431      2505.2867      674.01498      0              1122.5265      0              0              9.3695596      9.6531239      0.2            90.445519    
     25800   0.2198384      0.0018433571   0.0018433571   0              0              919.85693      2452.2359     -612.72         0              934.79581      0              0              9.3685983      9.656327       0.2            90.466249    
     25900   0.20367351     0.002160061    0.002160061    0              0              1597.9369      2648.2616      547.37034      0              1139.0293      0              0              9.3676371      9.6529537      0.2            90.425367    
     26000   0.23426797     0.0020974083   0.0020974083   0              0              1171.1869      2603.9833     -261.84446      0              686.7337       0              0              9.3666758      9.6522088      0.2            90.409111    
     26100   0.20388378     0.0023172897   0.0023172897   0              0              939.87655      1867.3243      12.23293       0              296.24497      0              0              9.3657145      9.6530317      0.2            90.407539    
     26200   0.20549948     0.0022177271   0.0022177271   0              0              1225.17        2245.7359      204.41808      0              711.90933      0              0              9.3647533      9.6505465      0.2            90.374987    
     26300   0.17516948     0.0020961685   0.0020961685   0              0              1096.7473      2694.6901     -501.43366      0              339.94229      0              0              9.363792       9.6548173      0.2            90.405701    
     26400   0.17422548     0.002268316    0.002268316    0              0              1408.5305      1952.4894      864.35934      0              640.19555      0              0              9.3628307      9.6397921      0.2            90.255742    
     26500   0.2064847      0.0020848926   0.0020848926   0              0              868.36484      2799.9711     -1063.4382      0             -62.278157      0              0              9.3618695      9.6523342      0.2            90.363892    
     26600   0.20780005     0.0020147331   0.0020147331   0              0              2055.7236      2900.7627      1210.4926      0              669.98547      0              0              9.3609082      9.6367969      0.2            90.209171    
     26700   0.20579729     0.0017814006   0.0017814006   0              0              929.59222      3105.6072     -1246.6388      0              636.516        0              0              9.3599469      9.6451759      0.2            90.278335    
     26800   0.20459841     0.002270957    0.002270957    0              0              1687.1073      2114.0627      1259.9546      0              350.7856       0              0              9.3589857      9.6372668      0.2            90.195042    
     26900   0.21428304     0.0020394979   0.0020394979   0              0              592.61103      2265.6038     -1080.5742      0              635.22091      0              0              9.3580244      9.6449391      0.2            90.257576    
     27000   0.19146935     0.0019547609   0.0019547609   0              0              920.78668      866.0949       975.29732      0              414.78162      0              0              9.3570631      9.6383533      0.2            90.18668     
     27100   0.20731322     0.0023212217   0.0023212217   0              0              341.30196      1429.4423     -747.05759      0              896.8265       0              0              9.3561019      9.6501094      0.2            90.287406    
     27200   0.19732269     0.0020553693   0.0020553693   0              0              1407.3693      2537.1591      277.38377      0              495.50396      0              0              9.3551406      9.6427276      0.2            90.209072    
     27300   0.20701574     0.0020921518   0.0020921518   0              0              1004.933       2004.1784      5.4702083      0              1170.9195      0              0              9.3541793      9.6447098      0.2            90.218345    
     27400   0.20707287     0.0019832833   0.0019832833   0              0              1070.4566      2544.0446     -403.32808      0              853.46093      0              0              9.3532181      9.6474068      0.2            90.2343      
     27500   0.22788357     0.0019090229   0.0019090229   0              0              1072.2377      1429.8914      714.3919       0              419.62336      0              0              9.3522568      9.6357797      0.2            90.116286    
     27600   0.25709136     0.0019220787   0.0019220787   0              0             -34.037285      978.99437     -1047.3046      0              118.50442      0              0              9.3512956      9.6419561      0.2            90.164781    
     27700   0.21468133     0.0020042232   0.0020042232   0              0              1986.6818      2837.6885      1135.5174      0              307.14652      0              0              9.3503343      9.6297182      0.2            90.041084    
     27800   0.18896076     0.0022374635   0.0022374635   0              0             -386.64026      485.21633     -1258.7537      0              535.28737      0              0              9.349373       9.6413044      0.2            90.140151    
     27900   0.2263949      0.0021254123   0.0021254123   0              0              1467.8448      1560.4666      1375.015       0              823.2741       0              0              9.3484118      9.6265518      0.2            89.99297     
     28000   0.18587424     0.0021825883   0.0021825883   0              0              273.50484      1731.0643     -1184.2386      0              994.12822      0              0              9.3474505      9.6398868      0.2            90.108364    
     28100   0.18315064     0.0020359305   0.0020359305   0              0              676.94329      488.31351      865.35415      0              745.81747      0              0              9.3464892      9.6383314      0.2            90.084561    
     28200   0.24908307     0.0020696905   0.0020696905   0              0              1175.648       2903.5556     -552.4504       0              1053.0441      0              0              9.345528       9.6398161      0.2            90.089171    
[...]
     43200   0.18493233     0.0035684643   0.0035684643   0              0             -34.049923      235.96779     -304.26521      0              452.82599      0              0              9.2013382      9.6136523      0.2            88.458466    
     43300   0.17567273     0.0032973665   0.0032973665   0              0              1229.5445      2637.4119     -178.55075      0              815.83255      0              0              9.2003769      9.6189689      0.2            88.498139    
     43400   0.22898882     0.0034391313   0.0034391313   0              0              1900.978       3235.4517      566.28613      0              970.84439      0              0              9.1994156      9.6156788      0.2            88.458626    
     43500   0.20141189     0.0034661523   0.0034661523   0              0              935.98273      2719.0023     -847.25989      0              1260.814       0              0              9.1984544      9.6213053      0.2            88.501138    
     43600   0.22144785     0.0035283864   0.0035283864   0              0              2295.3369      3617.4378      973.04895      0             -252.12518      0              0              9.1974931      9.6163203      0.2            88.446039    
     43700   0.21561418     0.0031834417   0.0031834417   0              0              400.51356      1712.8549     -912.01759      0              77.019101      0              0              9.1965318      9.6259464      0.2            88.525323    
     43800   0.21089098     0.0033925432   0.0033925432   0              0              1920.5157      3149.7621      691.08674      0              432.13585      0              0              9.1955706      9.616085       0.2            88.425388    
     43900   0.23008923     0.0034786064   0.0034786064   0              0              1706.6149      3874.5169     -461.47125      0             -406.36377      0              0              9.1946093      9.6219298      0.2            88.469885    
     44000   0.17731723     0.0035547736   0.0035547736   0              0              1222.4586      2423.2063      21.48374       0             -340.87851      0              0              9.193648       9.6190733      0.2            88.434374    
     44100   0.17438992     0.0035971916   0.0035971916   0              0              1704.5321      3064.8393      344.04422      0             -709.94345      0              0              9.1926868      9.6028892      0.2            88.276352    
     44200   0.27509597     0.003439736    0.003439736    0              0              963.28739      2563.1728     -636.81654      0             -350.19181      0              0              9.1917255      9.6105762      0.2            88.337779    
     44300   0.19073974     0.0036161524   0.0036161524   0              0              2066.6183      3394.1124      738.9652       0             -273.19976      0              0              9.1907642      9.6086926      0.2            88.311228    
     44400   0.22260161     0.0034348028   0.0034348028   0              0              633.0834       1929.3234     -663.34983      0              555.41249      0              0              9.189803       9.6136388      0.2            88.347446    
     44500   0.21042836     0.0032599976   0.0032599976   0              0              1875.8318      3180.3608      571.08322      0              820.96589      0              0              9.1888417      9.6072958      0.2            88.27992     
     44600   0.19262947     0.0033322557   0.0033322557   0              0              1589.997       3708.0778     -528.28468      0              251.66811      0              0              9.1878804      9.6078711      0.2            88.275971    
     44700   0.18105256     0.0034880015   0.0034880015   0              0              1186.5123      2050.7315      322.05147      0              446.12958      0              0              9.1869192      9.6157659      0.2            88.339264    
     44800   0.20784333     0.0035944552   0.0035944552   0              0              742.76579      1629.5308     -144.21573      0              403.26723      0              0              9.1859579      9.6157476      0.2            88.329853    
     44900   0.21925899     0.0035171139   0.0035171139   0              0              1397.9367      2724.696       70.934771      0              225.16378      0              0              9.1849966      9.6141313      0.2            88.305764    
     45000   0.24341173     0.0038519005   0.0038519005   0              0              1707.4667      3232.3234      182.35985      0              486.63255      0              0              9.1840354      9.6142857      0.2            88.29794     
     45100   0.20278367     0.0034886259   0.0034886259   0              0              971.62396      2285.2876     -342.30955      0             -73.572391      0              0              9.1830741      9.6164935      0.2            88.308972    
     45200   0.24591427     0.003410532    0.003410532    0              0              1044.7143      1721.3919      367.85928      0              172.95108      0              0              9.1821128      9.6132638      0.2            88.270073    
     45300   0.27787512     0.0036412229   0.0036412229   0              0              1602.0851      3551.0567     -347.09705      0              190.2826       0              0              9.1811516      9.6124107      0.2            88.253       
     45400   0.19891812     0.0038868083   0.0038868083   0              0              1695.6573      3228.2218      162.92186      0             -405.38022      0              0              9.1801903      9.6082503      0.2            88.205567    
     45500   0.20474273     0.0038873947   0.0038873947   0              0              1104.2256      2252.4389     -44.18719       0             -470.05322      0              0              9.179229       9.6099267      0.2            88.211719    
     45600   0.19026396     0.0038519779   0.0038519779   0              0              1263.7607      2568.1231     -40.820636      0             -70.51262       0              0              9.1782678      9.607919       0.2            88.184054    
     45700   0.19275933     0.0036678134   0.0036678134   0              0              1713.525       3339.5455      87.307995      0             -168.79464      0              0              9.1773065      9.60503        0.2            88.148305    
     45800   0.20867465     0.0035083401   0.0035083401   0              0              1175.1526      2330.0932      20.019208      0             -449.96681      0              0              9.1763453      9.6058223      0.2            88.146342    
     45900   0.17806263     0.0035245777   0.0035245777   0              0              745.8621       1556.136      -64.598617      0              123.91791      0              0              9.175384       9.6068549      0.2            88.146582    
     46000   0.20823715     0.0035115239   0.0035115239   0              0              523.66395      946.65632      100.44989      0              806.76763      0              0              9.1744227      9.6079782      0.2            88.147654    
     46100   0.22220673     0.0036404287   0.0036404287   0              0              1405.7067      3109.8927     -298.68679      0             -20.611765      0              0              9.1734615      9.6078877      0.2            88.137587    
     46200   0.19192162     0.003712715    0.003712715    0              0              1628.8115      2951.7683      305.66607      0             -179.87574      0              0              9.1725002      9.5972999      0.2            88.031235    
     46300   0.19970042     0.0034962855   0.0034962855   0              0              843.84856      2015.5802     -328.10648      0             -412.20825      0              0              9.1715389      9.6016416      0.2            88.06183     
     46400   0.20317043     0.0035110357   0.0035110357   0              0              1221.3611      2220.9505      221.53709      0             -575.03767      0              0              9.1705777      9.6077765      0.2            88.108861    
     46500   0.19711723     0.0036691853   0.0036691853   0              0              1187.6635      2378.7636     -3.6411869      0             -322.75315      0              0              9.1696164      9.60931        0.2            88.113687    
     46600   0.20067614     0.0038322013   0.0038322013   0              0              1205.0419      2544.7534     -134.88415      0             -684.39155      0              0              9.1686551      9.6082727      0.2            88.094939    
     46700   0.17652176     0.0036026788   0.0036026788   0              0              2211.6137      3992.8686      430.14819      0             -286.97281      0              0              9.1676939      9.6101658      0.2            88.103058    
     46800   0.18750733     0.0036355215   0.0036355215   0              0              1443.6776      3318.5125     -431.37355      0              162.91009      0              0              9.1667326      9.6037992      0.2            88.035459    
     46900   0.19307843     0.0039750678   0.0039750678   0              0              2283.7339      4117.0313      450.245        0              772.56872      0              0              9.1657713      9.6081924      0.2            88.066494    
     47000   0.18457477     0.0038989362   0.0038989362   0              0              1917.801       4039.2685     -203.88802      0              1639.3897      0              0              9.1648101      9.6068421      0.2            88.044883    
     47100   0.16931939     0.0036867388   0.0036867388   0              0              1862.0556      3627.7308      96.178441      0              501.52818      0              0              9.1638488      9.6097248      0.2            88.062065    
     47200   0.15868398     0.0037367637   0.0037367637   0              0              2113.0048      4063.9703      161.82227      0              995.32054      0              0              9.1628875      9.6067111      0.2            88.025214    
     47300   0.19418331     0.0037550678   0.0037550678   0              0              1446.3145      3212.5971     -320.20403      0              302.32147      0              0              9.1619263      9.6118844      0.2            88.063376    
     47400   0.20423771     0.0039850172   0.0039850172   0              0              2084.6276      3921.7195      247.29123      0              1304.5164      0              0              9.160965       9.6120656      0.2            88.055796    
     47500   0.20261071     0.0038912387   0.0038912387   0              0              1922.0568      4083.4081     -239.49899      0              421.48766      0              0              9.1600037      9.6153729      0.2            88.076852    
     47600   0.228702       0.0039464828   0.0039464828   0              0              1589.1574      2988.6675      189.45174      0              690.02412      0              0              9.1590425      9.6111529      0.2            88.028958    
     47700   0.25026205     0.0040667155   0.0040667155   0              0              2211.5097      4402.4583      20.359714      0              537.88699      0              0              9.1580812      9.6038558      0.2            87.952891    
     47800   0.20162837     0.0038353355   0.0038353355   0              0              1566.9255      3277.4728     -143.80728      0              905.55103      0              0              9.1571199      9.6071844      0.2            87.97414     
     47900   0.17573932     0.0038721714   0.0038721714   0              0              1524.6801      2729.962       319.20636      0              429.4792       0              0              9.1561587      9.6039603      0.2            87.935385    
     48000   0.19784759     0.003906251    0.003906251    0              0              1314.5934      3054.4694     -425.48066      0              902.29635      0              0              9.1551974      9.6044078      0.2            87.930249    
     48100   0.17945355     0.0040389839   0.0040389839   0              0              2619.2086      4682.4955      555.70798      0             -24.803638      0              0              9.1542361      9.6028414      0.2            87.906678    
     48200   0.21445498     0.0038076286   0.0038076286   0              0              1418.6259      3270.7033     -433.61698      0              621.32785      0              0              9.1532749      9.6091655      0.2            87.955333    
     48300   0.16585082     0.0037243111   0.0037243111   0              0              2220.9598      4159.2533      282.45584      0              9.8005444      0              0              9.1523136      9.6065274      0.2            87.921952    
     48400   0.18081234     0.0036353903   0.0036353903   0              0              685.53742      1390.9705     -20.097333      0              809.69517      0              0              9.1513524      9.6102793      0.2            87.947052    
     48500   0.19284452     0.0039918972   0.0039918972   0              0              1295.4736      2823.7839     -233.07948      0              710.66817      0              0              9.1503911      9.6062029      0.2            87.900513    
     48600   0.21075935     0.0037117137   0.0037117137   0              0              1770.3503      2879.6303      660.86459      0              452.19503      0              0              9.1494298      9.5993563      0.2            87.828637    
     48700   0.21034434     0.0041743235   0.0041743235   0              0              1033.7082      3003.2528     -936.02944      0              622.2691       0              0              9.1484686      9.607011       0.2            87.889438    
     48800   0.18025186     0.0037330845   0.0037330845   0              0              1966.823       2897.1687      1036.3064      0             -177.88259      0              0              9.1475073      9.59989        0.2            87.815064    
     48900   0.18309867     0.0040341181   0.0040341181   0              0              1342.5037      3517.0316     -832.17929      0              146.26981      0              0              9.146546       9.6127565      0.2            87.923519    
     49000   0.19148581     0.0041188699   0.0041188699   0              0              1770.6024      3096.077       444.90037      0              533.88534      0              0              9.1455848      9.5968625      0.2            87.76892     
     49100   0.16765838     0.004035127    0.004035127    0              0              1060.0222      1926.249       193.5932       0             -47.063529      0              0              9.1446235      9.601529       0.2            87.802368    
     49200   0.22999914     0.0038184383   0.0038184383   0              0              1009.5456      2673.2519     -654.33645      0             -123.77984      0              0              9.1436622      9.6071156      0.2            87.84422     
     49300   0.16950836     0.0039273522   0.0039273522   0              0              1833.3869      2738.1564      928.40395      0              227.07522      0              0              9.142701       9.6034497      0.2            87.801469    
     49400   0.22746973     0.0038593206   0.0038593206   0              0              685.09439      2482.0858     -1112.1075      0              423.17602      0              0              9.1417397      9.6141667      0.2            87.890209    
     49500   0.23398135     0.0041631841   0.0041631841   0              0              1787.127       2689.4858      884.59215      0              872.62229      0              0              9.1407784      9.6037788      0.2            87.786014    
     49600   0.22516074     0.0041504292   0.0041504292   0              0              1706.8566      3745.4049     -331.898        0              1203.7864      0              0              9.1398172      9.6090149      0.2            87.82464     
     49700   0.20848016     0.0042803401   0.0042803401   0              0              1815.9536      3811.2411     -179.53563      0              131.50736      0              0              9.1388559      9.6079486      0.2            87.805658    
     49800   0.18297937     0.0039640702   0.0039640702   0              0              2500.7694      4358.2887      642.99145      0              310.74618      0              0              9.1378946      9.6053261      0.2            87.772458    
     49900   0.20906376     0.0041594104   0.0041594104   0              0              1268.3292      3499.1265     -962.67982      0             -75.712861      0              0              9.1369334      9.6142336      0.2            87.844612    
     50000   0.22843629     0.0043228634   0.0043228634   0              0              2145.4418      3270.3221      1020.3447      0             -126.63391      0              0              9.1359721      9.6041379      0.2            87.743136    
     50100   0.21063083     0.004196269    0.004196269    0              0              894.16362      2626.2905     -838.17215      0              442.35152      0              0              9.1350108      9.6208712      0.2            87.886763    
     50200   0.22891165     0.0042504133   0.0042504133   0              0              2415.6852      4319.3251      511.86873      0              1025.3987      0              0              9.1340496      9.6119398      0.2            87.795935    
     50300   0.19178263     0.0044556105   0.0044556105   0              0              2198.4106      4429.413      -32.816852      0              605.10052      0              0              9.1330883      9.6144195      0.2            87.809342    
     50400   0.21327725     0.0043487437   0.0043487437   0              0              1590.6853      3440.7326     -259.58124      0              1245.9822      0              0              9.132127       9.6135147      0.2            87.791838    
     50411   0.19685319     0.0043204392   0.0043204392   0              0              1844.4487      3236.2601      452.43087      0              1222.7315      0              0              9.1320213      9.6102558      0.2            87.761061    
Loop time of 1.23132 on 1 procs for 50000 steps with 67 atoms

Performance: 35084.267 ns/day, 0.001 hours/ns, 40606.791 timesteps/s
98.7% CPU use with 1 MPI tasks x 1 OpenMP threads

MPI task timing breakdown:
Section |  min time  |  avg time  |  max time  |%varavg| %total
---------------------------------------------------------------
Pair    | 0          | 0          | 0          |   0.0 |  0.00
Bond    | 0.19162    | 0.19162    | 0.19162    |   0.0 | 15.56
Neigh   | 0          | 0          | 0          |   0.0 |  0.00
Comm    | 0.41427    | 0.41427    | 0.41427    |   0.0 | 33.64
Output  | 0.0071514  | 0.0071514  | 0.0071514  |   0.0 |  0.58
Modify  | 0.58958    | 0.58958    | 0.58958    |   0.0 | 47.88
Other   |            | 0.02869    |            |       |  2.33

Nlocal:             67 ave          67 max          67 min
Histogram: 1 0 0 0 0 0 0 0 0 0
Nghost:            567 ave         567 max         567 min
Histogram: 1 0 0 0 0 0 0 0 0 0
Neighs:              0 ave           0 max           0 min
Histogram: 1 0 0 0 0 0 0 0 0 0

Total # of neighbors = 0
Ave neighs/atom = 0
Ave special neighs/atom = 25.402985
Neighbor list builds = 0
Dangerous builds = 0


Total wall time: 0:00:01
