LAMMPS data file.

     67 atoms
    157 bonds
      0 angles
      0 dihedrals
      0 impropers
      1 atom types
    157 bond types
      0 angle types
      0 dihedral types
      0 improper types
  -4.806327   4.806327 xlo xhi
  -4.806327   4.806327 ylo yhi
  -0.100000   0.100000 zlo zhi

Masses # ['atom_id', 'mass']

1 10000.0

Atoms # ['atomID', 'moleculeID', 'atomType', 'charge', 'x', 'y', 'z']

     48      1      1   0.000000   4.802085  -4.439359   0.000000
     36      1      1   0.000000  -3.651313  -4.107837   0.000000
     44      1      1   0.000000  -0.846709  -3.975048   0.000000
     50      1      1   0.000000   0.413985  -4.796196   0.000000
      3      1      1   0.000000   1.335756  -3.925470   0.000000
     58      1      1   0.000000   2.113789  -4.667051   0.000000
     34      1      1   0.000000   3.194452  -4.156215   0.000000
     65      1      1   0.000000   3.966982  -4.590412   0.000000
      8      1      1   0.000000  -4.119316  -3.041653   0.000000
     23      1      1   0.000000  -2.784527  -3.368521   0.000000
     35      1      1   0.000000  -0.801952  -2.945380   0.000000
     47      1      1   0.000000  -0.018386  -3.763664   0.000000
     68      1      1   0.000000   1.881265  -2.934331   0.000000
     70      1      1   0.000000   2.279841  -3.887095   0.000000
      1      1      1   0.000000   2.997322  -2.933351   0.000000
     27      1      1   0.000000   4.294892  -3.555266   0.000000
     63      1      1   0.000000  -4.312980  -1.930425   0.000000
     32      1      1   0.000000  -3.822397  -1.225087   0.000000
     19      1      1   0.000000  -1.980219  -2.379622   0.000000
     39      1      1   0.000000   0.374766  -2.850566   0.000000
     43      1      1   0.000000   1.386452  -2.418252   0.000000
     67      1      1   0.000000   0.606718  -1.983485   0.000000
     61      1      1   0.000000   2.048627  -2.279308   0.000000
     26      1      1   0.000000   4.358100  -2.306623   0.000000
     60      1      1   0.000000  -4.802735  -1.385455   0.000000
     17      1      1   0.000000  -2.486140  -1.075146   0.000000
      9      1      1   0.000000  -0.473547  -1.591709   0.000000
     33      1      1   0.000000   0.727524  -1.130558   0.000000
     31      1      1   0.000000   1.794399  -1.367979   0.000000
     20      1      1   0.000000   3.099187  -1.397470   0.000000
     73      1      1   0.000000   4.137106  -1.234360   0.000000
     56      1      1   0.000000   3.949882  -0.483142   0.000000
     15      1      1   0.000000  -4.548212  -0.143648   0.000000
     25      1      1   0.000000  -3.295479  -0.140308   0.000000
     30      1      1   0.000000  -2.260094   0.270217   0.000000
     13      1      1   0.000000  -0.990028  -0.229056   0.000000
     52      1      1   0.000000   0.150341  -0.304317   0.000000
      4      1      1   0.000000   1.431894  -0.072416   0.000000
     64      1      1   0.000000   2.347571  -0.613333   0.000000
      6      1      1   0.000000   2.827998   0.330781   0.000000
      7      1      1   0.000000  -3.542989   1.046377   0.000000
     24      1      1   0.000000  -2.016998   1.472607   0.000000
     77      1      1   0.000000  -1.590667   0.641641   0.000000
     42      1      1   0.000000   0.394895   0.650918   0.000000
     59      1      1   0.000000   1.082263   1.190517   0.000000
     45      1      1   0.000000   1.960334   1.104063   0.000000
     10      1      1   0.000000   4.561559   1.210099   0.000000
      5      1      1   0.000000  -4.398321   2.445591   0.000000
     38      1      1   0.000000  -3.000336   2.293238   0.000000
     57      1      1   0.000000   0.574883   2.208595   0.000000
     28      1      1   0.000000   1.675704   2.011389   0.000000
      2      1      1   0.000000   2.948334   1.736853   0.000000
     55      1      1   0.000000   4.012380   2.281963   0.000000
     40      1      1   0.000000  -3.488267   3.341708   0.000000
     29      1      1   0.000000  -1.781363   2.643339   0.000000
     14      1      1   0.000000  -0.467329   2.937839   0.000000
     16      1      1   0.000000   1.241986   3.262586   0.000000
     49      1      1   0.000000   2.211296   2.628402   0.000000
     69      1      1   0.000000   2.290546   3.524810   0.000000
     11      1      1   0.000000   3.312849   3.296462   0.000000
     37      1      1   0.000000  -3.892115   4.377973   0.000000
     18      1      1   0.000000  -0.781374   4.353361   0.000000
     41      1      1   0.000000   0.386897   3.892411   0.000000
     46      1      1   0.000000   1.304645   4.417836   0.000000
     51      1      1   0.000000   2.155770   4.116957   0.000000
     66      1      1   0.000000   2.854583   4.592626   0.000000
     21      1      1   0.000000   4.463379   4.161515   0.000000

Bond Coeffs # ['bondID', 'bondCoeff', 'd']

      1   1.100184   0.953383
      2   0.949946   1.026007
      3   0.664524   1.226718
      4   0.949946   1.026007
      5   0.637207   1.252737
      6   1.273350   0.886189
      7   1.028509   0.986043
      8   0.608515   1.281930
      9   0.608515   1.281930
     10   0.502130   1.411211
     11   0.974655   1.012918
     12   0.699624   1.195550
     13   1.388477   0.848654
     14   1.241263   0.897569
     15   0.613036   1.277194
     16   0.941424   1.030641
     17   0.886637   1.062006
     18   0.609418   1.280980
     19   0.654043   1.236508
     20   0.588211   1.303868
     21   0.588211   1.303868
     22   1.706228   0.765564
     23   0.604758   1.285906
     24   0.604758   1.285906
     25   0.481019   1.441847
     26   0.552518   1.345324
     27   0.911373   1.047495
     28   1.399385   0.845340
     29   0.740299   1.162242
     30   0.609611   1.280777
     31   0.781288   1.131343
     32   0.536959   1.364676
     33   1.170142   0.924444
     34   0.689422   1.204363
     35   0.633982   1.255919
     36   1.170142   0.924444
     37   0.745295   1.158340
     38   0.604145   1.286558
     39   0.482983   1.438912
     40   0.701194   1.194211
     41   1.284551   0.882316
     42   1.160520   0.928269
     43   1.012904   0.993610
     44   1.160520   0.928269
     45   0.641158   1.248870
     46   1.012904   0.993610
     47   1.485072   0.820590
     48   1.485072   0.820590
     49   0.589986   1.301905
     50   1.117129   0.946125
     51   0.717538   1.180532
     52   2.187873   0.676066
     53   0.510826   1.399148
     54   2.184449   0.676595
     55   0.893751   1.057771
     56   1.354695   0.859170
     57   0.878412   1.066967
     58   0.878412   1.066967
     59   0.651781   1.238652
     60   1.956263   0.714968
     61   0.422065   1.539255
     62   0.570253   1.324238
     63   0.625556   1.264349
     64   1.142217   0.935677
     65   0.658522   1.232295
     66   0.470904   1.457250
     67   1.011820   0.994142
     68   0.585345   1.307055
     69   1.013396   0.993368
     70   0.962588   1.019248
     71   0.482617   1.439457
     72   0.505670   1.406262
     73   0.618046   1.272007
     74   0.639752   1.250242
     75   0.679596   1.213039
     76   0.679596   1.213039
     77   0.808448   1.112177
     78   0.515391   1.392937
     79   0.642705   1.247367
     80   0.785958   1.127978
     81   0.884129   1.063511
     82   0.770472   1.139257
     83   0.984432   1.007876
     84   2.103016   0.689570
     85   2.103016   0.689570
     86   0.621959   1.268000
     87   0.587081   1.305122
     88   0.779080   1.132946
     89   1.368359   0.854870
     90   1.227081   0.902742
     91   0.753148   1.152285
     92   0.753148   1.152285
     93   1.120110   0.944865
     94   0.636088   1.253838
     95   0.551446   1.346631
     96   0.726444   1.173272
     97   0.765635   1.142850
     98   0.855988   1.080852
     99   0.826171   1.100183
    100   0.847602   1.086185
    101   0.479496   1.444134
    102   0.747088   1.156949
    103   0.787716   1.126718
    104   2.711480   0.607291
    105   0.891138   1.059321
    106   0.615448   1.274690
    107   0.622329   1.267622
    108   0.529520   1.374229
    109   0.687575   1.205979
    110   0.757312   1.149113
    111   1.071522   0.966050
    112   0.601196   1.289710
    113   1.071522   0.966050
    114   1.050228   0.975794
    115   1.050228   0.975794
    116   0.736648   1.165118
    117   0.736648   1.165118
    118   0.540794   1.359828
    119   0.614513   1.275659
    120   0.614513   1.275659
    121   1.105885   0.950922
    122   0.747738   1.156446
    123   1.309515   0.873866
    124   1.497984   0.817046
    125   0.512150   1.397338
    126   0.589512   1.302428
    127   0.621709   1.268254
    128   0.802837   1.116057
    129   0.865593   1.074838
    130   0.512150   1.397338
    131   0.475663   1.449941
    132   0.479496   1.444134
    133   0.737585   1.164378
    134   0.553077   1.344643
    135   0.537317   1.364221
    136   0.546737   1.352418
    137   0.546737   1.352418
    138   1.862710   0.732702
    139   0.905896   1.050656
    140   0.473558   1.453160
    141   0.412094   1.557765
    142   1.452609   0.829709
    143   1.452609   0.829709
    144   0.680512   1.212222
    145   0.837106   1.092974
    146   1.668388   0.774197
    147   0.618887   1.271142
    148   1.347567   0.861439
    149   0.620267   1.269728
    150   0.620267   1.269728
    151   0.806091   1.113802
    152   0.638997   1.250980
    153   0.602510   1.288303
    154   0.799553   1.118346
    155   1.572563   0.797436
    156   0.747337   1.156756
    157   1.146444   0.933950

Bonds # ['ID', 'type', 'atom1', 'atom2']

         1         1        34        70
         2         2        26        60
         3         3        30        24
         4         4        60        26
         5         5        15        25
         6         6        34        65
         7         7        52        42
         8         8        50        18
         9         9        18        50
        10        10         6         2
        11        11        59        28
        12        12         2        55
        13        13        48        65
        14        14        39        67
        15        15         5        40
        16        16        44        35
        17        17        16        41
        18        18        14        41
        19        19        17        25
        20        20         8        27
        21        21        27         8
        22        22        30        77
        23        23        44        18
        24        24        18        44
        25        25         3        39
        26        26        31         4
        27        27        69        11
        28        28        51        66
        29        29         6        45
        30        30        24        38
        31        31         3        68
        32        32        30        13
        33        33        50        41
        34        34        10        55
        35        35        18        41
        36        36        41        50
        37        37        16        49
        38        38         9        33
        39        39         1        27
        40        40        24        29
        41        41        59        45
        42        42        34        66
        43        43        65        21
        44        44        66        34
        45        45        20        56
        46        46        21        65
        47        47        58        66
        48        48        66        58
        49        49        28         2
        50        50        61        31
        51        51        35        39
        52        52        68        61
        53        53        19        17
        54        54        43        61
        55        55        13        77
        56        56        63        32
        57        57        48        21
        58        58        21        48
        59        59        34         1
        60        60        68        43
        61        61         1        20
        62        62        28        16
        63        63         4        42
        64        64        31        64
        65        65        55        11
        66        66         9        13
        67        67        47        39
        68        68        35        19
        69        69        32        60
        70        70        48        27
        71        71        11        21
        72        72         5        38
        73        73        57        14
        74        74        27        26
        75        75         5        55
        76        76        55         5
        77        77        40        37
        78        78        35         9
        79        79        57        16
        80        80         8        63
        81        81         4        64
        82        82        36        23
        83        83        33        52
        84        84        60        73
        85        85        73        60
        86        86        50         3
        87        87        31        20
        88        88        35        47
        89        89        44        47
        90        90        46        51
        91        91        36        37
        92        92        37        36
        93        93         3        70
        94        94        34        27
        95        95        29        14
        96        96        45         2
        97        97        13        52
        98        98        16        69
        99        99        39        43
       100       100        20        64
       101       101        10        15
       102       102        16        46
       103       103        43        31
       104       104        69        51
       105       105        64         6
       106       106        23        19
       107       107        60        15
       108       108         8        23
       109       109        32        25
       110       110        67         9
       111       111        58        46
       112       112         4        45
       113       113        46        58
       114       114        50        46
       115       115        46        50
       116       116        56        15
       117       117        15        56
       118       118         7        38
       119       119        37        21
       120       120        21        37
       121       121        45        28
       122       122        38        40
       123       123        42        59
       124       124        28        49
       125       125        10         5
       126       126        32        15
       127       127        38        29
       128       128        68         1
       129       129         3        58
       130       130         5        10
       131       131        14        18
       132       132        15        10
       133       133        36         8
       134       134        32        17
       135       135        17        30
       136       136         8        26
       137       137        26         8
       138       138        63        60
       139       139        20        73
       140       140         4         6
       141       141        15         7
       142       142        58        51
       143       143        51        58
       144       144        25         7
       145       145        33        31
       146       146        73        56
       147       147        33         4
       148       148        67        33
       149       149         3        46
       150       150        46         3
       151       151        25        30
       152       152        16        51
       153       153        49        11
       154       154        57        28
       155       155        58        70
       156       156         2        49
       157       157        24        77
