LAMMPS data file via write_data, version 23 Jun 2022, timestep = 10000

80 atoms
4 atom types

-4.805206769836852 4.805206769836852 xlo xhi
-4.805206769836852 4.805206769836852 ylo yhi
-0.1 0.1 zlo zhi

Atoms # sphere

22 2 1.3 0.4551661356395083 -4.747636742799199 -4.282901234588008 0 1 0 0
32 2 1.3 0.4551661356395083 -3.599356947025105 -3.8789601507417433 0 0 0 0
3 1 1.6 0.2441406249999999 -2.460425559783078 -4.6263873086446825 0 0 1 0
65 4 0.7 2.915451895043732 -1.5368114285403416 -4.308558620229398 0 1 1 0
26 2 1.3 0.4551661356395083 -0.7646470329057005 -4.098964405852593 0 0 1 0
69 4 0.7 2.915451895043732 0.004230925109882655 -4.348399650601326 0 0 0 0
48 3 1 1 1.6030272142420303 -3.9069440841019096 0 0 0 0
31 2 1.3 0.4551661356395083 2.380364349593311 -4.461439477736643 0 0 0 0
72 4 0.7 2.915451895043732 3.258650023551951 -4.15495459999671 0 0 0 0
47 3 1 1 -4.400394620879183 -3.0249638244082657 0 1 0 0
44 3 1 1 -4.102506308999452 -2.1624373170726305 0 1 0 0
74 4 0.7 2.915451895043732 -3.5944912376071287 -2.9350781325953603 0 1 1 0
62 4 0.7 2.915451895043732 -2.943898960794573 -3.3393365156209027 0 1 0 0
51 3 1 1 -2.1090527026737917 -3.3049960854977867 0 0 0 0
42 3 1 1 -0.9261804843827748 -3.1856066375937337 0 1 0 0
11 1 1.6 0.2441406249999999 0.4622407374190072 -3.5098836488816803 0 0 0 0
77 4 0.7 2.915451895043732 1.2691129924773596 -2.754210065545064 0 0 0 0
28 2 1.3 0.4551661356395083 2.120417798135839 -3.046533494568253 0 0 0 0
67 4 0.7 2.915451895043732 3.078266445651196 -3.291032559906901 0 -1 0 0
78 4 0.7 2.915451895043732 2.81664293347373 -3.8000012761462285 0 0 1 0
16 1 1.6 0.2441406249999999 4.002937787710643 -3.427710242444791 0 0 0 0
36 2 1.3 0.4551661356395083 -2.9175875688128836 -2.404484249146195 0 0 0 0
10 1 1.6 0.2441406249999999 -1.6627204528066932 -2.260207239761373 0 0 0 0
24 2 1.3 0.4551661356395083 -0.25379585504031255 -2.3294006803618847 0 0 0 0
41 3 1 1 0.7349608186298076 -2.239689036143486 0 0 1 0
80 4 0.7 2.915451895043732 1.5526984989847135 -2.1626670891605495 0 0 1 0
71 4 0.7 2.915451895043732 2.250672786395808 -2.106750988095294 0 0 0 0
70 4 0.7 2.915451895043732 2.7873082351861935 -2.6185445560851557 0 -1 0 0
61 4 0.7 2.915451895043732 3.277289210391384 -2.3634882492158926 0 0 0 0
2 1 1.6 0.2441406249999999 4.329590556458514 -1.9096315586439325 0 0 0 0
45 3 1 1 -4.220544382152288 -1.195365971040332 0 1 0 0
43 3 1 1 -3.0714664329143333 -1.4081950705626682 0 0 0 0
38 2 1.3 0.4551661356395083 -2.104058379918456 -0.8739593059785737 0 0 0 0
29 2 1.3 0.4551661356395083 -0.8907107915649712 -1.1782093738302741 0 0 0 0
66 4 0.7 2.915451895043732 0.27326200932856715 -1.5918542414451244 0 0 0 0
20 1 1.6 0.2441406249999999 1.2008818587197867 -1.0222242976365656 0 0 0 0
12 1 1.6 0.2441406249999999 2.8483074822377095 -1.4189656178620305 0 0 0 0
60 3 1 1 3.7617181455970563 -0.8819935000631154 0 -1 0 0
30 2 1.3 0.4551661356395083 4.76132268980319 -0.4663554451347718 0 -1 0 0
39 2 1.3 0.4551661356395083 -3.6161194766067144 -0.3026842000259631 0 0 0 0
75 4 0.7 2.915451895043732 -2.8443681693323537 -0.15704821899739585 0 0 0 0
53 3 1 1 -1.38395821937055 -0.2697220654397672 0 0 0 0
54 3 1 1 -0.6069193020809207 0.14525890231105265 0 0 0 0
64 4 0.7 2.915451895043732 -0.018448755977237496 -1.0681066147815432 0 0 0 0
68 4 0.7 2.915451895043732 -0.2176914950492419 -0.44798573880904335 0 -1 0 0
23 2 1.3 0.4551661356395083 0.5756843651550039 0.17085644181706972 0 0 0 0
19 1 1.6 0.2441406249999999 2.211841955797956 0.10355101592841454 0 0 0 0
4 1 1.6 0.2441406249999999 3.720600191975999 0.3731147150268752 0 0 0 0
17 1 1.6 0.2441406249999999 -4.399469635276011 0.8232836035615003 0 0 0 0
73 4 0.7 2.915451895043732 -3.268844269397002 0.6780697421139443 0 0 0 0
9 1 1.6 0.2441406249999999 -2.191449335511014 0.6567080788107083 0 1 -1 0
76 4 0.7 2.915451895043732 -1.2305134625680467 0.757564782113568 0 0 0 0
49 3 1 1 -0.5176232397430498 1.0450915306700006 0 0 0 0
63 4 0.7 2.915451895043732 0.20983271783191437 0.9846679656030606 0 0 0 0
1 1 1.6 0.2441406249999999 1.3821886372265535 1.4121374688118244 0 0 0 0
33 2 1.3 0.4551661356395083 2.762233734494048 1.301750206771227 0 0 0 0
40 2 1.3 0.4551661356395083 3.9259744707858975 1.7719265065879544 0 0 0 0
13 1 1.6 0.2441406249999999 -3.566962221356741 1.9638823091158981 0 1 0 0
15 1 1.6 0.2441406249999999 -2.392592641793714 2.322241171032406 0 0 0 0
18 1 1.6 0.2441406249999999 -1.0264480181998423 2.147987342880933 0 0 0 0
25 2 1.3 0.4551661356395083 0.26275932280957726 1.7985442540500456 0 0 -1 0
59 3 1 1 1.8243905653426715 2.619331633801183 0 0 0 0
37 2 1.3 0.4551661356395083 2.878977604034433 2.515549226833678 0 0 0 0
46 3 1 1 -4.6834311225326966 1.9815413337610988 0 0 0 0
8 1 1.6 0.2441406249999999 -4.241361010427404 3.1578740977693087 0 0 -1 0
56 3 1 1 -1.7721724462414628 3.366800305230843 0 1 0 0
58 3 1 1 -0.8681500689983346 3.435618687492557 0 0 0 0
79 4 0.7 2.915451895043732 0.06898938751580008 2.626207261885356 0 0 0 0
34 2 1.3 0.4551661356395083 0.23123513481314717 3.54825806422604 0 0 0 0
55 3 1 1 0.8817276523442557 2.5983184669202632 0 0 0 0
57 3 1 1 1.2184220293547412 3.3215473584182966 0 0 0 0
14 1 1.6 0.2441406249999999 3.9364614819874877 3.202568681332618 0 0 0 0
21 2 1.3 0.4551661356395083 -3.5894500409657573 4.48054307928289 0 0 0 0
35 2 1.3 0.4551661356395083 -2.9055914840862647 3.7056426435079377 0 0 0 0
27 2 1.3 0.4551661356395083 -1.304118336460646 4.324458463187414 0 0 -1 0
52 3 1 1 -0.2193379161471416 4.493965455444767 0 0 -1 0
7 1 1.6 0.2441406249999999 1.054176401018852 4.5186039706949455 0 0 -1 0
6 1 1.6 0.2441406249999999 2.4209570055996483 3.745468992153693 0 0 0 0
5 1 1.6 0.2441406249999999 3.723888389154972 4.629691219557799 0 -1 0 0
50 3 1 1 -4.579661247101631 4.294209126182745 0 0 0 0

Velocities

22 0.042228078886923114 -0.08779608832016154 0 0 0 0
32 0.044459619913740644 0.09237013197616355 0 0 0 0
3 -0.057721657391615964 0.19022873108416286 0 0 0 0
65 0.09165415617605013 -0.0448106028509557 0 0 0 0
26 -0.14768280327335312 -0.12574123186826608 0 0 0 0
69 -0.05700187164295717 0.12211900278983834 0 0 0 0
48 -0.03525546817643988 -0.019006299455126996 0 0 0 0
31 0.18328996809609988 0.07829198913193651 0 0 0 0
72 -0.15150955035594194 0.004413796890916217 0 0 0 0
47 0.0054268004494468485 -0.01061487793494543 0 0 0 0
44 0.03205191365224691 0.11655030984058734 0 0 0 0
74 -0.01018381981040441 0.09325540157176072 0 0 0 0
62 -0.1627138600659235 -0.13418657312222107 0 0 0 0
51 0.007207842342295015 -0.13229401272450186 0 0 0 0
42 0.06770124476615128 -0.033278100790173314 0 0 0 0
11 0.029831805349091748 0.03301971755177596 0 0 0 0
77 0.12996958129157654 0.214885377561576 0 0 0 0
28 -0.021438535204158546 0.02191658630133698 0 0 0 0
67 0.12752082262625197 -0.017946935037598533 0 0 0 0
78 -0.1026092660570408 0.005546518263167756 0 0 0 0
16 0.02204081687726562 0.011887037220284063 0 0 0 0
36 -0.10635720939975334 0.05725302000310404 0 0 0 0
10 0.050636224844755245 -0.0646806192751445 0 0 0 0
24 -0.1734192001063958 0.07620868581344367 0 0 0 0
41 0.011895291215150549 -0.22121781331216214 0 0 0 0
80 -0.03946893989182132 0.020266518533766122 0 0 0 0
71 0.01843186535746063 -0.14252506978270452 0 0 0 0
70 -0.04161863746745019 -0.03991607789738322 0 0 0 0
61 0.04485048394808669 0.04450069846368026 0 0 0 0
2 0.2797942854767903 -0.04236404359026945 0 0 0 0
45 -0.03822042700047583 0.08948969675899161 0 0 0 0
43 -0.043063201818278087 -0.12132883197705255 0 0 0 0
38 -0.12319150353107967 0.028783368716256346 0 0 0 0
29 -0.034801817856821925 -0.039276537152416025 0 0 0 0
66 -0.09718243309456506 -0.1644488604259596 0 0 0 0
20 0.11305485801767318 0.14815424657262444 0 0 0 0
12 -0.015184206308028608 0.08381114975912134 0 0 0 0
60 -0.06863100453599698 -0.018256494151007854 0 0 0 0
30 -0.09890755828362603 0.013481809512729643 0 0 0 0
39 -0.10781486536245415 0.046264935505608375 0 0 0 0
75 0.16903307879185336 0.05721440410274794 0 0 0 0
53 -0.036301111103228145 -0.10619733997382609 0 0 0 0
54 0.22923968229191466 0.08680641929410995 0 0 0 0
64 0.014392691112480817 -0.0428282298849614 0 0 0 0
68 -0.04875618829079344 -0.130191829117092 0 0 0 0
23 -0.12580853583773247 0.05303277425631184 0 0 0 0
19 0.010353299339732187 -0.030138345108660855 0 0 0 0
4 0.07250427998840324 -0.07611240800370628 0 0 0 0
17 0.0036201867343379434 -0.11245261416064774 0 0 0 0
73 -0.08687733618456048 0.044921596283674634 0 0 0 0
9 -0.018224164690669526 -0.00225061481544036 0 0 0 0
76 0.13497238616309068 -0.14104715738549697 0 0 0 0
49 -0.04927945530578342 -0.028039871057012132 0 0 0 0
63 -0.07972253183080688 0.1075022657848653 0 0 0 0
1 -0.1484442899272602 0.03428637755691091 0 0 0 0
33 0.13013925188859668 -0.061639170397943636 0 0 0 0
40 -0.04357770982013896 0.028590026896040042 0 0 0 0
13 -0.029513107427316904 0.1007908316505619 0 0 0 0
15 -0.003950925220770674 -0.015363338769204921 0 0 0 0
18 0.007492872385212107 -0.19184922568022414 0 0 0 0
25 -0.15429229121288413 -0.12765584106489342 0 0 0 0
59 -0.038336091976490946 0.11406054292069989 0 0 0 0
37 -0.10800941369024067 0.1141775367764977 0 0 0 0
46 -0.033694069520592895 0.030372320503500954 0 0 0 0
8 0.09211217566400211 0.06990283726935093 0 0 0 0
56 -0.052433562939128195 0.02058315420012714 0 0 0 0
58 -0.02661911236610177 0.2566599335155306 0 0 0 0
79 0.06559832956150793 -0.027120691634505468 0 0 0 0
34 -0.01759695509592533 0.037892779931288575 0 0 0 0
55 0.026670542682965776 0.028720379366098323 0 0 0 0
57 0.08870695828377902 -0.07518523641393285 0 0 0 0
14 0.1116350490533451 0.09157487352780103 0 0 0 0
21 -0.04245084985674047 0.045832358619338875 0 0 0 0
35 0.24267270590558526 -0.1816282368303825 0 0 0 0
27 -0.20979776096078367 -0.13307779907713038 0 0 0 0
52 -0.02585340812786952 -0.0949693262280479 0 0 0 0
7 0.02969600730542007 0.017600324223230938 0 0 0 0
6 0.1782824152117152 0.1379758209639471 0 0 0 0
5 0.13434365308821689 -0.022439568736735943 0 0 0 0
50 0.07000548328119202 -0.01132037345756127 0 0 0 0
