LAMMPS data file.

     24 atoms
     48 bonds
      0 angles
      0 dihedrals
      0 impropers
      1 atom types
     48 bond types
      0 angle types
      0 dihedral types
      0 improper types
  -4.805207   4.805207 xlo xhi
  -4.805207   4.805207 ylo yhi
  -0.100000   0.100000 zlo zhi

Masses # ['atom_id', 'mass']

1 10000.0

Atoms # ['atomID', 'moleculeID', 'atomType', 'charge', 'x', 'y', 'z']

     19      1      1   0.000000   2.211842   0.103551   0.000000
      4      1      1   0.000000   3.720600   0.373115   0.000000
      1      1      1   0.000000   1.382189   1.412137   0.000000
     33      1      1   0.000000   2.762234   1.301750   0.000000
     40      1      1   0.000000   3.925974   1.771927   0.000000
     13      1      1   0.000000  -3.566962   1.963882   0.000000
     15      1      1   0.000000  -2.392593   2.322241   0.000000
     18      1      1   0.000000  -1.026448   2.147987   0.000000
     25      1      1   0.000000   0.262759   1.798544   0.000000
     59      1      1   0.000000   1.824391   2.619332   0.000000
     37      1      1   0.000000   2.878978   2.515549   0.000000
     46      1      1   0.000000  -4.683431   1.981541   0.000000
      8      1      1   0.000000  -4.241361   3.157874   0.000000
     56      1      1   0.000000  -1.772172   3.366800   0.000000
     58      1      1   0.000000  -0.868150   3.435619   0.000000
     79      1      1   0.000000   0.068989   2.626207   0.000000
     34      1      1   0.000000   0.231235   3.548258   0.000000
     55      1      1   0.000000   0.881728   2.598318   0.000000
     57      1      1   0.000000   1.218422   3.321547   0.000000
     14      1      1   0.000000   3.936461   3.202569   0.000000
     27      1      1   0.000000  -1.304118   4.324458   0.000000
     52      1      1   0.000000  -0.219338   4.493965   0.000000
      7      1      1   0.000000   1.054176   4.518604   0.000000
      6      1      1   0.000000   2.420957   3.745469   0.000000

Bond Coeffs # ['bondID', 'bondCoeff', 'd']

      1   0.956064   1.022720
      2   0.956064   1.022720
      3   1.162379   0.927526
      4   0.527227   1.377213
      5   0.802044   1.116609
      6   0.663321   1.227829
      7   0.561536   1.334477
      8   0.634776   1.255133
      9   0.531793   1.371288
     10   1.216556   0.906638
     11   0.818776   1.105140
     12   1.512124   0.813217
     13   0.560486   1.335727
     14   0.633238   1.256656
     15   0.425710   1.532650
     16   0.606363   1.284203
     17   0.684968   1.208272
     18   0.672523   1.219400
     19   0.580556   1.312435
     20   0.605012   1.285636
     21   0.829544   1.097944
     22   1.140900   0.936217
     23   0.616353   1.273753
     24   0.500287   1.413808
     25   0.880139   1.065919
     26   0.974720   1.012885
     27   0.617740   1.272322
     28   1.383944   0.850043
     29   0.615734   1.274393
     30   1.124790   0.942897
     31   0.575171   1.318565
     32   0.890532   1.059681
     33   0.603323   1.287434
     34   0.677495   1.214918
     35   0.521727   1.384453
     36   1.571282   0.797761
     37   0.488556   1.430681
     38   0.486780   1.433288
     39   0.486780   1.433288
     40   0.594158   1.297325
     41   0.911263   1.047558
     42   0.615082   1.275069
     43   0.977746   1.011316
     44   0.713047   1.184243
     45   1.020299   0.990002
     46   0.416541   1.549427
     47   0.628825   1.261058
     48   0.405543   1.570295

Bonds # ['ID', 'type', 'atom1', 'atom2']

         1         1        40        46
         2         2        46        40
         3         3        59        57
         4         4        15        18
         5         5        13        46
         6         6        13        15
         7         7         4        33
         8         8        33        40
         9         9        13         8
        10        10        56        58
        11        11        58        34
        12        12        79        55
        13        13        18        25
        14        14        46         8
        15        15        19         4
        16        16        40        37
        17        17        57         7
        18        18        33        37
        19        19        37         6
        20        20         1        59
        21        21        27        52
        22        22        79        34
        23        23        52         7
        24        24         4        40
        25        25        56        27
        26        26        34        57
        27        27        34         7
        28        28        25        79
        29        29        59         6
        30        30        59        55
        31        31        19        33
        32        32        59        37
        33        33         1        55
        34        34        15        56
        35        35         1        33
        36        36        55        57
        37        37        40        14
        38        38         8        14
        39        39        14         8
        40        40        18        58
        41        41        34        52
        42        42        57         6
        43        43        25        55
        44        44         1        25
        45        45        58        27
        46        46        19         1
        47        47        37        14
        48        48         7         6
