ITEM: TIMESTEP
0
ITEM: NUMBER OF ATOMS
80
ITEM: BOX BOUNDS pp pp pp
-1.0000000000000000e+01 1.0000000000000000e+01
-1.0000000000000000e+01 1.0000000000000000e+01
-1.0000000000000001e-01 1.0000000000000001e-01
ITEM: ATOMS id type xs ys zs
52 3 0.207534 0.0264174 0.5
27 2 0.223717 0.0105463 0.5
71 4 0.795741 0.0132444 0.5
9 1 0.974119 0.0123688 0.5
43 3 0.158571 0.0997338 0.5
8 1 0.577443 0.0800355 0.5
11 1 0.6016 0.0860421 0.5
25 2 0.696084 0.0906209 0.5
22 2 0.765876 0.0782793 0.5
42 3 0.986974 0.071697 0.5
62 4 0.964842 0.0939769 0.5
7 1 0.485818 0.135414 0.5
47 3 0.968653 0.150704 0.5
32 2 0.100447 0.205115 0.5
60 3 0.146378 0.173674 0.5
39 2 0.435424 0.172095 0.5
31 2 0.770227 0.208061 0.5
77 4 0.917665 0.190193 0.5
54 3 0.490285 0.220395 0.5
10 1 0.604941 0.247528 0.5
69 4 0.093075 0.311584 0.5
51 3 0.120562 0.278823 0.5
20 1 0.7503 0.289186 0.5
45 3 0.914218 0.266905 0.5
44 3 0.990497 0.28236 0.5
36 2 0.0246522 0.329875 0.5
38 2 0.093373 0.320147 0.5
79 4 0.102953 0.331181 0.5
23 2 0.835328 0.364819 0.5
73 4 0.131812 0.371238 0.5
76 4 0.15603 0.393569 0.5
33 2 0.761611 0.398903 0.5
24 2 0.869541 0.375924 0.5
2 1 0.916546 0.39217 0.5
12 1 0.946295 0.386219 0.5
68 4 0.0450681 0.458721 0.5
17 1 0.0930243 0.45959 0.5
67 4 0.105875 0.433321 0.5
70 4 0.253432 0.43367 0.5
30 2 0.498211 0.439178 0.5
53 3 0.628394 0.42134 0.5
59 3 0.639821 0.467246 0.5
75 4 0.734838 0.429887 0.5
64 4 0.746204 0.444474 0.5
66 4 0.838189 0.450572 0.5
13 1 0.933389 0.466342 0.5
48 3 0.382311 0.504682 0.5
28 2 0.821174 0.47608 0.5
37 2 0.857888 0.518709 0.5
63 4 0.0779765 0.551774 0.5
29 2 0.128376 0.613306 0.5
26 2 0.104163 0.665114 0.5
50 3 0.27183 0.646601 0.5
58 3 0.285098 0.647981 0.5
19 1 0.460799 0.642234 0.5
4 1 0.755618 0.667254 0.5
1 1 0.567664 0.725874 0.5
16 1 0.746101 0.713727 0.5
61 4 0.862957 0.720173 0.5
40 2 0.916623 0.685837 0.5
65 4 0.92079 0.725714 0.5
15 1 0.750327 0.751787 0.5
14 1 0.796557 0.73888 0.5
35 2 0.150759 0.802356 0.5
72 4 0.315632 0.827224 0.5
55 3 0.675362 0.813589 0.5
56 3 0.688036 0.81546 0.5
78 4 0.884263 0.815518 0.5
3 1 0.306174 0.860704 0.5
18 1 0.546847 0.863008 0.5
80 4 0.612357 0.884642 0.5
6 1 0.817449 0.861893 0.5
5 1 0.123217 0.907661 0.5
46 3 0.159274 0.925847 0.5
34 2 0.615335 0.942921 0.5
21 2 0.112452 0.986085 0.5
41 3 0.267626 0.99777 0.5
57 3 0.710891 0.948478 0.5
49 3 0.786278 0.973188 0.5
74 4 0.793953 0.968862 0.5
ITEM: TIMESTEP
10
ITEM: NUMBER OF ATOMS
80
ITEM: BOX BOUNDS pp pp pp
-9.2569733430857664e+00 9.2569733430857664e+00
-9.2569733430857664e+00 9.2569733430857664e+00
-1.0000000000000001e-01 1.0000000000000001e-01
ITEM: ATOMS id type xs ys zs
52 3 0.207442 0.0265079 0.5
27 2 0.223765 0.0104686 0.5
71 4 0.795742 0.0132513 0.5
9 1 0.974115 0.0123503 0.5
43 3 0.158571 0.0997338 0.5
8 1 0.577245 0.0799863 0.5
11 1 0.601798 0.0860913 0.5
25 2 0.696084 0.0906209 0.5
22 2 0.765876 0.0782793 0.5
42 3 0.987008 0.0716854 0.5
62 4 0.964812 0.094007 0.5
7 1 0.48585 0.13539 0.5
47 3 0.968653 0.150704 0.5
32 2 0.100439 0.20512 0.5
60 3 0.146386 0.173669 0.5
39 2 0.435391 0.172119 0.5
31 2 0.770227 0.208061 0.5
77 4 0.917665 0.190193 0.5
54 3 0.490285 0.220395 0.5
10 1 0.604941 0.247528 0.5
69 4 0.0930469 0.311389 0.5
51 3 0.12058 0.278795 0.5
20 1 0.7503 0.289186 0.5
45 3 0.914218 0.266905 0.5
44 3 0.990496 0.282359 0.5
36 2 0.0246529 0.329876 0.5
38 2 0.0932746 0.320228 0.5
79 4 0.103061 0.331324 0.5
23 2 0.835225 0.364785 0.5
73 4 0.131806 0.371232 0.5
76 4 0.156037 0.393575 0.5
33 2 0.761637 0.398868 0.5
24 2 0.869563 0.37593 0.5
2 1 0.916443 0.392216 0.5
12 1 0.946476 0.386181 0.5
68 4 0.0450305 0.458721 0.5
17 1 0.0930155 0.459685 0.5
67 4 0.105921 0.433226 0.5
70 4 0.253432 0.43367 0.5
30 2 0.498211 0.439178 0.5
53 3 0.628391 0.421328 0.5
59 3 0.639824 0.467258 0.5
75 4 0.734777 0.429866 0.5
64 4 0.746239 0.444531 0.5
66 4 0.83823 0.450511 0.5
13 1 0.933393 0.466362 0.5
48 3 0.382311 0.504682 0.5
28 2 0.821111 0.476114 0.5
37 2 0.857911 0.518736 0.5
63 4 0.0779765 0.551774 0.5
29 2 0.128389 0.613277 0.5
26 2 0.104149 0.665143 0.5
50 3 0.271695 0.646587 0.5
58 3 0.285233 0.647995 0.5
19 1 0.460799 0.642234 0.5
4 1 0.755642 0.667134 0.5
1 1 0.567664 0.725874 0.5
16 1 0.745979 0.713653 0.5
61 4 0.862957 0.720173 0.5
40 2 0.916619 0.685799 0.5
65 4 0.920794 0.725752 0.5
15 1 0.750229 0.751974 0.5
14 1 0.796753 0.738889 0.5
35 2 0.150759 0.802356 0.5
72 4 0.315655 0.827142 0.5
55 3 0.675226 0.813569 0.5
56 3 0.688172 0.81548 0.5
78 4 0.884263 0.815518 0.5
3 1 0.30615 0.860786 0.5
18 1 0.546847 0.863008 0.5
80 4 0.612357 0.884642 0.5
6 1 0.817449 0.861893 0.5
5 1 0.123134 0.907619 0.5
46 3 0.159357 0.925889 0.5
34 2 0.615335 0.942921 0.5
21 2 0.112452 0.986085 0.5
41 3 0.26767 0.997757 0.5
57 3 0.710891 0.948478 0.5
49 3 0.786168 0.973242 0.5
74 4 0.794061 0.968801 0.5
ITEM: TIMESTEP
20
ITEM: NUMBER OF ATOMS
80
ITEM: BOX BOUNDS pp pp pp
-8.3344826044653875e+00 8.3344826044653875e+00
-8.3344826044653875e+00 8.3344826044653875e+00
-1.0000000000000001e-01 1.0000000000000001e-01
ITEM: ATOMS id type xs ys zs
52 3 0.207112 0.0268321 0.5
27 2 0.223919 0.0101954 0.5
71 4 0.795753 0.0132955 0.5
9 1 0.974094 0.012256 0.5
43 3 0.158571 0.0997338 0.5
8 1 0.576543 0.0798116 0.5
11 1 0.6025 0.086266 0.5
25 2 0.696077 0.0906223 0.5
22 2 0.765884 0.0782779 0.5
42 3 0.987144 0.0716636 0.5
62 4 0.964696 0.0941231 0.5
7 1 0.48599 0.135288 0.5
47 3 0.968653 0.150704 0.5
32 2 0.100388 0.205155 0.5
60 3 0.146436 0.173634 0.5
39 2 0.435252 0.172221 0.5
31 2 0.770227 0.208061 0.5
77 4 0.917665 0.190193 0.5
54 3 0.490285 0.220395 0.5
10 1 0.604941 0.247528 0.5
69 4 0.0929339 0.310712 0.5
51 3 0.120672 0.278661 0.5
20 1 0.7503 0.289187 0.5
45 3 0.914218 0.266905 0.5
44 3 0.990479 0.282335 0.5
36 2 0.024656 0.329901 0.5
38 2 0.0929217 0.320528 0.5
79 4 0.103449 0.331833 0.5
23 2 0.834847 0.364663 0.5
73 4 0.13177 0.371199 0.5
76 4 0.156072 0.393608 0.5
33 2 0.76175 0.398706 0.5
24 2 0.869617 0.375943 0.5
2 1 0.916085 0.392353 0.5
12 1 0.947142 0.386011 0.5
68 4 0.0448753 0.458717 0.5
17 1 0.0930031 0.460032 0.5
67 4 0.106089 0.432883 0.5
70 4 0.253432 0.43367 0.5
30 2 0.498211 0.439178 0.5
53 3 0.628375 0.421263 0.5
59 3 0.63984 0.467323 0.5
75 4 0.734545 0.429798 0.5
64 4 0.746359 0.444762 0.5
66 4 0.838379 0.450288 0.5
13 1 0.933409 0.466503 0.5
48 3 0.382311 0.504682 0.5
28 2 0.820863 0.476223 0.5
37 2 0.858009 0.51885 0.5
63 4 0.0779765 0.551774 0.5
29 2 0.128448 0.613151 0.5
26 2 0.104091 0.665268 0.5
50 3 0.271219 0.646537 0.5
58 3 0.28571 0.648044 0.5
19 1 0.460799 0.642234 0.5
4 1 0.755719 0.666648 0.5
1 1 0.567664 0.725874 0.5
16 1 0.745521 0.713385 0.5
61 4 0.862957 0.720173 0.5
40 2 0.916603 0.685645 0.5
65 4 0.920811 0.725906 0.5
15 1 0.749864 0.752668 0.5
14 1 0.797499 0.738947 0.5
35 2 0.150759 0.802356 0.5
72 4 0.315741 0.826839 0.5
55 3 0.674746 0.813498 0.5
56 3 0.688652 0.815551 0.5
78 4 0.884263 0.815518 0.5
3 1 0.306065 0.861089 0.5
18 1 0.546847 0.863008 0.5
80 4 0.612357 0.884642 0.5
6 1 0.817449 0.861893 0.5
5 1 0.122829 0.907457 0.5
46 3 0.159663 0.926044 0.5
34 2 0.615335 0.942922 0.5
21 2 0.112451 0.986093 0.5
41 3 0.267846 0.997706 0.5
57 3 0.710891 0.948478 0.5
49 3 0.785776 0.973413 0.5
74 4 0.794443 0.968586 0.5
ITEM: TIMESTEP
30
ITEM: NUMBER OF ATOMS
80
ITEM: BOX BOUNDS pp pp pp
-7.6458963457906988e+00 7.6458963457906988e+00
-7.6458963457906988e+00 7.6458963457906988e+00
-1.0000000000000001e-01 1.0000000000000001e-01
ITEM: ATOMS id type xs ys zs
52 3 0.206473 0.0274621 0.5
27 2 0.224179 0.00967436 0.5
71 4 0.795784 0.0134202 0.5
9 1 0.974042 0.0120173 0.5
43 3 0.158571 0.0997338 0.5
8 1 0.575192 0.0794758 0.5
11 1 0.60385 0.0866018 0.5
25 2 0.696016 0.090633 0.5
22 2 0.765944 0.0782672 0.5
42 3 0.987437 0.0716606 0.5
62 4 0.964455 0.0943648 0.5
7 1 0.486305 0.135059 0.5
47 3 0.968653 0.150704 0.5
32 2 0.100246 0.205252 0.5
60 3 0.146579 0.173537 0.5
39 2 0.434937 0.17245 0.5
31 2 0.770234 0.208034 0.5
77 4 0.917665 0.190193 0.5
54 3 0.490285 0.220395 0.5
10 1 0.604941 0.247528 0.5
69 4 0.0926952 0.309444 0.5
51 3 0.120903 0.278335 0.5
20 1 0.750293 0.289214 0.5
45 3 0.914218 0.266905 0.5
44 3 0.990413 0.282243 0.5
36 2 0.0246382 0.330005 0.5
38 2 0.0922569 0.321129 0.5
79 4 0.104205 0.332814 0.5
23 2 0.834085 0.364413 0.5
73 4 0.131678 0.371114 0.5
76 4 0.156165 0.393693 0.5
33 2 0.762001 0.398326 0.5
24 2 0.869648 0.375952 0.5
2 1 0.915428 0.39257 0.5
12 1 0.948499 0.385614 0.5
68 4 0.0445324 0.458709 0.5
17 1 0.0930176 0.460717 0.5
67 4 0.106417 0.432206 0.5
70 4 0.253432 0.43367 0.5
30 2 0.498211 0.439178 0.5
53 3 0.628333 0.421095 0.5
59 3 0.639882 0.467492 0.5
75 4 0.734067 0.429686 0.5
64 4 0.746583 0.445254 0.5
66 4 0.83868 0.44984 0.5
13 1 0.933444 0.466922 0.5
48 3 0.382311 0.504682 0.5
28 2 0.820339 0.476413 0.5
37 2 0.858232 0.519108 0.5
63 4 0.0779765 0.551774 0.5
29 2 0.128584 0.612861 0.5
26 2 0.103955 0.665559 0.5
50 3 0.270305 0.646442 0.5
58 3 0.286623 0.64814 0.5
19 1 0.460799 0.642234 0.5
4 1 0.755849 0.665558 0.5
1 1 0.567664 0.725874 0.5
16 1 0.74459 0.71287 0.5
61 4 0.862969 0.720169 0.5
40 2 0.916569 0.685315 0.5
65 4 0.920845 0.726236 0.5
15 1 0.749132 0.754094 0.5
14 1 0.799021 0.73913 0.5
35 2 0.150759 0.802356 0.5
72 4 0.315912 0.826233 0.5
55 3 0.673826 0.813362 0.5
56 3 0.689572 0.815687 0.5
78 4 0.884263 0.815518 0.5
3 1 0.305894 0.861695 0.5
18 1 0.54684 0.863006 0.5
80 4 0.612363 0.88463 0.5
6 1 0.817449 0.861893 0.5
5 1 0.122223 0.907081 0.5
46 3 0.160278 0.926354 0.5
34 2 0.615336 0.942936 0.5
21 2 0.112443 0.986159 0.5
41 3 0.268226 0.997597 0.5
57 3 0.710891 0.948478 0.5
49 3 0.785015 0.973697 0.5
74 4 0.795173 0.968177 0.5
ITEM: TIMESTEP
40
ITEM: NUMBER OF ATOMS
80
ITEM: BOX BOUNDS pp pp pp
-7.1563077262200592e+00 7.1563077262200592e+00
-7.1563077262200592e+00 7.1563077262200592e+00
-1.0000000000000001e-01 1.0000000000000001e-01
ITEM: ATOMS id type xs ys zs
52 3 0.205466 0.0284589 0.5
27 2 0.224533 0.008862 0.5
71 4 0.795847 0.0136728 0.5
9 1 0.973943 0.0115681 0.5
43 3 0.158571 0.0997338 0.5
8 1 0.573088 0.0789448 0.5
11 1 0.60594 0.0871262 0.5
25 2 0.695867 0.0906642 0.5
22 2 0.766116 0.0782369 0.5
42 3 0.987939 0.0717075 0.5
62 4 0.964052 0.0947646 0.5
7 1 0.486848 0.134657 0.5
47 3 0.968653 0.150706 0.5
32 2 0.0999638 0.20544 0.5
60 3 0.146859 0.173345 0.5
39 2 0.434372 0.172842 0.5
31 2 0.770261 0.207923 0.5
77 4 0.917665 0.190193 0.5
54 3 0.490298 0.220411 0.5
10 1 0.604941 0.247528 0.5
69 4 0.0923005 0.307513 0.5
51 3 0.121337 0.277741 0.5
20 1 0.750266 0.289324 0.5
45 3 0.914218 0.266905 0.5
44 3 0.990267 0.282039 0.5
36 2 0.0245758 0.330231 0.5
38 2 0.0912261 0.322093 0.5
79 4 0.105407 0.334338 0.5
23 2 0.832837 0.363976 0.5
73 4 0.131513 0.370966 0.5
76 4 0.156339 0.393854 0.5
33 2 0.76241 0.39766 0.5
24 2 0.869587 0.375942 0.5
2 1 0.914479 0.392868 0.5
12 1 0.950723 0.384907 0.5
68 4 0.0439366 0.458691 0.5
17 1 0.0930934 0.461816 0.5
67 4 0.106937 0.431125 0.5
70 4 0.253432 0.43367 0.5
30 2 0.498211 0.439178 0.5
53 3 0.628253 0.420773 0.5
59 3 0.639962 0.467813 0.5
75 4 0.733275 0.429536 0.5
64 4 0.746927 0.446088 0.5
66 4 0.839169 0.449118 0.5
13 1 0.933525 0.467754 0.5
48 3 0.382311 0.504682 0.5
28 2 0.819452 0.476681 0.5
37 2 0.858609 0.519577 0.5
63 4 0.0779765 0.551774 0.5
29 2 0.128825 0.612344 0.5
26 2 0.103713 0.666076 0.5
50 3 0.26888 0.646294 0.5
58 3 0.288048 0.648288 0.5
19 1 0.460799 0.642234 0.5
4 1 0.756033 0.663651 0.5
1 1 0.567664 0.725874 0.5
16 1 0.743064 0.712066 0.5
61 4 0.863032 0.720154 0.5
40 2 0.91652 0.684746 0.5
65 4 0.920904 0.726798 0.5
15 1 0.747956 0.756439 0.5
14 1 0.80147 0.739512 0.5
35 2 0.150759 0.802356 0.5
72 4 0.316188 0.825254 0.5
55 3 0.672392 0.81315 0.5
56 3 0.691 0.815904 0.5
78 4 0.884263 0.815518 0.5
3 1 0.305617 0.862673 0.5
18 1 0.54679 0.862989 0.5
80 4 0.61241 0.884579 0.5
6 1 0.817449 0.861893 0.5
5 1 0.121251 0.906392 0.5
46 3 0.161275 0.926855 0.5
34 2 0.61534 0.943003 0.5
21 2 0.112418 0.986347 0.5
41 3 0.268879 0.997412 0.5
57 3 0.710891 0.948478 0.5
49 3 0.783815 0.974081 0.5
74 4 0.796309 0.96754 0.5
ITEM: TIMESTEP
50
ITEM: NUMBER OF ATOMS
80
ITEM: BOX BOUNDS pp pp pp
-6.8241515839780957e+00 6.8241515839780957e+00
-6.8241515839780957e+00 6.8241515839780957e+00
-1.0000000000000001e-01 1.0000000000000001e-01
ITEM: ATOMS id type xs ys zs
52 3 0.204073 0.0298489 0.5
27 2 0.224954 0.00774057 0.5
71 4 0.795957 0.0140971 0.5
9 1 0.973784 0.0108615 0.5
43 3 0.158571 0.0997338 0.5
8 1 0.570242 0.0781791 0.5
11 1 0.608745 0.087846 0.5
25 2 0.695644 0.0907267 0.5
22 2 0.766444 0.0781801 0.5
42 3 0.988685 0.0718329 0.5
62 4 0.963463 0.0953202 0.5
7 1 0.487613 0.134053 0.5
47 3 0.968655 0.150732 0.5
32 2 0.0994985 0.205712 0.5
60 3 0.147313 0.173034 0.5
39 2 0.433491 0.173403 0.5
31 2 0.770321 0.207678 0.5
77 4 0.917665 0.190193 0.5
54 3 0.49035 0.220496 0.5
10 1 0.604941 0.247528 0.5
69 4 0.0917383 0.304923 0.5
51 3 0.122031 0.276855 0.5
20 1 0.750206 0.289569 0.5
45 3 0.914218 0.266905 0.5
44 3 0.990014 0.281686 0.5
36 2 0.0244787 0.330589 0.5
38 2 0.0897957 0.323431 0.5
79 4 0.107074 0.336387 0.5
23 2 0.831067 0.363297 0.5
73 4 0.131295 0.370785 0.5
76 4 0.156615 0.394109 0.5
33 2 0.762957 0.396682 0.5
24 2 0.869377 0.375895 0.5
2 1 0.913289 0.393247 0.5
12 1 0.953864 0.383864 0.5
68 4 0.0430463 0.458657 0.5
17 1 0.0932634 0.463367 0.5
67 4 0.107657 0.429609 0.5
70 4 0.253432 0.43367 0.5
30 2 0.498211 0.439178 0.5
53 3 0.628126 0.420264 0.5
59 3 0.640089 0.468322 0.5
75 4 0.732133 0.429356 0.5
64 4 0.747397 0.447305 0.5
66 4 0.839868 0.448098 0.5
13 1 0.933697 0.469075 0.5
48 3 0.382311 0.504682 0.5
28 2 0.81815 0.477019 0.5
37 2 0.859129 0.520317 0.5
63 4 0.0779765 0.551774 0.5
29 2 0.129192 0.61156 0.5
26 2 0.103347 0.66686 0.5
50 3 0.266922 0.64609 0.5
58 3 0.290006 0.648491 0.5
19 1 0.460799 0.642234 0.5
4 1 0.75628 0.660811 0.5
1 1 0.567664 0.725874 0.5
16 1 0.740881 0.710969 0.5
61 4 0.863177 0.720125 0.5
40 2 0.916479 0.68389 0.5
65 4 0.92099 0.727625 0.5
15 1 0.746341 0.759754 0.5
14 1 0.80488 0.740141 0.5
35 2 0.150759 0.802356 0.5
72 4 0.316579 0.823871 0.5
55 3 0.670421 0.812859 0.5
56 3 0.692921 0.816246 0.5
78 4 0.884265 0.815517 0.5
3 1 0.305226 0.864056 0.5
18 1 0.546657 0.862945 0.5
80 4 0.612535 0.884467 0.5
6 1 0.817447 0.861895 0.5
5 1 0.119885 0.905322 0.5
46 3 0.1627 0.927548 0.5
34 2 0.615348 0.94316 0.5
21 2 0.112359 0.986723 0.5
41 3 0.26985 0.997144 0.5
57 3 0.710891 0.948478 0.5
49 3 0.782145 0.974539 0.5
74 4 0.797871 0.966656 0.5
ITEM: TIMESTEP
60
ITEM: NUMBER OF ATOMS
80
ITEM: BOX BOUNDS pp pp pp
-6.5918786141713959e+00 6.5918786141713959e+00
-6.5918786141713959e+00 6.5918786141713959e+00
-1.0000000000000001e-01 1.0000000000000001e-01
ITEM: ATOMS id type xs ys zs
52 3 0.202297 0.0316369 0.5
27 2 0.225411 0.00630635 0.5
71 4 0.796131 0.0147036 0.5
9 1 0.973557 0.00987006 0.5
43 3 0.158571 0.0997324 0.5
8 1 0.566719 0.0771435 0.5
11 1 0.612189 0.0887576 0.5
25 2 0.695375 0.0908278 0.5
22 2 0.766956 0.0781068 0.5
42 3 0.989694 0.0720584 0.5
62 4 0.962674 0.0960118 0.5
7 1 0.488564 0.133241 0.5
47 3 0.968662 0.150806 0.5
32 2 0.0988182 0.206048 0.5
60 3 0.14796 0.172593 0.5
39 2 0.432251 0.17413 0.5
31 2 0.770424 0.207261 0.5
77 4 0.917665 0.190193 0.5
54 3 0.490466 0.220696 0.5
10 1 0.604941 0.247528 0.5
69 4 0.0910164 0.301717 0.5
51 3 0.123028 0.27569 0.5
20 1 0.750102 0.289983 0.5
45 3 0.914218 0.266905 0.5
44 3 0.98964 0.281161 0.5
36 2 0.0243569 0.331069 0.5
38 2 0.0879574 0.325134 0.5
79 4 0.109191 0.338889 0.5
23 2 0.828773 0.36233 0.5
73 4 0.131056 0.370616 0.5
76 4 0.157002 0.394466 0.5
33 2 0.763608 0.395399 0.5
24 2 0.868979 0.375799 0.5
2 1 0.911917 0.393714 0.5
12 1 0.957897 0.382497 0.5
68 4 0.0418403 0.458597 0.5
17 1 0.0935546 0.465385 0.5
67 4 0.108572 0.427651 0.5
70 4 0.253432 0.43367 0.5
30 2 0.498211 0.439178 0.5
53 3 0.627948 0.419548 0.5
59 3 0.640267 0.469039 0.5
75 4 0.730628 0.429158 0.5
64 4 0.747993 0.448913 0.5
66 4 0.840784 0.44678 0.5
13 1 0.933999 0.470917 0.5
48 3 0.382311 0.504682 0.5
28 2 0.816404 0.477412 0.5
37 2 0.859776 0.521367 0.5
63 4 0.0779765 0.551774 0.5
29 2 0.129693 0.610489 0.5
26 2 0.102846 0.667931 0.5
50 3 0.264442 0.645832 0.5
58 3 0.292487 0.64875 0.5
19 1 0.460799 0.642234 0.5
4 1 0.756608 0.657017 0.5
1 1 0.567664 0.725874 0.5
16 1 0.738017 0.709599 0.5
61 4 0.863436 0.720077 0.5
40 2 0.916465 0.682717 0.5
65 4 0.921105 0.728729 0.5
15 1 0.744357 0.763984 0.5
14 1 0.809197 0.741035 0.5
35 2 0.150759 0.802354 0.5
72 4 0.317086 0.822078 0.5
55 3 0.667911 0.812501 0.5
56 3 0.695277 0.816762 0.5
78 4 0.884284 0.815504 0.5
3 1 0.30472 0.865849 0.5
18 1 0.546407 0.86286 0.5
80 4 0.612767 0.884274 0.5
6 1 0.817429 0.861908 0.5
5 1 0.11812 0.903836 0.5
46 3 0.164574 0.92842 0.5
34 2 0.615365 0.943437 0.5
21 2 0.112249 0.98734 0.5
41 3 0.27117 0.99679 0.5
57 3 0.710891 0.948478 0.5
49 3 0.779999 0.975043 0.5
74 4 0.799852 0.965527 0.5
ITEM: TIMESTEP
70
ITEM: NUMBER OF ATOMS
80
ITEM: BOX BOUNDS pp pp pp
-6.4416257260413134e+00 6.4416257260413134e+00
-6.4416257260413134e+00 6.4416257260413134e+00
-1.0000000000000001e-01 1.0000000000000001e-01
ITEM: ATOMS id type xs ys zs
52 3 0.200164 0.0338072 0.5
27 2 0.225867 0.00456891 0.5
71 4 0.796388 0.0154749 0.5
9 1 0.973255 0.00858326 0.5
43 3 0.158573 0.0997158 0.5
8 1 0.562621 0.0758128 0.5
11 1 0.616158 0.089849 0.5
25 2 0.6951 0.0909714 0.5
22 2 0.76766 0.0780356 0.5
42 3 0.990974 0.0723988 0.5
62 4 0.961681 0.0968143 0.5
7 1 0.489658 0.13224 0.5
47 3 0.968678 0.150949 0.5
32 2 0.0979045 0.206425 0.5
60 3 0.148805 0.17203 0.5
39 2 0.430638 0.175011 0.5
31 2 0.770574 0.20665 0.5
77 4 0.917663 0.190194 0.5
54 3 0.490659 0.221041 0.5
10 1 0.604941 0.247528 0.5
69 4 0.0901546 0.297976 0.5
51 3 0.124351 0.274289 0.5
20 1 0.749932 0.290551 0.5
45 3 0.914218 0.266905 0.5
44 3 0.989138 0.280452 0.5
36 2 0.024216 0.331649 0.5
38 2 0.085735 0.327173 0.5
79 4 0.111709 0.341724 0.5
23 2 0.826004 0.361062 0.5
73 4 0.130832 0.370504 0.5
76 4 0.157505 0.394929 0.5
33 2 0.764317 0.39386 0.5
24 2 0.868376 0.375636 0.5
2 1 0.910429 0.394278 0.5
12 1 0.962733 0.380845 0.5
68 4 0.0403178 0.458502 0.5
17 1 0.093987 0.467857 0.5
67 4 0.109663 0.42527 0.5
70 4 0.253432 0.43367 0.5
30 2 0.498211 0.439178 0.5
53 3 0.627717 0.418619 0.5
59 3 0.640498 0.469968 0.5
75 4 0.728767 0.428951 0.5
64 4 0.748696 0.450889 0.5
66 4 0.841914 0.445185 0.5
13 1 0.934462 0.473268 0.5
48 3 0.382311 0.504682 0.5
28 2 0.814227 0.477859 0.5
37 2 0.860527 0.522745 0.5
63 4 0.0779759 0.551778 0.5
29 2 0.130328 0.609129 0.5
26 2 0.102211 0.669291 0.5
50 3 0.261479 0.645524 0.5
58 3 0.295449 0.649058 0.5
19 1 0.460799 0.642234 0.5
4 1 0.757036 0.652334 0.5
1 1 0.567664 0.725874 0.5
16 1 0.734494 0.707992 0.5
61 4 0.863837 0.719995 0.5
40 2 0.916491 0.681223 0.5
65 4 0.921248 0.730107 0.5
15 1 0.742121 0.768981 0.5
14 1 0.814292 0.742183 0.5
35 2 0.150767 0.80233 0.5
72 4 0.317702 0.819896 0.5
55 3 0.664867 0.812099 0.5
56 3 0.697982 0.817497 0.5
78 4 0.884337 0.815468 0.5
3 1 0.304103 0.868031 0.5
18 1 0.546009 0.862711 0.5
80 4 0.613124 0.883992 0.5
6 1 0.817378 0.861953 0.5
5 1 0.11597 0.901947 0.5
46 3 0.166885 0.929452 0.5
34 2 0.615407 0.943869 0.5
21 2 0.112081 0.988221 0.5
41 3 0.272846 0.996357 0.5
57 3 0.710878 0.948473 0.5
49 3 0.77741 0.97557 0.5
74 4 0.802223 0.964175 0.5
ITEM: TIMESTEP
80
ITEM: NUMBER OF ATOMS
80
ITEM: BOX BOUNDS pp pp pp
-6.3650904765465128e+00 6.3650904765465128e+00
-6.3650904765465128e+00 6.3650904765465128e+00
-1.0000000000000001e-01 1.0000000000000001e-01
ITEM: ATOMS id type xs ys zs
52 3 0.197725 0.0363147 0.5
27 2 0.226286 0.00255587 0.5
71 4 0.796743 0.0163734 0.5
9 1 0.972879 0.0070164 0.5
43 3 0.158578 0.0996705 0.5
8 1 0.558087 0.0741768 0.5
11 1 0.620499 0.0910978 0.5
25 2 0.694862 0.0911566 0.5
22 2 0.76855 0.077984 0.5
42 3 0.992513 0.0728596 0.5
62 4 0.960494 0.097693 0.5
7 1 0.490837 0.131093 0.5
47 3 0.968713 0.151168 0.5
32 2 0.0967563 0.206818 0.5
60 3 0.149836 0.171371 0.5
39 2 0.428669 0.176029 0.5
31 2 0.770773 0.205841 0.5
77 4 0.917653 0.190202 0.5
54 3 0.490935 0.221539 0.5
10 1 0.604941 0.247528 0.5
69 4 0.0891773 0.29382 0.5
51 3 0.125999 0.272714 0.5
20 1 0.749659 0.291217 0.5
45 3 0.914207 0.266903 0.5
44 3 0.988521 0.279563 0.5
36 2 0.0240665 0.33229 0.5
38 2 0.0831926 0.329494 0.5
79 4 0.11455 0.344744 0.5
23 2 0.822861 0.359506 0.5
73 4 0.130658 0.370489 0.5
76 4 0.15812 0.395494 0.5
33 2 0.765029 0.392146 0.5
24 2 0.86758 0.375379 0.5
2 1 0.908916 0.394934 0.5
12 1 0.968213 0.378985 0.5
68 4 0.0385025 0.458361 0.5
17 1 0.0945724 0.47072 0.5
67 4 0.110898 0.422519 0.5
70 4 0.253432 0.43367 0.5
30 2 0.498211 0.439178 0.5
53 3 0.627436 0.41749 0.5
59 3 0.640779 0.471096 0.5
75 4 0.726587 0.428744 0.5
64 4 0.749462 0.45317 0.5
66 4 0.843211 0.443385 0.5
13 1 0.935106 0.476072 0.5
48 3 0.382311 0.504682 0.5
28 2 0.811689 0.478366 0.5
37 2 0.86135 0.524439 0.5
63 4 0.0779689 0.551806 0.5
29 2 0.131089 0.607505 0.5
26 2 0.101451 0.670917 0.5
50 3 0.25811 0.645173 0.5
58 3 0.298819 0.649408 0.5
19 1 0.460799 0.642234 0.5
4 1 0.757588 0.646922 0.5
1 1 0.567664 0.725874 0.5
16 1 0.730385 0.706207 0.5
61 4 0.864407 0.719861 0.5
40 2 0.916568 0.679428 0.5
65 4 0.921415 0.731732 0.5
15 1 0.739766 0.774501 0.5
14 1 0.819959 0.743534 0.5
35 2 0.150792 0.802259 0.5
72 4 0.318415 0.817373 0.5
55 3 0.661337 0.811674 0.5
56 3 0.700922 0.81849 0.5
78 4 0.884435 0.815399 0.5
3 1 0.303391 0.870555 0.5
18 1 0.545446 0.862488 0.5
80 4 0.613614 0.883616 0.5
6 1 0.817303 0.862085 0.5
5 1 0.113471 0.899713 0.5
46 3 0.169584 0.930618 0.5
34 2 0.61548 0.944468 0.5
21 2 0.111857 0.98936 0.5
41 3 0.274868 0.995859 0.5
57 3 0.710828 0.948453 0.5
49 3 0.774456 0.976107 0.5
74 4 0.804925 0.962645 0.5
ITEM: TIMESTEP
90
ITEM: NUMBER OF ATOMS
80
ITEM: BOX BOUNDS pp pp pp
-6.3505648572990561e+00 6.3505648572990561e+00
-6.3505648572990561e+00 6.3505648572990561e+00
-1.0000000000000001e-01 1.0000000000000001e-01
ITEM: ATOMS id type xs ys zs
52 3 0.195061 0.0390767 0.5
27 2 0.226636 0.000312186 0.5
71 4 0.797202 0.0173474 0.5
9 1 0.972432 0.00520693 0.5
43 3 0.158573 0.0996054 0.5
8 1 0.55328 0.0722402 0.5
11 1 0.625036 0.0924743 0.5
25 2 0.694708 0.0913774 0.5
22 2 0.769607 0.077966 0.5
42 3 0.994282 0.0734365 0.5
62 4 0.959133 0.098609 0.5
7 1 0.492044 0.129867 0.5
47 3 0.968776 0.151467 0.5
32 2 0.0953893 0.207203 0.5
60 3 0.151029 0.170644 0.5
39 2 0.426392 0.177158 0.5
31 2 0.771017 0.204848 0.5
77 4 0.917629 0.19022 0.5
54 3 0.491288 0.222178 0.5
10 1 0.604941 0.247528 0.5
69 4 0.0881043 0.289386 0.5
51 3 0.127946 0.271043 0.5
20 1 0.749258 0.291921 0.5
45 3 0.914175 0.266898 0.5
44 3 0.987815 0.278507 0.5
36 2 0.0239224 0.332934 0.5
38 2 0.0804293 0.332025 0.5
79 4 0.117613 0.347799 0.5
23 2 0.819469 0.35769 0.5
73 4 0.130564 0.370603 0.5
76 4 0.158838 0.396148 0.5
33 2 0.76569 0.39036 0.5
24 2 0.866628 0.375 0.5
2 1 0.907473 0.39567 0.5
12 1 0.974122 0.377024 0.5
68 4 0.0364402 0.45817 0.5
17 1 0.0953104 0.473878 0.5
67 4 0.112233 0.419475 0.5
70 4 0.253432 0.43367 0.5
30 2 0.498211 0.439178 0.5
53 3 0.627112 0.41619 0.5
59 3 0.641103 0.472397 0.5
75 4 0.724148 0.428547 0.5
64 4 0.750242 0.455665 0.5
66 4 0.844609 0.441474 0.5
13 1 0.935941 0.479233 0.5
48 3 0.382311 0.504682 0.5
28 2 0.808882 0.478934 0.5
37 2 0.86221 0.526415 0.5
63 4 0.0779441 0.551877 0.5
29 2 0.131962 0.605665 0.5
26 2 0.100587 0.672766 0.5
50 3 0.254434 0.644791 0.5
58 3 0.302494 0.649791 0.5
19 1 0.460799 0.642234 0.5
4 1 0.758281 0.640989 0.5
1 1 0.567664 0.725874 0.5
16 1 0.725809 0.704311 0.5
61 4 0.865159 0.719647 0.5
40 2 0.916697 0.677377 0.5
65 4 0.921601 0.733558 0.5
15 1 0.737428 0.780276 0.5
14 1 0.825942 0.745025 0.5
35 2 0.15084 0.802126 0.5
72 4 0.319204 0.814581 0.5
55 3 0.657401 0.811244 0.5
56 3 0.703966 0.819766 0.5
78 4 0.884583 0.815296 0.5
3 1 0.302602 0.873346 0.5
18 1 0.544724 0.862191 0.5
80 4 0.614232 0.883152 0.5
6 1 0.817217 0.862345 0.5
5 1 0.110686 0.897215 0.5
46 3 0.172587 0.931887 0.5
34 2 0.615585 0.945229 0.5
21 2 0.111588 0.99072 0.5
41 3 0.277201 0.995315 0.5
57 3 0.710719 0.948407 0.5
49 3 0.771238 0.976645 0.5
74 4 0.807878 0.960993 0.5
ITEM: TIMESTEP
100
ITEM: NUMBER OF ATOMS
80
ITEM: BOX BOUNDS pp pp pp
-6.3811551806794844e+00 6.3811551806794844e+00
-6.3811551806794844e+00 6.3811551806794844e+00
-1.0000000000000001e-01 1.0000000000000001e-01
ITEM: ATOMS id type xs ys zs
52 3 0.192258 0.041998 0.5
27 2 0.226905 -0.00209483 0.5
71 4 0.797761 0.0183506 0.5
9 1 0.971922 0.00320319 0.5
43 3 0.158545 0.0995381 0.5
8 1 0.548358 0.0700177 0.5
11 1 0.629594 0.0939469 0.5
25 2 0.694682 0.0916242 0.5
22 2 0.770803 0.0779918 0.5
42 3 0.996241 0.0741171 0.5
62 4 0.957629 0.099528 0.5
7 1 0.493224 0.128641 0.5
47 3 0.968869 0.151841 0.5
32 2 0.0938311 0.207562 0.5
60 3 0.152349 0.169879 0.5
39 2 0.423872 0.178371 0.5
31 2 0.771301 0.203696 0.5
77 4 0.91759 0.19025 0.5
54 3 0.491704 0.222928 0.5
10 1 0.604941 0.247528 0.5
69 4 0.0869412 0.28479 0.5
51 3 0.130143 0.269354 0.5
20 1 0.748712 0.292605 0.5
45 3 0.914115 0.266888 0.5
44 3 0.987046 0.277297 0.5
36 2 0.0237976 0.333513 0.5
38 2 0.0775719 0.334683 0.5
79 4 0.120811 0.350775 0.5
23 2 0.815958 0.355652 0.5
73 4 0.130571 0.370858 0.5
76 4 0.159659 0.396869 0.5
33 2 0.766251 0.388614 0.5
24 2 0.865572 0.374476 0.5
2 1 0.90618 0.396473 0.5
12 1 0.980218 0.375095 0.5
68 4 0.0341887 0.457928 0.5
17 1 0.0961892 0.477227 0.5
67 4 0.113607 0.41625 0.5
70 4 0.253432 0.43367 0.5
30 2 0.498211 0.439178 0.5
53 3 0.626755 0.414756 0.5
59 3 0.64146 0.473831 0.5
75 4 0.721521 0.428368 0.5
64 4 0.750984 0.458277 0.5
66 4 0.846041 0.439543 0.5
13 1 0.936969 0.482639 0.5
48 3 0.382311 0.504682 0.5
28 2 0.805909 0.479556 0.5
37 2 0.863072 0.528624 0.5
63 4 0.0778915 0.552007 0.5
29 2 0.132926 0.603667 0.5
26 2 0.0996434 0.674784 0.5
50 3 0.250564 0.644388 0.5
58 3 0.306365 0.650193 0.5
19 1 0.460799 0.642234 0.5
4 1 0.759134 0.634726 0.5
1 1 0.567664 0.725874 0.5
16 1 0.720913 0.702376 0.5
61 4 0.866096 0.719323 0.5
40 2 0.916881 0.675123 0.5
65 4 0.9218 0.735531 0.5
15 1 0.735227 0.786082 0.5
14 1 0.83197 0.746604 0.5
35 2 0.150916 0.801925 0.5
72 4 0.320045 0.811604 0.5
55 3 0.653161 0.810816 0.5
56 3 0.706988 0.821341 0.5
78 4 0.884779 0.815163 0.5
3 1 0.301761 0.876323 0.5
18 1 0.543865 0.861835 0.5
80 4 0.614962 0.882611 0.5
6 1 0.817134 0.862748 0.5
5 1 0.107693 0.894548 0.5
46 3 0.175783 0.933211 0.5
34 2 0.615713 0.946126 0.5
21 2 0.111293 0.992245 0.5
41 3 0.279796 0.994746 0.5
57 3 0.710537 0.948327 0.5
49 3 0.767866 0.977182 0.5
74 4 0.810992 0.959274 0.5
ITEM: TIMESTEP
110
ITEM: NUMBER OF ATOMS
80
ITEM: BOX BOUNDS pp pp pp
-6.4331249585196693e+00 6.4331249585196693e+00
-6.4331249585196693e+00 6.4331249585196693e+00
-1.0000000000000001e-01 1.0000000000000001e-01
ITEM: ATOMS id type xs ys zs
52 3 0.189389 0.0449929 0.5
27 2 0.227092 0.995405 0.5
71 4 0.798413 0.0193466 0.5
9 1 0.97136 0.00105372 0.5
43 3 0.158482 0.099488 0.5
8 1 0.543446 0.0675246 0.5
11 1 0.634024 0.0954896 0.5
25 2 0.694822 0.0918851 0.5
22 2 0.77211 0.0780678 0.5
42 3 0.998349 0.0748852 0.5
62 4 0.956011 0.100424 0.5
7 1 0.494336 0.12749 0.5
47 3 0.968994 0.152288 0.5
32 2 0.0921142 0.207875 0.5
60 3 0.153764 0.169101 0.5
39 2 0.42118 0.179647 0.5
31 2 0.771618 0.202415 0.5
77 4 0.917538 0.190289 0.5
54 3 0.492165 0.223752 0.5
10 1 0.604941 0.247528 0.5
69 4 0.0856956 0.280127 0.5
51 3 0.132533 0.267716 0.5
20 1 0.748011 0.293216 0.5
45 3 0.914024 0.266873 0.5
44 3 0.986235 0.275951 0.5
36 2 0.0236949 0.333955 0.5
38 2 0.0747864 0.337377 0.5
79 4 0.124075 0.353588 0.5
23 2 0.81244 0.353423 0.5
73 4 0.130688 0.371249 0.5
76 4 0.160579 0.397639 0.5
33 2 0.766672 0.387012 0.5
24 2 0.864463 0.373788 0.5
2 1 0.905094 0.397336 0.5
12 1 0.986262 0.373341 0.5
68 4 0.0318044 0.457638 0.5
17 1 0.0971907 0.480669 0.5
67 4 0.114967 0.412947 0.5
70 4 0.253432 0.43367 0.5
30 2 0.498211 0.439178 0.5
53 3 0.626374 0.413226 0.5
59 3 0.64184 0.475361 0.5
75 4 0.718775 0.428212 0.5
64 4 0.751643 0.460914 0.5
66 4 0.847448 0.437665 0.5
13 1 0.938191 0.486179 0.5
48 3 0.382311 0.504682 0.5
28 2 0.802867 0.48022 0.5
37 2 0.863906 0.531016 0.5
63 4 0.0778042 0.552209 0.5
29 2 0.133958 0.601567 0.5
26 2 0.0986457 0.676918 0.5
50 3 0.246595 0.643975 0.5
58 3 0.310333 0.650606 0.5
19 1 0.460799 0.642234 0.5
4 1 0.760134 0.628266 0.5
1 1 0.567664 0.725874 0.5
16 1 0.71584 0.700463 0.5
61 4 0.867209 0.718856 0.5
40 2 0.917124 0.672719 0.5
65 4 0.92201 0.737596 0.5
15 1 0.73325 0.79174 0.5
14 1 0.837815 0.748258 0.5
35 2 0.151025 0.801657 0.5
72 4 0.320916 0.808518 0.5
55 3 0.648718 0.810396 0.5
56 3 0.709886 0.823226 0.5
78 4 0.885028 0.815022 0.5
3 1 0.300889 0.879409 0.5
18 1 0.5429 0.861438 0.5
80 4 0.615786 0.882007 0.5
6 1 0.81707 0.863291 0.5
5 1 0.104565 0.891801 0.5
46 3 0.179055 0.934543 0.5
34 2 0.615854 0.947126 0.5
21 2 0.110993 0.993868 0.5
41 3 0.282609 0.99417 0.5
57 3 0.710271 0.948204 0.5
49 3 0.764437 0.97772 0.5
74 4 0.814188 0.957527 0.5
ITEM: TIMESTEP
120
ITEM: NUMBER OF ATOMS
80
ITEM: BOX BOUNDS pp pp pp
-6.4787580669514577e+00 6.4787580669514577e+00
-6.4787580669514577e+00 6.4787580669514577e+00
-1.0000000000000001e-01 1.0000000000000001e-01
ITEM: ATOMS id type xs ys zs
52 3 0.186506 0.0479971 0.5
27 2 0.227209 0.992867 0.5
71 4 0.799143 0.0203085 0.5
9 1 0.970755 0.998795 0.5
43 3 0.158373 0.099474 0.5
8 1 0.538622 0.0647651 0.5
11 1 0.638224 0.0970879 0.5
25 2 0.695161 0.0921478 0.5
22 2 0.773511 0.0781988 0.5
42 3 1.00057 0.0757259 0.5
62 4 0.954301 0.10128 0.5
7 1 0.495356 0.126482 0.5
47 3 0.969149 0.152802 0.5
32 2 0.0902673 0.208112 0.5
60 3 0.155248 0.168329 0.5
39 2 0.418371 0.180972 0.5
31 2 0.771962 0.20103 0.5
77 4 0.917476 0.190336 0.5
54 3 0.492651 0.224617 0.5
10 1 0.604941 0.247528 0.5
69 4 0.084376 0.275475 0.5
51 3 0.135069 0.266165 0.5
20 1 0.747143 0.293714 0.5
45 3 0.913902 0.266855 0.5
44 3 0.985396 0.27449 0.5
36 2 0.0236036 0.334196 0.5
38 2 0.0722257 0.340042 0.5
79 4 0.12737 0.356184 0.5
23 2 0.808994 0.351024 0.5
73 4 0.130908 0.371777 0.5
76 4 0.1616 0.398449 0.5
33 2 0.766926 0.385643 0.5
24 2 0.863307 0.372921 0.5
2 1 0.904252 0.398252 0.5
12 1 0.992092 0.37188 0.5
68 4 0.0293296 0.457308 0.5
17 1 0.0982987 0.484128 0.5
67 4 0.116274 0.409646 0.5