ITEM: TIMESTEP
5000
ITEM: NUMBER OF ATOMS
97
ITEM: BOX BOUNDS pp pp pp
-6.4174133949596994e+00 6.4174133949596994e+00
-6.4215092217767005e+00 6.4215092217767005e+00
-1.0000000000000001e-01 1.0000000000000001e-01
ITEM: ATOMS id x y z vx vy vz
15 -5.59916 -5.3639 1.35791e-08 -2.96708e-07 2.50844e-07 -1.10008e-08
47 -3.44094 -5.43851 1.13297e-08 4.6557e-08 3.72231e-07 -3.03035e-08
93 -4.50477 -5.02014 -2.03532e-08 3.76268e-07 4.98732e-07 -6.44759e-09
72 -3.88182 -4.31339 -1.62483e-08 9.88685e-08 3.59664e-07 3.88428e-10
45 -2.65376 -4.39054 8.02903e-08 2.84908e-07 -4.43402e-07 1.47923e-08
48 -5.14213 -4.05209 3.86766e-08 1.97048e-07 1.43906e-07 2.20468e-08
79 -2.75805 -3.26053 4.0534e-10 5.58355e-08 2.64709e-07 1.98017e-08
41 -5.21504 -2.78004 3.13538e-08 -1.19453e-08 -2.5831e-07 -1.38704e-08
58 -3.97152 -3.33183 -3.57137e-08 1.17077e-07 -5.2159e-07 -1.64233e-08
101 -3.34017 -2.37566 6.51162e-08 4.1413e-08 2.5934e-07 -2.69419e-08
91 -2.39018 -2.2444 -1.62975e-08 2.7085e-07 3.11362e-07 -1.73243e-08
24 -5.17427 -1.34365 2.72718e-08 -2.22367e-07 5.89293e-08 -2.10207e-08
115 -4.35035 -2.35335 -2.65975e-08 -1.06525e-07 -2.60565e-07 9.225e-09
50 -3.78938 -1.40155 -1.94989e-08 -7.63185e-08 1.25482e-07 2.32591e-08
42 -2.62663 -1.17298 4.02967e-08 3.70542e-07 2.7863e-07 -7.6863e-09
116 -4.37483 -0.48613 -2.34144e-08 -6.84922e-08 -1.3617e-07 -9.73317e-09
73 -3.52954 -0.277077 5.2147e-09 -1.38672e-07 -3.56481e-08 1.14415e-08
26 -4.48615 -6.28313 6.01792e-08 -9.51556e-08 3.1597e-07 -3.46147e-08
55 -5.86095 1.26871 -5.11137e-09 -5.90077e-07 1.06554e-07 -3.28125e-08
20 -4.88968 0.422565 8.43323e-09 9.31874e-08 8.40164e-08 3.88148e-09
29 -3.47194 1.10593 1.22072e-08 5.8258e-07 -2.61708e-08 1.4529e-08
32 -2.3977 0.17203 1.53503e-08 3.27224e-07 -1.52046e-07 -1.9093e-08
112 -4.71815 1.56153 2.20919e-08 -9.94924e-08 -3.12805e-07 -6.13993e-09
5 -5.40042 2.54011 1.93702e-08 2.01672e-07 -2.14913e-07 -3.35196e-08
102 -4.16454 2.4097 3.16594e-08 2.94021e-07 -2.00294e-08 2.71089e-08
44 -3.0771 2.29224 -4.42384e-08 6.01852e-07 5.9119e-07 4.52518e-09
118 -4.34081 3.26768 -3.14616e-08 3.67802e-09 1.41394e-08 1.7694e-08
25 -3.20045 3.80626 3.26629e-08 -1.26737e-07 -6.19372e-07 -1.92799e-08
75 -2.80116 4.96371 3.14585e-09 1.26348e-07 7.10618e-08 1.07819e-08
114 2.03029 -5.67133 7.69745e-09 -8.4262e-08 2.59003e-07 -2.90042e-10
40 1.64055 -4.63116 -7.14935e-10 4.73378e-07 -4.48085e-07 -1.09311e-08
49 -1.3795 -4.10953 -1.42016e-08 5.17917e-08 -4.49316e-07 2.40537e-09
76 -0.241813 -4.24181 -1.02948e-08 6.37339e-07 2.95173e-07 1.1779e-08
70 0.737351 -3.91198 3.76619e-08 -1.77262e-07 -2.13363e-07 3.32133e-09
103 -1.77511 -3.14886 -1.78075e-08 3.76937e-07 -4.61066e-08 -2.37036e-08
46 -0.455715 -3.07223 -1.15151e-08 1.56567e-07 5.94164e-07 6.58557e-10
19 0.847243 -2.65367 4.04317e-08 2.94994e-07 -2.66904e-09 -2.97373e-08
107 1.70487 -3.4999 -1.03451e-08 2.58319e-07 -1.77313e-07 3.44059e-08
89 2.11719 -2.45854 1.31538e-08 4.67124e-09 9.55199e-08 -1.5438e-08
51 -1.3262 -2.10642 2.19331e-08 3.40656e-07 -2.54667e-07 -4.32283e-09
9 -0.0241755 -1.52779 -6.01763e-08 -2.32461e-07 -3.56794e-07 -6.24596e-09
16 -1.33204 -0.800425 4.8437e-08 1.74972e-07 1.47163e-07 3.57582e-09
96 0.738308 -0.496353 1.92803e-08 -3.23741e-07 -1.21012e-07 -2.87927e-08
86 -0.206343 -0.219014 -2.29492e-08 -1.77785e-07 2.25016e-07 -3.29043e-08
11 1.86847 -0.0105308 4.63514e-08 -1.77463e-07 -2.14397e-07 -2.9095e-08
95 -1.29561 0.343003 4.10203e-09 1.34809e-07 2.33753e-07 1.8123e-08
61 0.558178 0.517637 2.0226e-08 -4.27369e-08 -4.42403e-07 -2.25319e-08
3 -1.85706 1.52302 1.92954e-08 -1.2102e-07 -1.29688e-07 2.0643e-08
66 -0.480021 0.967591 -3.30326e-08 8.5269e-08 8.66555e-07 -2.29571e-10
34 0.439219 1.69613 2.90711e-08 7.44646e-07 2.12724e-07 -2.85609e-08
99 1.40958 1.165 -3.0869e-08 -5.95256e-08 9.64662e-08 -3.49685e-08
57 1.63573 2.36016 -7.88685e-09 1.43221e-07 2.30049e-07 -1.7352e-08
38 -1.94505 2.89631 4.04249e-08 -2.11834e-07 -1.92966e-07 -3.32064e-09
81 0.511309 2.91026 -2.44432e-08 1.12035e-07 2.32637e-07 1.79197e-08
43 -1.91997 4.17713 -2.79694e-08 3.75097e-07 -3.17318e-08 -1.23342e-08
59 -0.725591 3.48039 4.13022e-08 -1.54052e-07 -3.02935e-07 -7.12465e-10
17 0.374923 4.25544 2.54409e-08 -1.82674e-07 -3.97791e-07 -1.81433e-08
87 1.53144 3.52558 -9.8439e-09 3.43993e-08 1.79493e-07 -1.57598e-08
92 -0.910522 4.61433 -1.91426e-08 3.05861e-07 2.86997e-07 2.20403e-08
69 1.70992 4.67923 1.25804e-09 -2.28166e-07 9.99526e-08 -7.10271e-09
30 -1.60295 5.62313 -1.92442e-08 2.7035e-07 -5.32151e-08 -3.47496e-08
21 0.831179 5.72331 2.34695e-08 -3.72059e-07 1.60273e-07 2.43389e-08
108 2.92172 -6.02183 -2.69306e-08 -2.04176e-07 1.25344e-07 3.46174e-08
119 3.64624 -5.54372 -6.76505e-08 -1.43233e-07 -4.0911e-07 2.25917e-08
27 4.79774 -5.534 2.74946e-08 -4.80446e-07 2.32844e-07 2.19062e-08
63 2.80808 -4.99216 4.18798e-08 1.57025e-08 4.33586e-07 3.33122e-08
64 3.83568 -4.42606 7.99944e-09 1.9706e-07 -1.7909e-08 2.61014e-08
104 4.82002 -4.42613 -5.93032e-08 3.53036e-07 -3.74197e-07 -1.50461e-08
7 6.03567 -4.61332 1.23381e-08 -8.8992e-08 -1.95454e-07 2.2679e-08
52 6.33768 -3.28745 -9.88841e-10 6.51991e-08 1.62984e-08 -1.75483e-08
4 2.80008 -3.66361 -4.55305e-08 4.23352e-07 -6.39963e-08 3.16104e-08
39 4.20961 -3.18208 2.62403e-08 -9.94476e-08 -2.10705e-07 -2.39236e-08
109 5.25369 -3.60142 5.03315e-08 3.55274e-07 -1.83785e-07 -1.3036e-08
67 3.14751 -2.45271 -3.88337e-08 -3.46984e-07 7.9862e-08 1.81965e-09
18 5.29948 -2.30991 -4.76818e-08 3.917e-07 1.42619e-07 1.70151e-08
8 2.94839 -1.14284 -2.38142e-08 -2.17687e-07 3.42337e-08 1.85819e-08
85 4.07242 -1.92381 5.44034e-08 2.78552e-07 9.23582e-08 -1.48151e-09
110 3.79866 -0.3415 1.54155e-08 -3.26303e-07 6.82925e-08 -1.8762e-08
54 4.66951 -0.924728 3.53196e-08 4.48859e-07 3.66798e-07 1.3977e-08
105 4.85608 0.0730178 2.78127e-08 -1.09256e-07 3.35266e-08 1.20909e-08
117 3.05709 0.136604 6.40453e-08 6.93599e-07 -1.76116e-07 7.73675e-09
2 4.04149 0.858744 -2.29681e-08 -8.37135e-08 -6.10532e-08 1.64835e-08
36 5.78141 0.803274 -2.13225e-08 9.76872e-08 -3.38107e-07 3.46117e-08
23 2.6413 1.31315 -2.07921e-09 9.871e-08 1.63289e-07 1.23322e-08
78 4.90945 1.68749 -6.89018e-09 -8.56558e-08 -3.24274e-07 2.95145e-08
84 5.97159 1.97592 -3.5096e-10 -7.49262e-07 -5.21101e-07 -1.98081e-08
82 2.65971 2.97845 6.16111e-10 1.85019e-07 -2.157e-07 2.69986e-09
13 3.7966 2.43547 2.9182e-08 5.04665e-08 6.40754e-08 -2.07532e-08
83 5.12106 2.73767 -3.7199e-09 2.77791e-07 4.51255e-07 -2.5126e-09
80 6.19536 2.97838 -1.74648e-08 -4.73566e-07 8.61701e-07 6.09091e-09
113 2.54732 4.06206 -3.31068e-08 2.1759e-07 5.0434e-08 1.6137e-08
37 3.56314 3.83889 2.99652e-08 -6.04907e-07 -4.39641e-08 2.00658e-08
65 4.6405 3.52199 5.27224e-08 1.43057e-07 -2.16291e-07 6.91958e-09
35 5.51721 4.02256 -2.28174e-08 1.86038e-07 2.81315e-07 4.06571e-09
68 3.02431 4.94542 2.50089e-08 -1.38555e-07 -4.54185e-07 3.08608e-08
1 4.39118 4.82445 -1.56982e-08 -1.74722e-07 5.89306e-07 -1.79699e-08
28 2.16399 5.94666 4.72193e-10 -2.40848e-07 -2.25522e-08 -9.52974e-09
ITEM: TIMESTEP
10000
ITEM: NUMBER OF ATOMS
97
ITEM: BOX BOUNDS pp pp pp
-6.4142031354597000e+00 6.4142031354597000e+00
-6.4225284878289486e+00 6.4225284878289486e+00
-1.0000000000000001e-01 1.0000000000000001e-01
ITEM: ATOMS id x y z vx vy vz
15 -5.59636 -5.36475 2.65201e-08 2.99083e-08 3.05345e-07 3.36036e-08
47 -3.43922 -5.43938 -4.73191e-08 5.86007e-08 -5.75431e-07 1.32906e-08
93 -4.50252 -5.02093 9.41358e-09 -1.82997e-07 -2.52102e-07 -1.2203e-08
72 -3.87988 -4.31408 -3.78131e-08 7.16052e-08 3.15078e-07 2.03655e-08
45 -2.65244 -4.39124 9.51835e-08 1.14189e-07 -8.62685e-08 -1.28385e-08
48 -5.13956 -4.05273 6.32454e-09 4.42574e-07 3.14627e-07 -1.26334e-09
79 -2.75667 -3.26105 -3.01619e-08 2.16419e-07 1.33343e-07 -5.89043e-09
41 -5.21244 -2.78048 4.57628e-08 -1.39181e-07 -1.54122e-07 9.8091e-09
58 -3.96954 -3.33236 -7.33363e-08 3.51991e-07 -1.95316e-07 -1.03713e-08
101 -3.3385 -2.37604 6.17244e-08 -3.05727e-07 2.7896e-07 8.52974e-09
91 -2.38899 -2.24475 -3.42118e-08 -1.44925e-07 -1.25754e-08 -1.50531e-08
24 -5.17168 -1.34387 4.28084e-08 8.9597e-08 -2.42866e-07 -8.89638e-09
115 -4.34817 -2.35373 -3.80775e-08 -9.47734e-08 2.19661e-07 3.09073e-08
50 -3.78749 -1.40178 1.93536e-09 -2.32586e-07 2.87632e-07 8.81476e-09
42 -2.62531 -1.17317 1.06553e-08 -3.71534e-07 -4.81263e-07 1.10044e-08
116 -4.37264 -0.486208 6.30278e-09 -9.08807e-08 -6.7376e-07 2.67126e-08
73 -3.52777 -0.27712 -2.28448e-08 -2.34652e-07 -9.42007e-08 3.88259e-10
26 -4.48391 -6.28413 5.57008e-08 -4.87469e-07 -7.69979e-08 7.85193e-09
55 -5.85802 1.26891 7.01032e-09 -1.76079e-08 -1.46321e-07 -2.14364e-08
20 -4.88723 0.422638 -3.49681e-08 -3.21735e-07 -1.07928e-07 -2.40402e-09
29 -3.4702 1.1061 4.11387e-09 -6.05921e-08 -2.55349e-07 3.33333e-09
32 -2.3965 0.172054 5.59916e-08 6.43893e-07 -8.77063e-07 8.00528e-10
112 -4.71579 1.56178 4.48042e-08 -8.92081e-08 -3.27613e-07 -4.63966e-09
5 -5.39772 2.54052 2.56496e-09 2.546e-07 -5.07775e-07 -6.78332e-09
102 -4.16245 2.41008 8.37219e-08 3.52499e-07 -7.84463e-08 4.21532e-09
44 -3.07556 2.29261 -6.10634e-08 -7.68235e-08 5.811e-07 3.13601e-09
118 -4.33864 3.26819 1.8967e-08 1.41698e-07 -3.65136e-07 -2.90295e-08
25 -3.19884 3.80686 1.75373e-08 1.61938e-07 3.76958e-07 -1.10866e-09
75 -2.79976 4.9645 -4.53328e-08 2.29958e-07 3.29056e-07 2.05654e-11
114 2.02927 -5.67223 1.71726e-08 1.90701e-07 -3.37448e-07 -1.77203e-08
40 1.63972 -4.6319 -1.22413e-08 4.57824e-08 3.68522e-07 1.54498e-08
49 -1.37882 -4.11018 7.79412e-09 9.2455e-08 -2.92883e-07 1.8829e-08
76 -0.241693 -4.24249 -1.91453e-08 4.13135e-07 -4.78564e-07 -1.93109e-08
70 0.736986 -3.9126 5.5963e-08 -1.69279e-07 -8.79604e-08 3.33346e-08
103 -1.77422 -3.14936 3.64786e-08 7.86516e-07 2.75169e-07 -2.60487e-08
46 -0.455484 -3.07271 -1.33276e-08 1.56232e-07 1.28715e-07 1.23921e-08
19 0.846821 -2.65409 2.09109e-08 -6.77322e-07 4.38575e-07 2.81765e-08
107 1.70402 -3.50045 3.16955e-08 -3.56767e-08 -3.24892e-08 -2.78352e-09
89 2.11613 -2.45894 2.4459e-08 -4.59988e-08 -1.61823e-07 3.12102e-08
51 -1.32554 -2.10675 1.64849e-08 -3.3636e-07 -1.32437e-07 -2.74838e-08
9 -0.0241593 -1.52803 -9.45371e-08 -2.64995e-07 -1.05715e-07 -2.57021e-08
16 -1.33137 -0.80055 -1.35064e-08 4.92757e-08 1.26609e-07 2.54191e-08
96 0.737937 -0.496432 -4.63089e-08 -2.54754e-08 3.9302e-07 -3.03778e-08
86 -0.206235 -0.219056 -4.56028e-08 7.87843e-08 -1.98996e-07 -1.7987e-08
11 1.86753 -0.0105352 4.45877e-08 -3.65795e-07 -7.26056e-08 1.28262e-08
95 -1.29496 0.343058 2.59936e-08 -2.61417e-07 -3.29031e-07 8.16396e-09
61 0.557902 0.517724 -2.9703e-08 1.0164e-07 -9.43898e-08 1.95115e-08
3 -1.85613 1.52326 2.49191e-08 2.05138e-08 -2.73119e-08 -2.72846e-08
66 -0.479781 0.967745 -3.5072e-08 -5.3192e-08 -1.39798e-07 -2.11546e-08
34 0.439004 1.69639 1.81744e-08 1.30287e-07 -5.12807e-07 -1.60515e-08
99 1.40887 1.16518 -3.45737e-08 2.72993e-07 1.14721e-07 -2.50526e-08
57 1.63491 2.36054 -2.69933e-08 1.61562e-07 -1.13011e-07 -1.53361e-08
38 -1.94407 2.89677 2.04982e-08 7.27938e-08 -5.98581e-08 1.03686e-08
81 0.511054 2.91072 -1.76482e-08 1.96984e-07 -2.97579e-07 2.71732e-08
43 -1.91902 4.17779 9.35182e-09 -3.77559e-07 -5.03442e-07 -2.04441e-08
59 -0.725227 3.48094 1.06089e-08 4.42022e-07 6.16109e-08 -1.20775e-08
17 0.374734 4.25612 3.12291e-09 -2.52811e-07 -2.961e-07 1.73774e-08
87 1.53068 3.52614 -9.35211e-08 -3.77138e-07 7.23083e-08 -2.94549e-08
92 -0.910067 4.61506 -7.91916e-10 3.20277e-07 -2.33694e-07 -2.84786e-08
69 1.70906 4.67997 6.82454e-09 2.31946e-07 -1.02402e-07 -2.54638e-08
30 -1.60215 5.62402 -4.29533e-08 -1.65066e-07 1.74987e-07 -3.45631e-08
21 0.830763 5.72422 -7.94709e-09 1.09517e-07 5.90399e-08 3.23755e-08
108 2.92026 -6.02279 -6.12469e-08 -5.14423e-08 -3.53862e-07 -1.17631e-08
119 3.64441 -5.5446 -8.77421e-08 -1.12413e-07 3.05946e-07 2.13136e-08
27 4.79534 -5.53488 8.97906e-09 6.41602e-07 1.74752e-08 -2.34084e-08
63 2.80668 -4.99296 8.58871e-08 1.05052e-07 3.41186e-07 -6.67764e-10
64 3.83375 -4.42676 7.14596e-08 1.90312e-07 2.2119e-07 -2.32203e-08
104 4.81761 -4.42683 -2.34503e-08 -2.05518e-07 -1.44573e-07 3.45114e-09
7 6.03265 -4.61405 2.61099e-08 -1.44192e-07 6.65612e-08 1.24654e-08
52 6.33451 -3.28797 1.34266e-08 3.84642e-07 -3.39758e-07 2.22068e-08
4 2.79868 -3.66419 3.16541e-09 -1.21666e-07 4.07191e-07 -1.25837e-08
39 4.2075 -3.18259 -1.28099e-08 1.56434e-07 2.30532e-07 -2.67444e-08
109 5.25106 -3.60199 4.51005e-08 1.77242e-07 -1.47674e-07 -2.72832e-08
67 3.14593 -2.4531 -4.61507e-08 -4.10843e-07 -3.22992e-07 -1.13552e-08
18 5.29683 -2.31028 -4.52986e-08 7.61858e-07 1.71495e-08 3.02116e-08
8 2.94692 -1.14302 -4.40681e-08 4.20839e-07 -1.56849e-07 1.52894e-08
85 4.07039 -1.92412 3.69596e-08 2.46943e-07 -3.18258e-07 -4.48744e-09
110 3.79676 -0.341557 4.98963e-08 -8.31868e-08 6.25454e-07 -2.03982e-08
54 4.66717 -0.924871 2.55949e-08 -1.27143e-07 3.20732e-07 2.76216e-08
105 4.85365 0.0730278 4.58283e-08 2.26652e-07 2.14172e-07 2.4932e-08
117 3.05556 0.136622 2.0507e-08 3.79658e-07 4.59672e-07 1.98415e-08
2 4.03947 0.858875 -2.46068e-08 2.29522e-07 3.98619e-07 -5.03397e-09
36 5.77852 0.803401 -7.17198e-08 -3.64934e-08 -4.71008e-07 -2.96526e-08
23 2.63998 1.31335 -5.78409e-08 3.58615e-07 4.03517e-07 -1.3215e-08
78 4.907 1.68776 -6.12915e-08 -5.38729e-07 1.8545e-07 5.26027e-09
84 5.9686 1.97624 -5.28683e-08 -1.80564e-07 6.01445e-07 -6.29508e-09
82 2.65838 2.97892 -4.28954e-08 3.80576e-07 1.09521e-07 -1.15446e-08
13 3.7947 2.43586 8.96777e-09 4.30048e-07 -2.1731e-07 -3.25511e-08
83 5.1185 2.73811 5.31944e-09 1.30978e-07 2.7789e-07 1.33861e-08
80 6.19227 2.97885 -7.87852e-09 -2.70335e-07 4.73489e-07 3.23023e-09
113 2.54605 4.0627 -6.32488e-08 2.5886e-07 -2.08768e-07 3.1523e-08
37 3.56136 3.83951 4.51636e-08 -1.51312e-07 1.06798e-07 -8.68062e-09
65 4.63818 3.52254 4.21635e-08 -2.89215e-08 1.50502e-07 3.36856e-08
35 5.51444 4.0232 -1.01399e-08 1.13515e-07 1.74147e-07 -2.98557e-08
68 3.02279 4.9462 3.07917e-08 -1.80121e-08 -1.35107e-07 -1.94862e-09
1 4.38898 4.82521 -2.08489e-08 -2.19939e-08 1.19386e-08 -2.77509e-08
28 2.1629 5.9476 -3.89016e-09 -5.32121e-07 -2.42988e-07 2.00487e-08
ITEM: TIMESTEP
15000
ITEM: NUMBER OF ATOMS
97
ITEM: BOX BOUNDS pp pp pp
-6.4109928759596997e+00 6.4109928759596997e+00
-6.4235465575784039e+00 6.4235465575784039e+00
-1.0000000000000001e-01 1.0000000000000001e-01
ITEM: ATOMS id x y z vx vy vz
15 -5.59356 -5.36561 2.59518e-09 4.98067e-07 1.63518e-09 1.55796e-08
47 -3.43749 -5.44024 -5.21838e-08 5.7729e-07 -6.69526e-08 -5.19052e-09
93 -4.50027 -5.02173 3.31805e-08 8.7838e-08 2.74866e-08 -2.64503e-08
72 -3.87794 -4.31476 -4.97026e-08 -3.16876e-07 -1.96965e-07 -2.10706e-08
45 -2.6511 -4.39193 9.45151e-08 -1.96009e-07 2.47982e-07 1.61909e-08
48 -5.13699 -4.05337 -5.54622e-08 -2.13065e-07 -6.43244e-08 -1.00017e-08
79 -2.75529 -3.26156 -5.13027e-08 6.04013e-07 -1.21004e-07 1.26161e-08
41 -5.20983 -2.78092 3.61161e-08 3.64103e-07 6.00199e-08 -2.04917e-08
58 -3.96755 -3.33288 -6.84141e-08 -5.33661e-07 -3.25353e-07 2.78514e-08
101 -3.33684 -2.37641 1.2629e-07 5.21628e-08 -1.07619e-07 2.84609e-08
91 -2.3878 -2.24512 -3.40454e-08 -2.20982e-07 -2.5356e-07 3.14467e-08
24 -5.16909 -1.34408 5.78243e-08 3.35777e-07 4.10178e-07 2.65939e-08
115 -4.34599 -2.3541 -4.1902e-08 3.28488e-07 -7.035e-08 2.85264e-08
50 -3.78559 -1.40201 9.85539e-09 5.18703e-08 -3.15179e-07 2.44929e-08
42 -2.62401 -1.17335 -4.66815e-08 -3.07663e-08 3.36632e-07 1.09588e-08
116 -4.37046 -0.486285 -1.30572e-08 1.04409e-07 -1.26782e-07 3.43749e-08
73 -3.526 -0.277159 -8.25867e-08 -7.66559e-07 3.42394e-07 1.36496e-08
26 -4.48167 -6.28512 4.855e-08 -4.41416e-07 -7.90491e-08 -3.24359e-08
55 -5.85509 1.26911 2.33691e-08 -4.66899e-07 4.27837e-08 -2.53813e-09
20 -4.88478 0.42271 -3.5756e-08 1.33436e-08 -8.34796e-08 -2.36711e-08
29 -3.46846 1.10627 1.40772e-08 -5.0643e-08 -5.6209e-08 -8.23122e-09
32 -2.39531 0.172083 4.88929e-08 3.06149e-07 2.52543e-07 1.53962e-08
112 -4.71343 1.56203 7.33455e-08 -2.86983e-07 3.87715e-08 -2.83368e-08
5 -5.39502 2.54092 1.05741e-08 -7.84401e-07 -1.48104e-07 2.01015e-08
102 -4.16037 2.41047 7.75783e-08 7.07586e-08 4.40942e-07 2.34265e-08
44 -3.07402 2.29297 -7.90512e-08 -1.18433e-07 -3.50788e-07 9.97442e-09
118 -4.33647 3.26871 4.84738e-08 -1.40553e-07 1.63662e-07 5.0585e-10
25 -3.19724 3.80746 -3.5824e-08 2.43666e-07 -2.1301e-07 -1.39803e-08
75 -2.79836 4.96529 -3.32459e-09 5.67897e-07 -2.73298e-07 2.40732e-08
114 2.02825 -5.67313 -6.91409e-09 -3.99426e-07 -1.7526e-07 -3.38055e-08
40 1.6389 -4.63264 8.62874e-09 -6.0283e-08 1.71101e-07 -2.26132e-08
49 -1.37813 -4.11083 -1.07217e-08 -4.64032e-07 -4.33293e-09 3.26129e-08
76 -0.241574 -4.24316 -1.33192e-09 -9.48291e-08 1.8026e-09 -2.77878e-08
70 0.736611 -3.91322 4.56063e-08 1.56999e-08 -6.8324e-07 -2.51603e-08
103 -1.77333 -3.14985 6.91213e-08 5.02234e-07 2.62096e-07 -2.14076e-08
46 -0.45526 -3.0732 -1.66106e-08 3.84991e-07 8.95991e-08 -3.22252e-08
19 0.846397 -2.65451 5.55477e-08 9.23651e-08 -3.67e-07 -3.05585e-08
107 1.70317 -3.50101 3.78134e-08 2.06252e-08 3.59968e-07 6.03938e-09
89 2.11507 -2.45932 2.93565e-08 -2.25463e-07 -6.65067e-07 1.14139e-08
51 -1.32488 -2.10709 4.49354e-08 -7.14619e-09 -4.78528e-09 3.60543e-09
9 -0.0241475 -1.52828 -4.83387e-08 2.80223e-08 5.3922e-07 -3.03498e-08
16 -1.3307 -0.800673 1.12772e-09 1.33825e-07 1.49447e-07 3.02399e-08
96 0.737568 -0.496513 -5.77233e-08 -2.34411e-07 -2.09228e-07 -2.33493e-08
86 -0.206132 -0.219092 -4.12788e-08 -1.19436e-07 -3.99866e-07 -2.00824e-08
11 1.8666 -0.0105373 1.16312e-07 -3.97575e-07 1.3226e-07 1.63634e-08
95 -1.29431 0.343112 7.14827e-09 4.47076e-07 1.98731e-07 -3.41518e-08
61 0.557624 0.517804 -1.33745e-08 5.54048e-08 -1.19246e-07 2.68106e-08
3 -1.8552 1.5235 -5.37726e-09 -7.64862e-07 4.28566e-07 -3.2907e-08
66 -0.479545 0.967898 1.2704e-08 -4.05066e-08 -1.83124e-08 -1.98354e-08
34 0.438785 1.69667 -1.54551e-08 1.281e-07 -3.18965e-07 -4.23889e-09
99 1.40817 1.16536 -6.85658e-09 -6.04686e-08 1.21098e-07 -7.72419e-09
57 1.63409 2.36091 -1.89676e-08 -1.34773e-07 -8.91617e-08 -2.2304e-08
38 -1.94309 2.89722 8.35772e-09 -1.76835e-07 -6.93026e-08 -2.30948e-08
81 0.510801 2.91118 -2.544e-09 4.36678e-07 2.93075e-07 1.39732e-08
43 -1.91805 4.17845 2.31077e-08 -2.77157e-07 4.34462e-07 -1.84079e-08
59 -0.724866 3.4815 2.84095e-08 3.79483e-07 -1.88139e-09 3.05575e-08
17 0.374546 4.25679 -3.30296e-08 3.47112e-07 3.52541e-07 -1.94624e-08
87 1.52991 3.5267 -5.44519e-08 3.99281e-07 -7.17649e-08 -9.24098e-09
92 -0.909608 4.61578 -9.2207e-09 -3.0915e-07 3.07583e-07 -2.16691e-08
69 1.70821 4.68071 4.0486e-08 2.49214e-07 -1.14281e-07 8.21734e-09
30 -1.60134 5.62491 -6.84813e-08 -1.97511e-07 6.7367e-07 3.05729e-08
21 0.830346 5.72513 1.49463e-08 -6.3525e-08 1.92216e-07 -2.02233e-08
108 2.91879 -6.02375 -7.38719e-08 -3.85412e-08 2.34294e-08 -7.7327e-09
119 3.64258 -5.54547 -4.22438e-08 1.45817e-07 2.19791e-07 1.83832e-08
27 4.79295 -5.53575 -4.15322e-08 -1.62419e-07 -4.97596e-07 2.4426e-08
63 2.80528 -4.99375 8.13788e-08 9.47222e-08 -4.16602e-07 2.12455e-08
64 3.83183 -4.42746 6.76824e-08 -4.27509e-07 2.71446e-07 5.86612e-09
104 4.8152 -4.42753 1.99609e-08 -1.04712e-07 2.41998e-07 -2.12463e-08
7 6.02963 -4.61478 1.6336e-08 2.95187e-07 5.76041e-07 -1.08064e-08
52 6.33134 -3.28849 3.05802e-08 5.29701e-07 -3.52011e-07 -8.46976e-09
4 2.79728 -3.66477 -2.74588e-08 3.56467e-08 6.95855e-07 7.69656e-09
39 4.2054 -3.1831 -3.09483e-08 -3.86175e-07 3.25762e-07 4.65723e-09
109 5.24843 -3.60256 9.96997e-09 4.30272e-07 -6.08795e-07 -6.41448e-09
67 3.14436 -2.45349 -2.28141e-08 -1.62188e-07 2.84983e-07 -2.22739e-08
18 5.29418 -2.31064 -8.18431e-08 6.47682e-08 -1.13015e-08 -2.01529e-08
8 2.94545 -1.1432 -5.2543e-08 4.79684e-08 3.17219e-07 -1.16383e-08
85 4.06836 -1.92442 3.51405e-08 -3.01679e-07 1.36023e-07 -1.53192e-08
110 3.79486 -0.341607 1.37192e-08 -1.81912e-07 -1.23642e-07 2.61343e-08
54 4.66484 -0.925016 1.78673e-08 7.89023e-07 2.39624e-08 1.96109e-08
105 4.85122 0.0730448 8.32435e-08 2.47338e-07 -1.17838e-07 2.81881e-08
117 3.05403 0.13665 4.66231e-08 -7.14158e-08 3.74168e-07 3.21953e-08
2 4.03745 0.859013 -4.06354e-08 -7.13046e-07 5.34307e-07 3.21144e-08
36 5.77563 0.803528 -8.03719e-08 -2.92044e-07 1.17858e-07 1.40081e-09
23 2.63866 1.31356 -2.12681e-08 -2.78031e-07 4.40402e-07 -9.44768e-10
78 4.90454 1.68803 -3.49867e-08 -8.44558e-09 8.44765e-08 -2.00749e-08
84 5.96561 1.97655 -6.53732e-08 -6.60544e-07 1.30173e-08 -2.71332e-08
82 2.65705 2.97939 1.35304e-08 3.63917e-07 4.22603e-07 -6.67695e-09
13 3.7928 2.43624 -1.02812e-09 -6.46759e-07 -4.63958e-07 -2.36336e-08
83 5.11594 2.73854 -2.25968e-08 2.15344e-07 1.11965e-07 -1.24911e-09
80 6.18917 2.97933 5.16678e-08 4.41531e-07 -5.00721e-07 1.44915e-08
113 2.54477 4.06335 -1.05058e-07 1.70042e-07 -4.25306e-07 2.52679e-08
37 3.55957 3.84012 5.69838e-08 -4.09756e-07 3.35499e-07 -2.94231e-08
65 4.63585 3.5231 7.81734e-08 2.11555e-07 -4.86061e-07 4.11772e-10
35 5.51169 4.02384 -8.69474e-09 -3.15377e-07 4.51508e-08 -1.84669e-08
68 3.02128 4.94699 1.53308e-08 7.33361e-08 -3.17327e-07 5.88238e-09
1 4.38679 4.82598 -4.51082e-08 5.95214e-08 1.07963e-07 7.81184e-09
28 2.16182 5.94855 2.08114e-08 -4.81439e-08 1.67051e-07 -3.30042e-08
ITEM: TIMESTEP
20000
ITEM: NUMBER OF ATOMS
97
ITEM: BOX BOUNDS pp pp pp
-6.4077826164596994e+00 6.4077826164596994e+00
-6.4245659862189459e+00 6.4245659862189459e+00
-1.0000000000000001e-01 1.0000000000000001e-01
ITEM: ATOMS id x y z vx vy vz
15 -5.59076 -5.36646 -2.97448e-08 -5.69621e-08 -1.52691e-07 -1.79173e-08
47 -3.43577 -5.4411 -3.0207e-08 5.21733e-08 -9.17011e-08 8.58677e-09
93 -4.49801 -5.02252 3.52326e-08 -1.59326e-07 2.48406e-07 1.9034e-08
72 -3.87599 -4.31544 -8.83714e-09 -2.93624e-08 -2.7775e-07 -1.06687e-09
45 -2.64978 -4.39263 7.9494e-08 1.96483e-07 3.94123e-07 1.59775e-08
48 -5.13442 -4.05401 -8.5448e-08 2.26175e-07 -1.53586e-07 -1.43631e-08
79 -2.75391 -3.26208 -9.92965e-08 3.14503e-08 -9.18103e-08 -1.48968e-08
41 -5.20722 -2.78135 3.37114e-08 -2.48911e-07 -1.97193e-07 -2.22913e-08
58 -3.96557 -3.33341 -6.89749e-08 -4.52341e-07 -2.90473e-07 2.00129e-08
101 -3.33517 -2.37679 8.72288e-08 -3.41178e-07 -1.14265e-07 -2.98772e-09
91 -2.38661 -2.24547 -3.04518e-08 -1.01881e-07 -3.23467e-07 -1.80429e-08
24 -5.1665 -1.3443 1.03231e-07 -2.92733e-07 -4.11703e-09 -1.06551e-09
115 -4.34382 -2.35447 -1.9755e-08 1.51321e-07 -3.29356e-07 -2.69625e-08
50 -3.78369 -1.40223 -2.19354e-08 1.14982e-07 -4.18337e-07 -1.87148e-08
42 -2.62269 -1.17354 -4.91352e-08 3.01596e-07 -5.17389e-08 -1.92981e-09
116 -4.36827 -0.486357 -2.10059e-08 -7.76405e-08 7.04917e-08 1.44879e-08
73 -3.52424 -0.277203 -8.50591e-08 -9.3607e-08 2.46865e-07 -3.20074e-08
26 -4.47943 -6.28613 1.87731e-08 2.51155e-07 1.5557e-07 -1.78984e-09
55 -5.85216 1.26931 5.91717e-08 2.07436e-07 2.11022e-07 1.59765e-08
20 -4.88234 0.422779 -7.15323e-08 3.9923e-07 1.80203e-07 -7.14757e-09
29 -3.46672 1.10644 2.65205e-08 4.82974e-07 -2.15873e-07 -3.21291e-08
32 -2.39411 0.172104 1.01248e-07 1.65363e-07 -3.59078e-07 3.48206e-08
112 -4.71107 1.56228 7.06335e-08 -2.4649e-07 8.75191e-08 1.4819e-08
5 -5.39232 2.54132 -1.3303e-08 -1.6073e-07 -6.18896e-07 3.42247e-08
102 -4.15829 2.41086 8.69824e-08 -2.24782e-07 5.61107e-08 -3.58363e-09
44 -3.07248 2.29334 -1.78116e-08 -8.62049e-08 8.55321e-09 -1.90253e-08
118 -4.33431 3.26922 2.18171e-08 -2.8596e-07 -2.46756e-07 -3.90832e-09
25 -3.19564 3.80806 -4.78775e-08 4.79084e-08 -1.40496e-07 -8.80255e-09
75 -2.79695 4.96608 2.46914e-08 7.83754e-08 4.55499e-07 2.50923e-08
114 2.02724 -5.67403 4.80669e-08 -3.29691e-08 3.94171e-07 1.73926e-08
40 1.63808 -4.63338 4.98731e-09 7.36073e-08 -3.03742e-07 -6.88042e-09
49 -1.37744 -4.11149 -4.99648e-08 -3.14446e-07 -1.9817e-07 -2.33623e-08
76 -0.241452 -4.24382 1.54681e-08 2.4894e-07 -8.75084e-08 -2.69409e-08
70 0.736245 -3.91384 8.3807e-08 5.02667e-08 -3.48254e-07 -1.29588e-08
103 -1.77244 -3.15035 4.38609e-08 -3.28758e-07 -3.58847e-07 1.60956e-08
46 -0.455032 -3.07369 -7.332e-08 3.02579e-08 3.39632e-07 2.1074e-08
19 0.845976 -2.65493 9.26634e-08 8.67235e-08 4.8294e-07 6.50905e-09
107 1.70231 -3.50156 6.81313e-08 5.54677e-07 4.78838e-07 -6.32532e-09
89 2.11401 -2.45971 6.92242e-09 3.00907e-09 4.50164e-07 -2.97198e-08
51 -1.32421 -2.10742 3.10507e-08 -3.61859e-07 -5.9802e-07 2.80691e-08
9 -0.0241296 -1.52852 -4.50054e-08 -5.94646e-07 3.5759e-07 -4.18704e-09
16 -1.33004 -0.8008 -5.22668e-10 1.49479e-07 -1.43101e-07 8.9266e-09
96 0.737197 -0.496592 -1.1345e-07 1.99769e-07 8.09285e-09 6.8106e-09
86 -0.206026 -0.219129 -7.90981e-09 3.98896e-07 -1.3007e-07 -4.41448e-09
11 1.86567 -0.0105372 1.07647e-07 4.12736e-08 -1.60194e-07 2.63264e-08
95 -1.29367 0.343167 7.59243e-09 2.19467e-08 3.56297e-07 9.57421e-09
61 0.557344 0.517887 -1.03422e-08 1.68518e-07 1.52265e-07 -1.04022e-08
3 -1.85428 1.52374 -2.94709e-08 -9.65688e-08 2.9013e-07 1.37073e-08
66 -0.479303 0.968051 -3.20217e-09 4.17815e-07 2.02297e-07 2.11119e-08
34 0.438561 1.69694 -2.53409e-09 -3.56636e-07 -2.28525e-07 -1.85473e-08
99 1.40746 1.16554 -3.96923e-08 -1.42824e-07 -1.68346e-07 3.44278e-08
57 1.63328 2.36128 1.40762e-10 -5.0713e-07 2.16372e-07 7.78656e-09
38 -1.94212 2.89768 5.67346e-09 2.34132e-07 -1.49004e-07 1.20473e-08
81 0.510546 2.91165 -2.10701e-08 -3.78718e-07 4.45775e-08 3.21525e-08
43 -1.9171 4.17911 2.10337e-08 -3.47674e-07 -1.37562e-08 2.39056e-08
59 -0.724499 3.48205 2.04054e-08 4.96922e-07 -3.28839e-07 -2.86666e-08
17 0.37436 4.25747 -4.38015e-08 -1.32485e-08 1.95588e-07 -3.88719e-09
87 1.52914 3.52726 -8.05601e-08 -1.82455e-07 1.76762e-07 -1.77109e-09
92 -0.909152 4.61652 9.93881e-09 7.55205e-09 -2.1386e-07 -2.34882e-08
69 1.70736 4.68145 5.306e-08 2.57283e-07 -4.35254e-08 1.9696e-08
30 -1.60054 5.6258 -4.66201e-08 -6.33833e-08 -1.56903e-08 3.21369e-08
21 0.829932 5.72604 6.24213e-08 3.81989e-07 -2.40924e-07 2.68211e-08
108 2.91733 -6.0247 -4.81366e-08 1.14218e-07 9.87485e-08 -3.00853e-08
119 3.64076 -5.54635 -2.70612e-08 2.31109e-07 3.94351e-07 2.05987e-08
27 4.79054 -5.53663 -4.71354e-08 1.6577e-07 -4.81872e-08 2.62986e-08
63 2.80387 -4.99454 4.54009e-08 -1.19335e-07 5.94882e-07 3.47014e-08
64 3.82991 -4.42817 7.58266e-08 -3.07937e-07 3.24826e-07 -4.95494e-09
104 4.81278 -4.42824 -4.06687e-08 -3.95821e-07 -3.84577e-07 1.18388e-08
7 6.02661 -4.61551 6.88321e-08 -3.9994e-07 7.69957e-07 -2.97808e-08
52 6.32817 -3.28901 6.14176e-08 -2.37058e-08 2.16471e-07 -3.52432e-08
4 2.79588 -3.66535 -1.81315e-08 2.07171e-07 1.36125e-07 3.09657e-08
39 4.20329 -3.1836 -4.16243e-08 -1.77493e-07 3.13516e-07 5.44495e-09
109 5.24581 -3.60314 1.93531e-08 6.78555e-08 4.87764e-08 9.85511e-09
67 3.14278 -2.45388 6.17195e-08 5.49823e-07 1.29521e-07 -2.48741e-08
18 5.29153 -2.31101 -8.59318e-08 3.88645e-07 2.8154e-07 -7.5628e-09
8 2.94398 -1.14338 -9.95346e-08 -2.06387e-07 -1.16589e-07 2.2185e-08
85 4.06632 -1.92473 4.28278e-08 -2.0392e-07 5.15475e-08 2.4581e-09
110 3.79296 -0.341663 7.24235e-09 -1.70509e-07 4.7585e-07 2.01546e-08
54 4.66251 -0.925164 2.63516e-08 2.89035e-07 -1.16952e-07 -1.9952e-08
105 4.84879 0.0730518 8.16055e-08 2.68831e-07 -3.7705e-07 -1.03573e-08
117 3.05249 0.136672 4.51774e-08 -1.46323e-07 -1.31293e-07 2.67431e-08
2 4.03542 0.859149 -6.02855e-08 -2.50135e-07 -4.53684e-08 3.25573e-08
36 5.77274 0.80365 -8.15968e-08 8.4663e-09 1.376e-07 2.52711e-08
23 2.63734 1.31377 -4.404e-08 -6.08811e-07 1.41636e-07 -1.01906e-08
78 4.90208 1.68829 -3.14731e-08 -3.88516e-07 -2.14458e-07 -2.32095e-08
84 5.96262 1.97686 -3.54122e-08 -1.83865e-07 5.71293e-07 1.83933e-08
82 2.65572 2.97987 -1.11943e-08 2.83182e-07 1.60955e-08 -1.61585e-08
13 3.79091 2.43663 2.23197e-08 -3.87004e-07 2.65748e-07 -3.0683e-09
83 5.11337 2.73898 -2.4836e-08 1.47915e-07 8.39517e-08 2.9113e-08
80 6.18607 2.9798 6.0659e-08 -1.24562e-07 -2.67074e-07 -7.50848e-09
113 2.5435 4.06399 -1.35815e-07 1.18e-07 -1.33704e-07 1.8366e-08
37 3.55779 3.84072 7.52572e-08 1.71354e-07 -1.15107e-07 -2.19429e-08
65 4.63353 3.52366 4.76239e-08 -7.78641e-08 1.90346e-07 -1.68205e-08
35 5.50892 4.02448 2.55489e-08 1.46296e-07 -1.15905e-07 2.12174e-08
68 3.01976 4.94778 5.13716e-09 -2.81824e-07 1.61877e-07 2.60636e-08
1 4.3846 4.82675 -6.39369e-08 -6.67901e-08 -7.62954e-09 8.8501e-09
28 2.16074 5.94949 -1.42742e-08 1.69549e-07 5.47661e-08 -2.48224e-08
ITEM: TIMESTEP
25000
ITEM: NUMBER OF ATOMS
97
ITEM: BOX BOUNDS pp pp pp
-6.4045723569597000e+00 6.4045723569597000e+00
-6.4255850419149052e+00 6.4255850419149052e+00
-1.0000000000000001e-01 1.0000000000000001e-01
ITEM: ATOMS id x y z vx vy vz
15 -5.58796 -5.36731 -3.88005e-08 -2.44736e-07 -2.74086e-08 -1.97803e-08
47 -3.43405 -5.44196 -3.03704e-08 -6.6559e-08 7.6602e-08 1.60834e-08
93 -4.49576 -5.02332 3.76518e-08 -4.50811e-08 4.34322e-07 -3.4523e-08
72 -3.87405 -4.31612 1.28198e-08 -2.30574e-07 2.92602e-08 8.57094e-09
45 -2.64845 -4.39333 8.3042e-08 -2.64448e-08 7.86858e-08 2.81023e-08
48 -5.13185 -4.05466 -9.60588e-08 1.2345e-07 -1.46689e-07 -1.87719e-08
79 -2.75253 -3.2626 -8.40905e-08 -2.07548e-07 -3.05799e-07 2.51326e-08
41 -5.20462 -2.7818 4.10998e-08 8.93629e-08 -1.05833e-08 4.93989e-09
58 -3.96358 -3.33394 -2.11829e-08 -7.80327e-07 4.22599e-07 -3.51105e-08
101 -3.33349 -2.37717 1.06449e-07 2.25953e-07 -5.17769e-08 -1.28818e-08
91 -2.38541 -2.24583 1.87709e-08 -3.07211e-07 -3.58226e-08 1.40158e-08
24 -5.16392 -1.34452 1.10559e-07 -5.17916e-07 2.71924e-07 1.61385e-08
115 -4.34164 -2.35484 2.31517e-08 1.53024e-07 4.72352e-07 -2.24678e-08
50 -3.78179 -1.40246 3.20696e-10 -2.14936e-08 -3.63179e-08 1.51854e-08
42 -2.62138 -1.17373 -2.61608e-08 -2.64048e-07 4.91957e-07 -4.39121e-09
116 -4.36609 -0.486436 -1.66562e-08 4.32547e-07 3.62816e-07 1.3027e-08
73 -3.52248 -0.277244 -7.32433e-08 8.96677e-08 2.23484e-07 -1.36432e-08
26 -4.47718 -6.28712 -2.34546e-08 -2.90466e-07 8.84405e-08 2.02735e-08
55 -5.84923 1.26951 5.76289e-08 4.45361e-07 2.6268e-08 -1.17145e-08
20 -4.87989 0.422844 -1.15878e-07 9.52264e-08 -2.54904e-07 8.57656e-09
29 -3.46498 1.10662 -2.16067e-08 -7.0473e-07 -2.11601e-07 1.37722e-08
32 -2.3929 0.172132 1.49814e-07 3.06745e-08 9.19657e-08 -1.84181e-08
112 -4.70871 1.56253 6.06729e-08 -1.75425e-07 3.61809e-07 -2.16757e-08
5 -5.38963 2.54173 -1.76409e-08 -1.33443e-06 1.11208e-07 3.19589e-08