LAMMPS (23 Jun 2022 - Update 3)
OMP_NUM_THREADS environment is not set. Defaulting to 1 thread. (src/comm.cpp:98)
  using 1 OpenMP thread(s) per MPI task
# Compute elastic constant tensor for a crystal
#
# Written by Aidan Thompson (Sandia, athomps@sandia.gov)
#
#  This script uses the following three include files.
#
#   init.mod      (must be modified for different crystal structures)
# 	       	  Define units, deformation parameters and initial
#		  configuration of the atoms and simulation cell.
#
#
#   potential.mod    (must be modified for different pair styles)
# 		     Define pair style and other attributes
#		     not stored in restart file
#
#
#   displace.mod    (displace.mod should not need to be modified)
# 		    Perform positive and negative box displacements
# 		    in direction ${dir} and size ${up}.
# 		    It uses the resultant changes
#		    in stress to compute one
# 		    row of the elastic stiffness tensor
#
#		    Inputs variables:
#		    	   dir = the Voigt deformation component
#		    		    (1,2,3,4,5,6)
#		    Global constants:
#       	    	   up = the deformation magnitude (strain units)
#       		   cfac = conversion from LAMMPS pressure units to
#               	   output units for elastic constants
#
#
#  To run this on a different system, it should only be necessary to
#  modify the files init.mod and potential.mod. In order to calculate
#  the elastic constants correctly, care must be taken to specify
#  the correct units in init.mod (units, cfac and cunits). It is also
#  important to verify that the minimization of energy w.r.t atom
#  positions in the deformed cell is fully converged.
#  One indication of this is that the elastic constants are insensitive
#  to the choice of the variable ${up} in init.mod. Another is to check
#  the final max and two-norm forces reported in the log file. If you know
#  that minimization is not required, you can set maxiter = 0.0 in
#  init.mod.
#

variable dt equal 0.01
variable strain equal 0.1
variable srate equal 1e-5
variable M equal 1000 # averaging time for properties
variable strainsteps equal ${strain}/${dt}/${srate}
variable strainsteps equal 0.1/${dt}/${srate}
variable strainsteps equal 0.1/0.01/${srate}
variable strainsteps equal 0.1/0.01/1e-05


dimension 2
include init.mod
# NOTE: This script can be modified for different atomic structures,
# units, etc. See in.elastic for more info.
#

# Define the finite deformation size. Try several values of this
# variable to verify that results do not depend on it.
variable up equal 1.0e-1

# Define the amount of random jiggle for atoms
# This prevents atoms from staying on saddle points
variable atomjiggle equal 1.0e-6

# Uncomment one of these blocks, depending on what units
# you are using in LAMMPS and for output

# metal units, elastic constants in eV/A^3
#units		metal
#variable cfac equal 6.2414e-7
#variable cunits string eV/A^3

# Choose potential
# metal units, elastic constants in GPa
units		metal
atom_style	full
#pair_style      lj/cut 1.0
#pair_style      yukawa 1.0 2.0
#pair_modify     mix arithmetic
bond_style      harmonic
angle_style     harmonic
dihedral_style  zero
special_bonds   amber
variable cfac equal 1.0e-4
variable cunits string GPa
boundary	p p p

# Need to set mass to something, just to satisfy LAMMPS
#mass 1 1.0e-20
read_data network.lmp
Reading data file ...
  orthogonal box = (-6.420519 -6.420519 -0.1) to (6.420519 6.420519 0.1)
  3 by 2 by 1 MPI processor grid
WARNING: Atom style in data file differs from currently defined atom style (src/read_data.cpp:538)
  reading atoms ...
  97 atoms
WARNING: Bond style in data file differs from currently defined bond style (src/read_data.cpp:630)
  scanning bonds ...
  4 = max bonds/atom
  reading bonds ...
  201 bonds
Finding 1-2 1-3 1-4 neighbors ...
  special bond factors lj:    0        0        0.5     
  special bond factors coul:  0        0        0.8333333333333334
     6 = max # of 1-2 neighbors
    25 = max # of 1-3 neighbors
   111 = max # of 1-4 neighbors
    33 = max # of special neighbors
  special bonds CPU = 0.001 seconds
  read_data CPU = 0.009 seconds

# real units, elastic constants in GPa
#units		real
#variable cfac equal 1.01325e-4
#variable cunits string GPa

# Define minimization parameters
variable etol equal 0.0
variable ftol equal 5.0e-10
variable maxiter equal 100000
variable maxeval equal 20000
variable dmax equal 1.0e-2


include potential.mod
# NOTE: This script can be modified for different pair styles
# See in.elastic for more info.

# Setup neighbor style
neighbor 3.0 nsq
neigh_modify once no every 1 delay 0 check yes
comm_modify cutoff 2.0

# Setup minimization style
min_style	     cg
min_modify	     dmax ${dmax} line quadratic
min_modify	     dmax 0.01 line quadratic

timestep	0.001


# Setup output
thermo		500
thermo_style custom step temp pe ebond eangle edihed press pxx pyy pzz pxy pxz pyz lx ly lz vol
# thermo_style custom step temp atoms vx vy vz
thermo_modify norm no


#change_box all triclinic
comm_modify mode single cutoff 10.0 vel yes
atom_modify sort 0 0


# Compute initial state
#fix 3 all box/relax x 0 y 0 # xy 0  #MS comment: relax if the network is periodic
minimize ${etol} ${ftol} ${maxiter} ${maxeval}
minimize 0 ${ftol} ${maxiter} ${maxeval}
minimize 0 5e-10 ${maxiter} ${maxeval}
minimize 0 5e-10 100000 ${maxeval}
minimize 0 5e-10 100000 20000
Neighbor list info ...
  update every 1 steps, delay 0 steps, check yes
  max neighbors/atom: 2000, page size: 100000
  master list distance cutoff = 0
  ghost atom cutoff = 10
  0 neighbor lists, perpetual/occasional/extra = 0 0 0
Per MPI rank memory allocation (min/avg/max) = 8.884 | 8.884 | 8.884 Mbytes
   Step          Temp          PotEng         E_bond        E_angle        E_dihed         Press           Pxx            Pyy            Pzz            Pxy            Pxz            Pyz             Lx             Ly             Lz           Volume    
         0   0              3.5378062e-11  3.5378062e-11  0              0             -0.057008749   -0.051080993   -0.062936504    0             -0.032747413    0              0              12.841038      12.841038      0.2            164.89226    
       163   0              9.952532e-13   9.952532e-13   0              0             -5.5905058e-06 -2.4510729e-05  1.3329717e-05  0              2.5749806e-06  0              0              12.841038      12.841038      0.2            164.89226    
Loop time of 0.0152838 on 6 procs for 163 steps with 97 atoms

84.6% CPU use with 6 MPI tasks x 1 OpenMP threads

Minimization stats:
  Stopping criterion = force tolerance
  Energy initial, next-to-last, final = 
    3.53780617638418e-11 9.95253284201939e-13 9.95253198903163e-13
  Force two-norm initial, final = 1.7435222e-05 4.8346943e-10
  Force max component initial, final = 3.9737926e-06 9.0921872e-11
  Final line search alpha, max atom move = 1 9.0921872e-11
  Iterations, force evaluations = 163 326

MPI task timing breakdown:
Section |  min time  |  avg time  |  max time  |%varavg| %total
---------------------------------------------------------------
Pair    | 0          | 0          | 0          |   0.0 |  0.00
Bond    | 0.00043135 | 0.00061656 | 0.00079383 |   0.0 |  4.03
Neigh   | 0          | 0          | 0          |   0.0 |  0.00
Comm    | 0.011571   | 0.011769   | 0.011871   |   0.1 | 77.00
Output  | 0          | 0          | 0          |   0.0 |  0.00
Modify  | 0          | 0          | 0          |   0.0 |  0.00
Other   |            | 0.002898   |            |       | 18.96

Nlocal:        16.1667 ave          18 max          11 min
Histogram: 1 0 0 0 0 0 0 1 2 2
Nghost:        363.167 ave         370 max         356 min
Histogram: 2 0 0 1 0 0 0 1 1 1
Neighs:              0 ave           0 max           0 min
Histogram: 6 0 0 0 0 0 0 0 0 0

Total # of neighbors = 0
Ave neighs/atom = 0
Ave special neighs/atom = 21.010309
Neighbor list builds = 0
Dangerous builds = 0
thermo 100
# thermo_style custom step atoms temp press c_vx c_vy c_vz
#unfix 3
fix 2d all enforce2d


# These formulas define the derivatives w.r.t. strain components
# Constants uses $, variables use v_
timestep        ${dt}
timestep        0.01
variable nsteps equal round(${strainsteps})
variable nsteps equal round(1000000)

#fix             4 all nve
fix             5 all langevin 0.0001 0.0001 1 904297
#fix		     6 all press/berendsen y  0.0 0.0 1 x 0.0 0.0 10
#fix             6 all npt temp 0.0001 0.0001 1000.0 y 0.0 0.0 1000.0
 fix             6 all nph y 0.0 0.0 1000.0 ptemp 0.001
 fix     	     9 all deform 1 x erate -${srate} units box remap x
 fix     	     9 all deform 1 x erate -1e-05 units box remap x

# For PLUMED2
# fix 22 all plumed plumedfile plumed.dat outfile plumed.out

#To avoid flying ice cube phenomenon:
#fix 21 all momentum 100 linear 1 1 1 angular

dump 1 all custom 5000 dump.lammpstrj id x y z vx vy vz
run  ${nsteps}
run  1000000
Per MPI rank memory allocation (min/avg/max) = 7.759 | 7.759 | 7.759 Mbytes
   Step          Temp          PotEng         E_bond        E_angle        E_dihed         Press           Pxx            Pyy            Pzz            Pxy            Pxz            Pyz             Lx             Ly             Lz           Volume    
       163   0              9.952532e-13   9.952532e-13   0              0             -5.5905058e-06 -2.4510729e-05  1.3329717e-05  0              2.5749806e-06  0              0              12.841038      12.841038      0.2            164.89226    
       200   4.8491859e-05  9.1290459e-10  9.1290459e-10  0              0              3.0808925      5.0494883      1.1122616      0              0.15725886     0              0              12.84099       12.841043      0.2            164.89171    
       300   7.798677e-05   1.2439043e-08  1.2439043e-08  0              0              8.5516217      17.589596     -0.48639122     0              0.62962314     0              0              12.840862      12.841098      0.2            164.89076    
       400   0.00010552112  3.7534756e-08  3.7534756e-08  0              0              14.966982      30.611835     -0.67791026     0              1.0964997      0              0              12.840734      12.84114       0.2            164.88966    
       500   0.00011177391  7.6118264e-08  7.6118264e-08  0              0              22.648684      44.234144      1.0631817      0              1.5313546      0              0              12.840605      12.841166      0.2            164.88835    
       600   0.00010751522  1.2812247e-07  1.2812247e-07  0              0              28.330839      56.891127     -0.22948871     0              2.0264398      0              0              12.840477      12.841218      0.2            164.88737    
       700   9.0908294e-05  1.9379047e-07  1.9379047e-07  0              0              34.451391      69.780609     -0.87786824     0              2.5065671      0              0              12.840348      12.841265      0.2            164.88631    
       800   0.00010585491  2.7266861e-07  2.7266861e-07  0              0              42.189063      83.413653      0.96443497     0              2.9548342      0              0              12.84022       12.84129       0.2            164.88499    
       900   0.00010708922  3.6507357e-07  3.6507357e-07  0              0              48.120954      96.189943      0.051917567    0              3.4451328      0              0              12.840092      12.841338      0.2            164.88396    
      1000   9.0344999e-05  4.7059558e-07  4.7059558e-07  0              0              53.928391      108.86825     -1.011504       0              3.9453944      0              0              12.839963      12.841388      0.2            164.88295    
      1100   0.00010220501  5.8958511e-07  5.8958511e-07  0              0              61.648865      122.48373      0.81396272     0              4.4110379      0              0              12.839835      12.841413      0.2            164.88162    
      1200   0.00010828701  7.218356e-07   7.218356e-07   0              0              67.835911      135.34865      0.32313426     0              4.8789548      0              0              12.839706      12.841458      0.2            164.88056    
      1300   0.00010085823  8.6751912e-07  8.6751912e-07  0              0              73.406509      147.91167     -1.0986881      0              5.3782329      0              0              12.839578      12.841512      0.2            164.87959    
      1400   0.00010660165  1.0271464e-06  1.0271464e-06  0              0              81.064538      161.52181      0.60722366     0              5.8372488      0              0              12.83945       12.841539      0.2            164.87829    
      1500   0.00010527659  1.2004657e-06  1.2004657e-06  0              0              87.576447      174.58942      0.5634225      0              6.3209726      0              0              12.839321      12.84158       0.2            164.87717    
      1600   0.00010183506  1.3874785e-06  1.3874785e-06  0              0              93.023756      187.15264     -1.1051664      0              6.8214611      0              0              12.839193      12.841635      0.2            164.87623    
      1700   8.7469599e-05  1.5876124e-06  1.5876124e-06  0              0              100.53578      200.69527      0.37625436     0              7.3029838      0              0              12.839064      12.841663      0.2            164.87494    
      1800   9.4517564e-05  1.8013465e-06  1.8013465e-06  0              0              107.34864      213.90483      0.79240945     0              7.774055       0              0              12.838936      12.8417        0.2            164.87377    
      1900   0.00011594122  2.0277687e-06  2.0277687e-06  0              0              112.65452      226.35565     -1.0466592      0              8.2671583      0              0              12.838808      12.841757      0.2            164.87285    
      2000   0.00010229324  2.2665147e-06  2.2665147e-06  0              0              119.88952      239.69292      0.086085729    0              8.7239836      0              0              12.838679      12.841789      0.2            164.8716     
      2100   0.00010395695  2.5188571e-06  2.5188571e-06  0              0              126.97796      252.96684      0.98902524     0              9.1859554      0              0              12.838551      12.841821      0.2            164.87038    
      2200   0.00010222484  2.7858162e-06  2.7858162e-06  0              0              132.24817      265.41259     -0.91628435     0              9.6852013      0              0              12.838422      12.841879      0.2            164.86946    
      2300   0.00010521676  3.0658591e-06  3.0658591e-06  0              0              139.2435       278.67878     -0.19181248     0              10.166753      0              0              12.838294      12.841913      0.2            164.86826    
      2400   0.00012355655  3.3604562e-06  3.3604562e-06  0              0              146.61911      292.16217      1.0760171      0              10.600536      0              0              12.838165      12.841943      0.2            164.86699    
      2500   0.00010076421  3.6684037e-06  3.6684037e-06  0              0              151.98351      304.6719      -0.70491921     0              11.047112      0              0              12.838037      12.842         0.2            164.86607    
      2600   0.00011657753  3.9891551e-06  3.9891551e-06  0              0              158.66388      317.79613     -0.46840683     0              11.467448      0              0              12.837909      12.842039      0.2            164.86492    
      2700   8.9580304e-05  4.3237932e-06  4.3237932e-06  0              0              166.23701      331.36176      1.1122193      0              11.928958      0              0              12.83778       12.842066      0.2            164.86362    
      2800   0.00010184638  4.6719307e-06  4.6719307e-06  0              0              171.72204      343.92432     -0.48027002     0              12.417537      0              0              12.837652      12.842121      0.2            164.86268    
      2900   0.00010179758  5.0335205e-06  5.0335205e-06  0              0              178.11026      356.92208     -0.70159932     0              12.872745      0              0              12.837523      12.842164      0.2            164.86158    
      3000   0.00010522375  5.4083905e-06  5.4083905e-06  0              0              185.81162      370.54648      1.0767277      0              13.316469      0              0              12.837395      12.84219       0.2            164.86026    
      3100   9.5126751e-05  5.7960159e-06  5.7960159e-06  0              0              191.47166      383.16844     -0.22515459     0              13.776669      0              0              12.837267      12.842242      0.2            164.85928    
      3200   8.3822661e-05  6.1962746e-06  6.1962746e-06  0              0              197.54672      395.97267     -0.87927924     0              14.232551      0              0              12.837138      12.842288      0.2            164.85823    
      3300   0.00010222151  6.6104125e-06  6.6104125e-06  0              0              205.28912      409.59427      0.98393011     0              14.680481      0              0              12.83701       12.842313      0.2            164.8569     
      3400   0.00011473677  7.036384e-06   7.036384e-06   0              0              211.17212      422.28186      0.062337059    0              15.146947      0              0              12.836881      12.842362      0.2            164.85588    
      3500   9.3287451e-05  7.4761101e-06  7.4761101e-06  0              0              216.94339      434.92378     -1.0370464      0              15.610266      0              0              12.836753      12.842412      0.2            164.85487    
      3600   0.00011160164  7.9290769e-06  7.9290769e-06  0              0              224.66141      448.50455      0.81823026     0              16.07935       0              0              12.836625      12.842437      0.2            164.85354    
      3700   0.00011033104  8.3954056e-06  8.3954056e-06  0              0              230.84383      461.34563      0.34199359     0              16.557865      0              0              12.836496      12.842481      0.2            164.85246    
      3800   0.00010776714  8.8739221e-06  8.8739221e-06  0              0              236.36976      473.84499     -1.1055034      0              17.02566       0              0              12.836368      12.842535      0.2            164.8515     
      3900   9.3379581e-05  9.3669103e-06  9.3669103e-06  0              0              244.00129      487.38431      0.61823678     0              17.452597      0              0              12.836239      12.842561      0.2            164.85018    
      4000   9.6008454e-05  9.8736132e-06  9.8736132e-06  0              0              250.48552      500.38017      0.59084078     0              17.882524      0              0              12.836111      12.842601      0.2            164.84906    
      4100   9.5395574e-05  1.0394553e-05  1.0394553e-05  0              0              255.8709       512.85965     -1.1178938      0              18.346678      0              0              12.835982      12.842656      0.2            164.84811    
      4200   0.00010371435  1.0930294e-05  1.0930294e-05  0              0              263.37582      526.38819      0.36341347     0              18.795662      0              0              12.835854      12.842684      0.2            164.84682    
      4300   9.5509616e-05  1.1479828e-05  1.1479828e-05  0              0              270.19546      539.59107      0.799813       0              19.264483      0              0              12.835726      12.842721      0.2            164.84564    
      4400   9.596829e-05   1.2042764e-05  1.2042764e-05  0              0              275.51287      552.06793     -1.042239       0              19.781049      0              0              12.835597      12.842777      0.2            164.84472    
      4500   9.9946108e-05  1.2617922e-05  1.2617922e-05  0              0              282.76923      565.4627       0.075724571    0              20.236683      0              0              12.835469      12.842808      0.2            164.84346    
      4600   0.00011438556  1.3206633e-05  1.3206633e-05  0              0              289.8794       578.78556      0.97318923     0              20.688837      0              0              12.83534       12.842841      0.2            164.84223    
      4700   0.00010206126  1.3807739e-05  1.3807739e-05  0              0              295.15171      591.20524     -0.90186611     0              21.168896      0              0              12.835212      12.842897      0.2            164.84131    
      4800   0.00011476796  1.4422812e-05  1.4422812e-05  0              0              302.139        604.46354     -0.18558843     0              21.610748      0              0              12.835084      12.842932      0.2            164.8401     
      4900   0.00011409741  1.5052575e-05  1.5052575e-05  0              0              309.49114      617.91615      1.0660958      0              22.046762      0              0              12.834955      12.842962      0.2            164.83884    
      5000   0.00010505355  1.5696909e-05  1.5696909e-05  0              0              314.84535      630.41978     -0.72911729     0              22.493111      0              0              12.834827      12.843018      0.2            164.83792    
      5100   0.0001093044   1.6353255e-05  1.6353255e-05  0              0              321.56332      643.56018     -0.43358436     0              22.933916      0              0              12.834698      12.843056      0.2            164.83675    
      5200   9.318261e-05   1.7024145e-05  1.7024145e-05  0              0              329.1058       657.11538      1.0961815      0              23.38066       0              0              12.83457       12.843084      0.2            164.83546    
      5300   0.00010625948  1.7706572e-05  1.7706572e-05  0              0              334.5714       669.64028     -0.49752891     0              23.867434      0              0              12.834442      12.843139      0.2            164.83451    
      5400   8.2355708e-05  1.840205e-05   1.840205e-05   0              0              340.96769      682.60954     -0.67421109     0              24.32913       0              0              12.834313      12.843181      0.2            164.83341    
      5500   9.1338485e-05  1.9114754e-05  1.9114754e-05  0              0              348.66371      696.25656      1.0708195      0              24.765639      0              0              12.834185      12.843207      0.2            164.8321     
      5600   9.0991049e-05  1.9839052e-05  1.9839052e-05  0              0              354.33554      708.90084     -0.22980434     0              25.214183      0              0              12.834056      12.84326       0.2            164.83112    
      5700   0.00010049095  2.0576899e-05  2.0576899e-05  0              0              360.43961      721.75622     -0.8770317      0              25.692717      0              0              12.833928      12.843306      0.2            164.83007    
      5800   0.00010051644  2.1326798e-05  2.1326798e-05  0              0              368.18553      735.3867       0.98431906     0              26.154162      0              0              12.8338        12.843331      0.2            164.82874    
      5900   9.8036841e-05  2.2090908e-05  2.2090908e-05  0              0              374.0829       748.13304      0.032717259    0              26.618901      0              0              12.833671      12.84338       0.2            164.82772    
      6000   0.00011258683  2.2866135e-05  2.2866135e-05  0              0              379.89788      760.80794     -1.01223        0              27.084519      0              0              12.833543      12.84343       0.2            164.82671    
      6100   0.0001218439   2.3656123e-05  2.3656123e-05  0              0              387.62775      774.42599      0.82947498     0              27.515052      0              0              12.833414      12.843455      0.2            164.82538    
      6200   0.00010386474  2.4458395e-05  2.4458395e-05  0              0              393.79227      787.27555      0.30894931     0              27.938444      0              0              12.833286      12.8435        0.2            164.82431    
      6300   9.6245056e-05  2.5275805e-05  2.5275805e-05  0              0              399.39003      799.86948     -1.0894701      0              28.371904      0              0              12.833157      12.843553      0.2            164.82334    
      6400   0.00010775833  2.6107145e-05  2.6107145e-05  0              0              407.03634      813.46169      0.61095268     0              28.806739      0              0              12.833029      12.84358       0.2            164.82203    
      6500   0.00012240427  2.6951097e-05  2.6951097e-05  0              0              413.53457      826.48864      0.58045576     0              29.257444      0              0              12.832901      12.843621      0.2            164.82091    
      6600   7.7208228e-05  2.7808655e-05  2.7808655e-05  0              0              418.94886      838.99308     -1.0954123      0              29.736009      0              0              12.832772      12.843676      0.2            164.81997    
      6700   9.6155766e-05  2.8677662e-05  2.8677662e-05  0              0              426.40926      852.46488      0.35359198     0              30.189251      0              0              12.832644      12.843705      0.2            164.81869    
      6800   0.00010111631  2.9563385e-05  2.9563385e-05  0              0              433.2337       865.66333      0.80403107     0              30.651168      0              0              12.832515      12.843742      0.2            164.81752    
      6900   0.00010668242  3.0465505e-05  3.0465505e-05  0              0              438.58229      878.18299     -1.0184371      0              31.135932      0              0              12.832387      12.843799      0.2            164.8166     
      7000   9.2643972e-05  3.1379906e-05  3.1379906e-05  0              0              445.83151      891.60722      0.055750345    0              31.601438      0              0              12.832259      12.84383       0.2            164.81535    
      7100   0.00010161994  3.2303928e-05  3.2303928e-05  0              0              452.94339      904.92575      0.96098993     0              32.037593      0              0              12.83213       12.843863      0.2            164.81412    
      7200   8.8812406e-05  3.3239445e-05  3.3239445e-05  0              0              458.24934      917.34904     -0.85039772     0              32.512603      0              0              12.832002      12.843919      0.2            164.81319    
      7300   0.0001137108   3.4185475e-05  3.4185475e-05  0              0              465.13857      930.50944     -0.23232392     0              32.979079      0              0              12.831873      12.843954      0.2            164.81199    
      7400   9.2362612e-05  3.5148776e-05  3.5148776e-05  0              0              472.48392      943.92732      1.0404723      0              33.442426      0              0              12.831745      12.843984      0.2            164.81073    
      7500   9.4043512e-05  3.6125671e-05  3.6125671e-05  0              0              477.8764       956.40705     -0.65428745     0              33.946376      0              0              12.831617      12.844039      0.2            164.80979    
      7600   9.5196048e-05  3.7117604e-05  3.7117604e-05  0              0              484.50535      969.50013     -0.48948361     0              34.426783      0              0              12.831488      12.844078      0.2            164.80864    
      7700   0.00010156984  3.8117951e-05  3.8117951e-05  0              0              492.02394      982.97316      1.0746774      0              34.897238      0              0              12.83136       12.844105      0.2            164.80733    
      7800   9.1957177e-05  3.913274e-05   3.913274e-05   0              0              497.53202      995.4867      -0.42270355     0              35.357275      0              0              12.831231      12.844159      0.2            164.80637    
      7900   9.9492709e-05  4.0161596e-05  4.0161596e-05  0              0              503.83527      1008.3908     -0.72026915     0              35.83926       0              0              12.831103      12.844202      0.2            164.80528    
      8000   0.00010600475  4.1202909e-05  4.1202909e-05  0              0              511.48324      1021.935       1.0314742      0              36.318927      0              0              12.830974      12.844228      0.2            164.80396    
      8100   0.00011528017  4.2258943e-05  4.2258943e-05  0              0              517.20085      1034.5604     -0.15878355     0              36.793735      0              0              12.830846      12.844279      0.2            164.80297    
      8200   9.371014e-05   4.3325162e-05  4.3325162e-05  0              0              523.19434      1047.2889     -0.90025412     0              37.262515      0              0              12.830718      12.844327      0.2            164.80193    
      8300   0.00010003724  4.4406642e-05  4.4406642e-05  0              0              530.89466      1060.861       0.92830573     0              37.695233      0              0              12.830589      12.844352      0.2            164.8006     
      8400   0.00012756812  4.5503002e-05  4.5503002e-05  0              0              536.87067      1073.6146      0.1266765      0              38.157606      0              0              12.830461      12.844399      0.2            164.79956    
      8500   0.00010456072  4.6614138e-05  4.6614138e-05  0              0              542.62025      1086.2679     -1.0274972      0              38.615391      0              0              12.830332      12.84445       0.2            164.79856    
      8600   8.6866477e-05  4.7740103e-05  4.7740103e-05  0              0              550.30571      1099.8688      0.74254529     0              39.049962      0              0              12.830204      12.844476      0.2            164.79724    
      8700   9.8065663e-05  4.8878447e-05  4.8878447e-05  0              0              556.60953      1112.7964      0.42258757     0              39.530754      0              0              12.830076      12.844519      0.2            164.79615    
      8800   0.00011082809  5.003101e-05   5.003101e-05   0              0              562.13221      1125.3536     -1.0892473      0              40.008484      0              0              12.829947      12.844573      0.2            164.79519    
      8900   9.3281726e-05  5.1198369e-05  5.1198369e-05  0              0              569.71371      1138.9122      0.51515487     0              40.461356      0              0              12.829819      12.8446        0.2            164.79389    
      9000   9.3023039e-05  5.2380666e-05  5.2380666e-05  0              0              576.35084      1152.0301      0.67154427     0              40.938665      0              0              12.82969       12.844639      0.2            164.79274    
      9100   0.00010174359  5.3571763e-05  5.3571763e-05  0              0              581.69476      1164.4835     -1.0939713      0              41.429514      0              0              12.829562      12.844695      0.2            164.79181    
      9200   9.099816e-05   5.4777959e-05  5.4777959e-05  0              0              589.09876      1177.9436      0.25388812     0              41.872784      0              0              12.829434      12.844724      0.2            164.79053    
      9300   0.00011862889  5.5997059e-05  5.5997059e-05  0              0              596.04168      1191.1828      0.90051504     0              42.327547      0              0              12.829305      12.844759      0.2            164.78933    
      9400   0.00010125183  5.7231817e-05  5.7231817e-05  0              0              601.30374      1203.6239     -1.0164507      0              42.802026      0              0              12.829177      12.844816      0.2            164.78842    
      9500   9.3626577e-05  5.8483739e-05  5.8483739e-05  0              0              608.49199      1217.0251     -0.04114374     0              43.239308      0              0              12.829048      12.844848      0.2            164.78718    
      9600   0.00010290121  5.9747516e-05  5.9747516e-05  0              0              615.74571      1230.4448      1.0465489      0              43.716907      0              0              12.82892       12.84488       0.2            164.78594    
      9700   0.00011546927  6.1025267e-05  6.1025267e-05  0              0              621.04616      1242.9245     -0.83224063     0              44.218509      0              0              12.828792      12.844937      0.2            164.78502    
      9800   0.00010091644  6.2313196e-05  6.2313196e-05  0              0              627.8842       1256.1205     -0.35218816     0              44.710172      0              0              12.828663      12.844974      0.2            164.78384    
      9900   0.00010797468  6.3615024e-05  6.3615024e-05  0              0              635.38859      1269.6414      1.1357836      0              45.1957        0              0              12.828535      12.845001      0.2            164.78255    
     10000   0.00010583895  6.4928658e-05  6.4928658e-05  0              0              640.74263      1282.1108     -0.62559608     0              45.689631      0              0              12.828406      12.845057      0.2            164.78161    
     10100   8.1827747e-05  6.6254658e-05  6.6254658e-05  0              0              647.26974      1295.1386     -0.59915826     0              46.16053       0              0              12.828278      12.845097      0.2            164.78048    
     10200   0.0001109951   6.7595336e-05  6.7595336e-05  0              0              654.92618      1308.7216      1.1307075      0              46.614608      0              0              12.828149      12.845123      0.2            164.77916    
     10300   0.00011450987  6.8946051e-05  6.8946051e-05  0              0              660.45346      1321.2522     -0.3452823      0              47.088911      0              0              12.828021      12.845177      0.2            164.7782     
     10400   0.00011050568  7.0311331e-05  7.0311331e-05  0              0              666.63084      1334.1064     -0.84479024     0              47.559969      0              0              12.827893      12.845221      0.2            164.77712    
     10500   0.0001000368   7.1690355e-05  7.1690355e-05  0              0              674.38839      1347.7234      1.0533289      0              48.016713      0              0              12.827764      12.845245      0.2            164.77578    
     10600   0.00010372886  7.308129e-05   7.308129e-05   0              0              680.17219      1360.3798     -0.03543936     0              48.489306      0              0              12.827636      12.845295      0.2            164.77477    
     10700   0.00010175908  7.4488208e-05  7.4488208e-05  0              0              686.04289      1373.0938     -1.0080805      0              48.958719      0              0              12.827507      12.845345      0.2            164.77375    
     10800   0.00010190507  7.5909538e-05  7.5909538e-05  0              0              693.8189       1386.7354      0.90232037     0              49.387038      0              0              12.827379      12.845369      0.2            164.77242    
     10900   8.9518416e-05  7.7347348e-05  7.7347348e-05  0              0              699.91654      1399.5875      0.24555955     0              49.856818      0              0              12.827251      12.845416      0.2            164.77137    
     11000   0.00011286438  7.8799385e-05  7.8799385e-05  0              0              705.55308      1412.2217     -1.1155891      0              50.339835      0              0              12.827122      12.845469      0.2            164.7704     
     11100   0.0001064148   8.0258577e-05  8.0258577e-05  0              0              713.2556       1425.811       0.70013609     0              50.811918      0              0              12.826994      12.845493      0.2            164.76906    
     11200   0.00011644693  8.1729933e-05  8.1729933e-05  0              0              719.63083      1438.7508      0.51088183     0              51.306196      0              0              12.826865      12.845536      0.2            164.76796    
     11300   0.00010612246  8.3213589e-05  8.3213589e-05  0              0              725.03954      1451.2184     -1.1393682      0              51.788596      0              0              12.826737      12.84559       0.2            164.76701    
     11400   0.00010045449  8.4708274e-05  8.4708274e-05  0              0              732.56477      1464.6905      0.43901304     0              52.222398      0              0              12.826609      12.845618      0.2            164.76571    
     11500   9.7600834e-05  8.6220584e-05  8.6220584e-05  0              0              739.28761      1477.8034      0.77180999     0              52.653929      0              0              12.82648       12.845655      0.2            164.76454    
     11600   0.00010018534  8.774585e-05   8.774585e-05   0              0              744.56227      1490.2165     -1.0920297      0              53.115021      0              0              12.826352      12.845712      0.2            164.76362    
     11700   9.918048e-05   8.9285518e-05  8.9285518e-05  0              0              751.88272      1503.622       0.1433903      0              53.576468      0              0              12.826223      12.845743      0.2            164.76236    
     11800   9.4011331e-05  9.0843591e-05  9.0843591e-05  0              0              758.95528      1516.939       0.97153217     0              54.059115      0              0              12.826095      12.845777      0.2            164.76115    
     11900   0.00010137556  9.2413251e-05  9.2413251e-05  0              0              764.21243      1529.3663     -0.94143381     0              54.523098      0              0              12.825966      12.845834      0.2            164.76023    
     12000   0.00010986706  9.399432e-05   9.399432e-05   0              0              771.21836      1542.6261     -0.18944761     0              54.984944      0              0              12.825838      12.845868      0.2            164.75902    
     12100   0.00010210379  9.5590026e-05  9.5590026e-05  0              0              778.58343      1556.0678      1.0989971      0              55.463056      0              0              12.82571       12.845898      0.2            164.75775    
     12200   9.3393433e-05  9.7193984e-05  9.7193984e-05  0              0              783.87469      1568.4758     -0.72646939     0              55.963734      0              0              12.825581      12.845954      0.2            164.75682    
     12300   8.9941562e-05  9.8811649e-05  9.8811649e-05  0              0              790.53114      1581.5442     -0.48194966     0              56.42739       0              0              12.825453      12.845992      0.2            164.75567    
     12400   0.00011739411  0.00010044287  0.00010044287  0              0              798.09169      1595.0534      1.1299701      0              56.875691      0              0              12.825324      12.846019      0.2            164.75436    
     12500   0.00010855462  0.0001020878   0.0001020878   0              0              803.53759      1607.54       -0.46485598     0              57.356052      0              0              12.825196      12.846074      0.2            164.75341    
     12600   9.1861359e-05  0.0001037468   0.0001037468   0              0              809.85613      1620.4528     -0.74054685     0              57.81918       0              0              12.825068      12.846117      0.2            164.75232    
     12700   9.2848457e-05  0.00010542055  0.00010542055  0              0              817.57832      1634.051       1.1056334      0              58.245646      0              0              12.824939      12.846142      0.2            164.751      
     12800   9.5239889e-05  0.00010710697  0.00010710697  0              0              823.22965      1646.6461     -0.18689826     0              58.697686      0              0              12.824811      12.846195      0.2            164.75002    
     12900   0.00010722733  0.00010880378  0.00010880378  0              0              829.21723      1659.386      -0.95156156     0              59.156979      0              0              12.824682      12.846242      0.2            164.74898    
     13000   0.00010028216  0.00011051485  0.00011051485  0              0              836.98524      1672.9912      0.979275       0              59.592677      0              0              12.824554      12.846267      0.2            164.74764    
     13100   0.00010611694  0.0001122393   0.0001122393   0              0              842.92056      1685.7108      0.13032679     0              60.050175      0              0              12.824426      12.846314      0.2            164.7466     
     13200   0.00010006544  0.00011397349  0.00011397349  0              0              848.59881      1698.2865     -1.0889056      0              60.507961      0              0              12.824297      12.846365      0.2            164.74561    
     13300   0.00010315915  0.00011572102  0.00011572102  0              0              856.30638      1711.8423      0.77039184     0              60.964682      0              0              12.824169      12.84639       0.2            164.74428    
     13400   0.0001067094   0.00011748365  0.00011748365  0              0              862.56616      1724.7086      0.4236738      0              61.437981      0              0              12.82404       12.846434      0.2            164.74319    
     13500   0.00011567942  0.00011926295  0.00011926295  0              0              868.04604      1737.2164     -1.1243135      0              61.934678      0              0              12.823912      12.846488      0.2            164.74223    
     13600   0.00011099346  0.00012105961  0.00012105961  0              0              875.64544      1750.7709      0.51994704     0              62.401843      0              0              12.823783      12.846514      0.2            164.74092    
     13700   0.00011802798  0.00012286838  0.00012286838  0              0              882.26438      1763.8408      0.68790177     0              62.85578       0              0              12.823655      12.846553      0.2            164.73976    
     13800   9.9340356e-05  0.00012468957  0.00012468957  0              0              887.57331      1776.2723     -1.1257168      0              63.321126      0              0              12.823527      12.846609      0.2            164.73884    
     13900   9.6704737e-05  0.00012652323  0.00012652323  0              0              895.00197      1789.7266      0.27731986     0              63.771978      0              0              12.823398      12.846638      0.2            164.73756    
     14000   0.00010950301  0.00012837155  0.00012837155  0              0              901.91416      1802.9376      0.89068997     0              64.257769      0              0              12.82327       12.846674      0.2            164.73637    
     14100   0.00010070955  0.00013022943  0.00013022943  0              0              907.14161      1815.3155     -1.0322998      0              64.770096      0              0              12.823141      12.846731      0.2            164.73545    
     14200   0.00010933677  0.00013209865  0.00013209865  0              0              914.29408      1828.6129     -0.024763002    0              65.262847      0              0              12.823013      12.846763      0.2            164.73421    
     14300   9.7944361e-05  0.00013398217  0.00013398217  0              0              921.48934      1841.9306      1.0480049      0              65.742122      0              0              12.822885      12.846795      0.2            164.73297    
     14400   8.9713328e-05  0.00013588409  0.00013588409  0              0              926.74732      1854.3428     -0.84822263     0              66.224829      0              0              12.822756      12.846852      0.2            164.73205    
     14500   0.000106309    0.00013779846  0.00013779846  0              0              933.59305      1867.5166     -0.33057932     0              66.686152      0              0              12.822628      12.846889      0.2            164.73087    
     14600   9.7492667e-05  0.00013972269  0.00013972269  0              0              941.04343      1880.9631      1.1237557      0              67.121521      0              0              12.822499      12.846917      0.2            164.72959    
     14700   9.6932682e-05  0.00014166193  0.00014166193  0              0              946.3904       1893.403      -0.6222176      0              67.58915       0              0              12.822371      12.846973      0.2            164.72865    
     14800   0.00010829546  0.0001436175   0.0001436175   0              0              952.90684      1906.4237     -0.6100647      0              68.037085      0              0              12.822243      12.847014      0.2            164.72753    
     14900   0.00011506936  0.00014558199  0.00014558199  0              0              960.54672      1919.962       1.1313607      0              68.500792      0              0              12.822114      12.84704       0.2            164.72621    
     15000   0.00012421975  0.00014756081  0.00014756081  0              0              966.07362      1932.4871     -0.33995365     0              69.010869      0              0              12.821986      12.847093      0.2            164.72524    
     15100   9.2027933e-05  0.00014954935  0.00014954935  0              0              972.22818      1945.2928     -0.83650658     0              69.472561      0              0              12.821857      12.847138      0.2            164.72417    
     15200   0.00010696265  0.00015155191  0.00015155191  0              0              979.95238      1958.8625      1.0422551      0              69.890975      0              0              12.821729      12.847163      0.2            164.72284    
     15300   8.6569596e-05  0.0001535688   0.0001535688   0              0              985.72229      1971.4938     -0.049296965    0              70.338747      0              0              12.821601      12.847213      0.2            164.72183    
     15400   9.6562146e-05  0.00015560458  0.00015560458  0              0              991.61373      1984.2113     -0.98389919     0              70.807485      0              0              12.821472      12.847262      0.2            164.72081    
     15500   8.4712782e-05  0.00015765024  0.00015765024  0              0              999.34151      1997.7971      0.8858472      0              71.268254      0              0              12.821344      12.847287      0.2            164.71948    
     15600   0.00010767062  0.00015970585  0.00015970585  0              0              1005.3865      2010.5549      0.21804561     0              71.742617      0              0              12.821215      12.847334      0.2            164.71844    
     15700   0.00010584427  0.00016178109  0.00016178109  0              0              1011.0442      2023.1562     -1.0677672      0              72.225758      0              0              12.821087      12.847386      0.2            164.71745    
     15800   0.00010259635  0.00016387017  0.00016387017  0              0              1018.7033      2036.7246      0.68190378     0              72.710888      0              0              12.820958      12.847412      0.2            164.71614    
     15900   9.7060185e-05  0.00016597474  0.00016597474  0              0              1025.0724      2049.6796      0.46509371     0              73.193824      0              0              12.82083       12.847455      0.2            164.71504    
     16000   8.7974751e-05  0.00016809549  0.00016809549  0              0              1030.5829      2062.2329     -1.0671023      0              73.694611      0              0              12.820702      12.847509      0.2            164.71407    
     16100   0.00010779087  0.00017022087  0.00017022087  0              0              1038.0651      2075.6984      0.43174688     0              74.168836      0              0              12.820573      12.847537      0.2            164.71278    
     16200   9.4110676e-05  0.00017235534  0.00017235534  0              0              1044.7304      2088.7469      0.71375518     0              74.649749      0              0              12.820445      12.847575      0.2            164.71163    
     16300   0.00011241523  0.00017450679  0.00017450679  0              0              1050.0668      2101.1719     -1.0382544      0              75.156471      0              0              12.820316      12.847631      0.2            164.71069    
     16400   9.5107136e-05  0.00017667973  0.00017667973  0              0              1057.3768      2114.5876      0.16586967     0              75.605204      0              0              12.820188      12.847661      0.2            164.70943    
     16500   9.1296733e-05  0.00017886863  0.00017886863  0              0              1064.3823      2127.8645      0.90000704     0              76.062459      0              0              12.82006       12.847695      0.2            164.70822    
     16600   0.00010112054  0.00018106877  0.00018106877  0              0              1069.7032      2140.3219     -0.91552424     0              76.513868      0              0              12.819931      12.847752      0.2            164.70729    
     16700   0.00010551196  0.00018327589  0.00018327589  0              0              1076.7265      2153.571      -0.11810848     0              76.949606      0              0              12.819803      12.847786      0.2            164.70608    
     16800   0.00010974553  0.00018549582  0.00018549582  0              0              1083.9634      2166.9202      1.0066159      0              77.39779       0              0              12.819674      12.847817      0.2            164.70483    
     16900   0.00011280131  0.0001877255   0.0001877255   0              0              1089.3127      2179.3436     -0.71831377     0              77.851558      0              0              12.819546      12.847872      0.2            164.70389    
     17000   8.5247581e-05  0.00018997589  0.00018997589  0              0              1096.0324      2192.4583     -0.39356248     0              78.29212       0              0              12.819418      12.847911      0.2            164.70273    
     17100   9.9639329e-05  0.00019223979  0.00019223979  0              0              1103.4883      2205.9315      1.0451025      0              78.743526      0              0              12.819289      12.84794       0.2            164.70145    
     17200   0.00010063407  0.00019451041  0.00019451041  0              0              1108.9728      2218.4214     -0.47586849     0              79.2275        0              0              12.819161      12.847993      0.2            164.70049    
     17300   0.00010565122  0.00019679771  0.00019679771  0              0              1115.3594      2231.3621     -0.64339899     0              79.686891      0              0              12.819032      12.848036      0.2            164.69939    
     17400   0.00012481914  0.00019910529  0.00019910529  0              0              1122.9789      2244.9291      1.0286144      0              80.128901      0              0              12.818904      12.848063      0.2            164.69808    
     17500   0.00010517333  0.00020142604  0.00020142604  0              0              1128.6772      2257.5648     -0.21055938     0              80.588641      0              0              12.818775      12.848113      0.2            164.69708    
     17600   0.00010612785  0.00020376412  0.00020376412  0              0              1134.7719      2270.4071     -0.86337988     0              81.037093      0              0              12.818647      12.84816       0.2            164.69602    
     17700   0.00012385632  0.00020611482  0.00020611482  0              0              1142.4906      2284.0332      0.94788187     0              81.468416      0              0              12.818519      12.848185      0.2            164.69469    
     17800   0.00010153254  0.00020847129  0.00020847129  0              0              1148.4087      2296.7552      0.062156147    0              81.942562      0              0              12.81839       12.848233      0.2            164.69366    
     17900   9.6775425e-05  0.00021084398  0.00021084398  0              0              1154.2068      2309.4301     -1.0164404      0              82.426201      0              0              12.818262      12.848283      0.2            164.69265    
     18000   8.9346302e-05  0.00021322998  0.00021322998  0              0              1161.913       2323.0278      0.79822357     0              82.882408      0              0              12.818133      12.848308      0.2            164.69133    
     18100   9.0562921e-05  0.00021562704  0.00021562704  0              0              1168.1228      2335.8924      0.35317444     0              83.352007      0              0              12.818005      12.848353      0.2            164.69025    
     18200   9.4943996e-05  0.00021803497  0.00021803497  0              0              1173.6696      2348.4263     -1.0872029      0              83.823572      0              0              12.817877      12.848406      0.2            164.68928    
     18300   0.00012404996  0.00022045231  0.00022045231  0              0              1181.2316      2361.9194      0.54380904     0              84.286187      0              0              12.817748      12.848433      0.2            164.68797    
     18400   9.557504e-05   0.00022288577  0.00022288577  0              0              1187.7756      2374.9282      0.62282085     0              84.760317      0              0              12.81762       12.848472      0.2            164.68683    
     18500   8.992334e-05   0.00022533648  0.00022533648  0              0              1193.1603      2387.3932     -1.0725413      0              85.216565      0              0              12.817491      12.848528      0.2            164.6859     
     18600   9.6179392e-05  0.00022780516  0.00022780516  0              0              1200.5819      2400.8617      0.30210124     0              85.657356      0              0              12.817363      12.848557      0.2            164.68462    
     18700   0.00010834755  0.00023028282  0.00023028282  0              0              1207.4204      2414.0296      0.81117392     0              86.100113      0              0              12.817235      12.848593      0.2            164.68343    
     18800   0.00010079798  0.00023278059  0.00023278059  0              0              1212.747       2426.4952     -1.0012399      0              86.574856      0              0              12.817106      12.848649      0.2            164.6825     
     18900   0.00010816526  0.00023528688  0.00023528688  0              0              1219.9375      2439.843       0.031946614    0              87.037238      0              0              12.816978      12.848681      0.2            164.68126    
     19000   9.589906e-05   0.0002378007   0.0002378007   0              0              1227.0496      2453.1268      0.97240417     0              87.520704      0              0              12.816849      12.848714      0.2            164.68003    
     19100   0.00011317451  0.00024032935  0.00024032935  0              0              1232.3461      2465.5413     -0.84909247     0              88.023584      0              0              12.816721      12.848771      0.2            164.67911    
     19200   9.6901442e-05  0.00024287709  0.00024287709  0              0              1239.2507      2478.7518     -0.25049809     0              88.517097      0              0              12.816593      12.848806      0.2            164.67791    
     19300   0.00010191444  0.00024543827  0.00024543827  0              0              1246.6272      2492.1923      1.0619727      0              88.986898      0              0              12.816464      12.848836      0.2            164.67664    
     19400   0.0001211341   0.00024800788  0.00024800788  0              0              1251.9985      2504.6428     -0.64583922     0              89.470126      0              0              12.816336      12.848891      0.2            164.6757     
     19500   0.00010791986  0.00025059754  0.00025059754  0              0              1258.6042      2517.716      -0.50769909     0              89.928893      0              0              12.816207      12.84893       0.2            164.67456    
     19600   9.9861287e-05  0.00025319958  0.00025319958  0              0              1266.1572      2531.2426      1.0717317      0              90.380158      0              0              12.816079      12.848958      0.2            164.67326    
     19700   0.00010441798  0.00025580575  0.00025580575  0              0              1271.6805      2543.7551     -0.39414595     0              90.84928       0              0              12.81595       12.849012      0.2            164.6723     
     19800   0.00010891749  0.00025842765  0.00025842765  0              0              1277.9579      2556.6407     -0.72479603     0              91.315636      0              0              12.815822      12.849055      0.2            164.67121    
     19900   0.0001038688   0.00026107146  0.00026107146  0              0              1285.6085      2570.2184      0.99852861     0              91.758992      0              0              12.815694      12.849082      0.2            164.66989    
     20000   8.708999e-05   0.0002637275   0.0002637275   0              0              1291.3814      2582.8846     -0.12180757     0              92.222531      0              0              12.815565      12.849132      0.2            164.66889    
     20100   0.00011353479  0.000266396    0.000266396    0              0              1297.3987      2595.6676     -0.87020821     0              92.67487       0              0              12.815437      12.849179      0.2            164.66784    
     20200   0.00010832319  0.00026906956  0.00026906956  0              0              1305.0182      2609.1943      0.84211795     0              93.118939      0              0              12.815308      12.849206      0.2            164.66653    
     20300   9.7791788e-05  0.00027175758  0.00027175758  0              0              1311.051       2621.9541      0.14789071     0              93.585191      0              0              12.81518       12.849252      0.2            164.66548    
     20400   9.9624929e-05  0.00027445584  0.00027445584  0              0              1316.7899      2634.5633     -0.98355581     0              94.042893      0              0              12.815052      12.849303      0.2            164.66448    
     20500   0.00011938829  0.0002771633   0.0002771633   0              0              1324.3693      2648.0478      0.69075741     0              94.506602      0              0              12.814923      12.849329      0.2            164.66316    
     20600   0.00011130739  0.00027988775  0.00027988775  0              0              1330.6584      2660.9194      0.39745848     0              94.987421      0              0              12.814795      12.849372      0.2            164.66207    
     20700   0.0001024968   0.00028262949  0.00028262949  0              0              1336.2133      2673.4534     -1.0268458      0              95.467138      0              0              12.814666      12.849425      0.2            164.66109    
     20800   9.3482146e-05  0.00028538932  0.00028538932  0              0              1343.7126      2686.941       0.48420219     0              95.935847      0              0              12.814538      12.849453      0.2            164.6598     
     20900   0.0001061642   0.00028816496  0.00028816496  0              0              1350.3094      2700.0023      0.61654359     0              96.419496      0              0              12.81441       12.849492      0.2            164.65865    
     21000   9.9607554e-05  0.00029095139  0.00029095139  0              0              1355.7389      2712.4902     -1.0125399      0              96.930154      0              0              12.814281      12.849547      0.2            164.6577     
     21100   0.00012929783  0.0002937463   0.0002937463   0              0              1363.0625      2725.8745      0.25044663     0              97.398868      0              0              12.814153      12.849577      0.2            164.65644    
     21200   9.5000306e-05  0.00029656078  0.00029656078  0              0              1369.9404      2739.0655      0.81522789     0              97.873561      0              0              12.814024      12.849613      0.2            164.65526    
     21300   0.00010231624  0.0002993886   0.0002993886   0              0              1375.287       2751.5179     -0.94398831     0              98.342484      0              0              12.813896      12.849669      0.2            164.65432    
     21400   0.00010201757  0.00030222077  0.00030222077  0              0              1382.3713      2764.7782     -0.035586841    0              98.781945      0              0              12.813767      12.849702      0.2            164.6531     
     21500   0.00010109504  0.00030506674  0.00030506674  0              0              1389.5178      2778.0693      0.96617934     0              99.214163      0              0              12.813639      12.849734      0.2            164.65186    
     21600   0.0001409268   0.00030792183  0.00030792183  0              0              1394.8419      2790.4652     -0.78147516     0              99.65896       0              0              12.813511      12.84979       0.2            164.65092    
     21700   9.1885525e-05  0.00031079465  0.00031079465  0              0              1401.6422      2803.5889     -0.304542       0              100.11713      0              0              12.813382      12.849827      0.2            164.64974    
     21800   8.8057079e-05  0.00031368435  0.00031368435  0              0              1409.0179      2817.0025      1.0333568      0              100.55752      0              0              12.813254      12.849856      0.2            164.64847    
     21900   0.00013134962  0.00031658236  0.00031658236  0              0              1414.4546      2829.4657     -0.55640671     0              101.01022      0              0              12.813125      12.849911      0.2            164.64752    
     22000   0.0001116786   0.00031949121  0.00031949121  0              0              1420.9288      2842.4163     -0.55883829     0              101.45771      0              0              12.812997      12.849952      0.2            164.64639    
     22100   0.0001099121   0.00032240484  0.00032240484  0              0              1428.4299      2855.8378      1.0219636      0              101.91275      0              0              12.812869      12.849979      0.2            164.6451     
     22200   0.00010027392  0.00032533671  0.00032533671  0              0              1434.024       2868.3505     -0.30261275     0              102.4004       0              0              12.81274       12.850032      0.2            164.64412    
     22300   0.00011815387  0.0003282801   0.0003282801   0              0              1440.1903      2881.139      -0.75832423     0              102.89411      0              0              12.812612      12.850076      0.2            164.64304    
     22400   8.7152901e-05  0.00033124417  0.00033124417  0              0              1447.795       2894.6427      0.94725205     0              103.37743      0              0              12.812483      12.850103      0.2            164.64173    
     22500   0.00011311603  0.00033421984  0.00033421984  0              0              1453.6185      2907.283      -0.046107762    0              103.87474      0              0              12.812355      12.850153      0.2            164.64072    
     22600   9.924233e-05   0.00033719654  0.00033719654  0              0              1459.4866      2919.9016     -0.928341       0              104.36521      0              0              12.812227      12.850201      0.2            164.63969    
     22700   8.1670284e-05  0.00034020086  0.00034020086  0              0              1467.1366      2933.4284      0.84468802     0              104.81529      0              0              12.812098      12.850227      0.2            164.63837    
     22800   0.00011881147  0.00034321253  0.00034321253  0              0              1473.1966      2946.1724      0.2208065      0              105.27716      0              0              12.81197       12.850273      0.2            164.63731    
     22900   0.00010378391  0.00034624897  0.00034624897  0              0              1478.8592      2958.7543     -1.0358672      0              105.75682      0              0              12.811841      12.850325      0.2            164.63632    
     23000   0.00010146502  0.00034930419  0.00034930419  0              0              1486.4668      2972.298       0.63548994     0              106.19732      0              0              12.811713      12.850351      0.2            164.63501    
     23100   8.5589992e-05  0.00035237596  0.00035237596  0              0              1492.8859      2985.2748      0.49688878     0              106.64722      0              0              12.811585      12.850393      0.2            164.6339     
     23200   0.00010271742  0.00035546019  0.00035546019  0              0              1498.3816      2997.8045     -1.0413022      0              107.14706      0              0              12.811456      12.850447      0.2            164.63294    
     23300   0.00010960457  0.00035856919  0.00035856919  0              0              1505.8478      3011.3228      0.37278911     0              107.61363      0              0              12.811328      12.850475      0.2            164.63165    
     23400   9.527752e-05   0.00036168232  0.00036168232  0              0              1512.5907      3024.4585      0.72279678     0              108.05379      0              0              12.811199      12.850513      0.2            164.63048    
     23500   0.00011553999  0.00036480007  0.00036480007  0              0              1517.959       3036.905      -0.9870947      0              108.53391      0              0              12.811071      12.850568      0.2            164.62953    
     23600   9.9334387e-05  0.00036793541  0.00036793541  0              0              1525.1728      3050.2551      0.090504058    0              108.98678      0              0              12.810942      12.850599      0.2            164.62828    
     23700   0.00010446472  0.00037107733  0.00037107733  0              0              1532.2164      3063.5002      0.93251692     0              109.43533      0              0              12.810814      12.850632      0.2            164.62706    
     23800   0.00012042607  0.00037423636  0.00037423636  0              0              1537.5291      3075.9216     -0.86345657     0              109.91967      0              0              12.810686      12.850688      0.2            164.62612    
     23900   9.7018249e-05  0.0003774021   0.0003774021   0              0              1544.4496      3089.0987     -0.19953929     0              110.38046      0              0              12.810557      12.850723      0.2            164.62492    
     24000   9.0248688e-05  0.00038057958  0.00038057958  0              0              1551.7425      3102.4529      1.0319484      0              110.83628      0              0              12.810429      12.850753      0.2            164.62366    
     24100   0.00010819699  0.00038379054  0.00038379054  0              0              1557.1455      3114.9549     -0.66391555     0              111.32799      0              0              12.8103        12.850808      0.2            164.62271    
     24200   9.1414853e-05  0.00038701237  0.00038701237  0              0              1563.7903      3128.0482     -0.4675962      0              111.79519      0              0              12.810172      12.850847      0.2            164.62156    
     24300   8.9571635e-05  0.00039023787  0.00039023787  0              0              1571.2852      3141.5223      1.0479902      0              112.2561       0              0              12.810044      12.850875      0.2            164.62027    
     24400   9.0171773e-05  0.0003934761   0.0003934761   0              0              1576.812       3154.0418     -0.41777038     0              112.74818      0              0              12.809915      12.850929      0.2            164.61931    
     24500   8.4694617e-05  0.00039672801  0.00039672801  0              0              1583.1303      3166.9457     -0.68517152     0              113.20561      0              0              12.809787      12.850972      0.2            164.61822    
     24600   9.6459864e-05  0.00039999854  0.00039999854  0              0              1590.7366      3180.489       0.98423878     0              113.65064      0              0              12.809658      12.850999      0.2            164.61691    
     24700   9.2297687e-05  0.00040327154  0.00040327154  0              0              1596.4725      3193.0945     -0.14967091     0              114.1368       0              0              12.80953       12.851049      0.2            164.6159     
     24800   9.1935726e-05  0.00040655644  0.00040655644  0              0              1602.4775      3205.8255     -0.87060023     0              114.62469      0              0              12.809402      12.851097      0.2            164.61486    
     24900   0.00010587714  0.00040985862  0.00040985862  0              0              1610.112       3219.3565      0.86750117     0              115.09973      0              0              12.809273      12.851123      0.2            164.61355    
     25000   0.00011178036  0.0004131724   0.0004131724   0              0              1616.1286      3232.1012      0.15584723     0              115.59513      0              0              12.809145      12.85117       0.2            164.6125     
     25100   0.00010466552  0.0004165009   0.0004165009   0              0              1621.8516      3244.7029     -0.99979915     0              116.0726       0              0              12.809016      12.851221      0.2            164.6115     
     25200   9.8455429e-05  0.000419842    0.000419842    0              0              1629.4502      3258.2126      0.68782215     0              116.5197       0              0              12.808888      12.851247      0.2            164.61019    
     25300   0.00011355562  0.00042320233  0.00042320233  0              0              1635.7759      3271.1234      0.42832703     0              116.97813      0              0              12.808759      12.851291      0.2            164.60909    
     25400   0.00011207724  0.00042657267  0.00042657267  0              0              1641.2886      3283.6308     -1.0535047      0              117.45793      0              0              12.808631      12.851344      0.2            164.60813    
     25500   0.00010159133  0.00042995844  0.00042995844  0              0              1648.7686      3297.0958      0.44132125     0              117.88446      0              0              12.808503      12.851373      0.2            164.60684    
     25600   0.00010358198  0.00043335291  0.00043335291  0              0              1655.4208      3310.1461      0.69544637     0              118.34081      0              0              12.808374      12.851411      0.2            164.60569    
     25700   0.00011291167  0.00043675579  0.00043675579  0              0              1660.7577      3322.5466     -1.0312089      0              118.82295      0              0              12.808246      12.851467      0.2            164.60474    
     25800   0.00010653605  0.00044017557  0.00044017557  0              0              1668.0261      3335.8926      0.15958274     0              119.28093      0              0              12.808117      12.851497      0.2            164.60348    
     25900   9.7432811e-05  0.00044360043  0.00044360043  0              0              1674.97        3349.0565      0.88355671     0              119.73266      0              0              12.807989      12.851532      0.2            164.60227    
     26000   8.6887725e-05  0.0004470456   0.0004470456   0              0              1680.2733      3361.4459     -0.89935905     0              120.22362      0              0              12.807861      12.851587      0.2            164.60134    
     26100   9.198738e-05   0.00045050638  0.00045050638  0              0              1687.2642      3374.6609     -0.13243145     0              120.70808      0              0              12.807732      12.851621      0.2            164.60012    
     26200   0.00010459652  0.0004539733   0.0004539733   0              0              1694.4962      3387.9699      1.0223912      0              121.17678      0              0              12.807604      12.851652      0.2            164.59887    
     26300   0.00011138381  0.00045745277  0.00045745277  0              0              1699.819       3400.3552     -0.71729582     0              121.63609      0              0              12.807475      12.851707      0.2            164.59792    
     26400   0.00011412737  0.00046094447  0.00046094447  0              0              1706.4889      3413.3861     -0.40828379     0              122.09913      0              0              12.807347      12.851745      0.2            164.59676    
     26500   0.00010048515  0.00046445638  0.00046445638  0              0              1713.9518      3426.8211      1.082543       0              122.58304      0              0              12.807219      12.851774      0.2            164.59547    
     26600   9.4196418e-05  0.00046797947  0.00046797947  0              0              1719.389       3439.2714     -0.49347288     0              123.08991      0              0              12.80709       12.851828      0.2            164.59452    
     26700   0.00011398998  0.00047152101  0.00047152101  0              0              1725.7623      3452.1906     -0.66600207     0              123.54991      0              0              12.806962      12.851871      0.2            164.59342    
     26800   0.00011001317  0.00047507052  0.00047507052  0              0              1733.3804      3465.693       1.067814       0              124.00588      0              0              12.806833      12.851897      0.2            164.5921     
     26900   0.00011215743  0.00047863941  0.00047863941  0              0              1739.0113      3478.2517     -0.22911445     0              124.50476      0              0              12.806705      12.851949      0.2            164.59112    
     27000   9.9225065e-05  0.0004822236   0.0004822236   0              0              1745.0694      3491.0191     -0.88046777     0              124.99374      0              0              12.806577      12.851996      0.2            164.59007    
     27100   8.6724554e-05  0.00048581881  0.00048581881  0              0              1752.7774      3504.5829      0.9718016      0              125.45257      0              0              12.806448      12.852021      0.2            164.58874    
     27200   9.6993163e-05  0.0004894289   0.0004894289   0              0              1758.6665      3517.2685      0.0645165      0              125.9255       0              0              12.80632       12.85207       0.2            164.58772    
     27300   0.00010820791  0.00049305957  0.00049305957  0              0              1764.4522      3529.9247     -1.020256       0              126.40736      0              0              12.806191      12.85212       0.2            164.58671    
     27400   0.00010460506  0.00049669937  0.00049669937  0              0              1772.1457      3543.494       0.79733307     0              126.87091      0              0              12.806063      12.852145      0.2            164.58538    
     27500   0.00010520338  0.00050035683  0.00050035683  0              0              1778.3481      3556.3487      0.3474102      0              127.34868      0              0              12.805934      12.85219       0.2            164.58431    
     27600   9.364325e-05   0.00050402534  0.00050402534  0              0              1783.9224      3568.8953     -1.0504237      0              127.83745      0              0              12.805806      12.852243      0.2            164.58333    
     27700   9.5095336e-05  0.00050770314  0.00050770314  0              0              1791.4646      3582.3838      0.545381       0              128.28719      0              0              12.805678      12.85227       0.2            164.58203    
     27800   0.00010669202  0.00051139234  0.00051139234  0              0              1797.981       3595.3695      0.59255292     0              128.73129      0              0              12.805549      12.852311      0.2            164.5809     
     27900   9.0712875e-05  0.00051509407  0.00051509407  0              0              1803.3886      3607.8173     -1.0401643      0              129.18181      0              0              12.805421      12.852366      0.2            164.57996    
     28000   8.3978666e-05  0.00051881185  0.00051881185  0              0              1810.7458      3621.2145      0.2771343      0              129.63707      0              0              12.805292      12.852396      0.2            164.57869    
[...]
    992900   0.00072837532  0.59091144     0.59091144     0              0              57880.424      115749.9       10.94362       0              5349.6574      0              0              11.566261      13.248118      0.2            153.23119    
    993000   0.00077840321  0.59102383     0.59102383     0              0              57888.687      115761.87      15.506901      0              5350.2407      0              0              11.566132      13.248125      0.2            153.22957    
    993100   0.00076043484  0.59113633     0.59113633     0              0              57870.952      115760.37     -18.464527      0              5351.1254      0              0              11.566004      13.248421      0.2            153.23129    
    993200   0.00076092031  0.59124866     0.59124866     0              0              57884.16       115774.87     -6.5536112      0              5351.6388      0              0              11.565875      13.248373      0.2            153.22903    
    993300   0.00074020957  0.5913613      0.5913613      0              0              57908.375      115795.09      21.658624      0              5352.0157      0              0              11.565747      13.248202      0.2            153.22535    
    993400   0.00075515803  0.5914737      0.5914737      0              0              57896.279      115796.51     -3.953254       0              5352.7853      0              0              11.565619      13.248436      0.2            153.22636    
    993500   0.00070407492  0.59158638     0.59158638     0              0              57890.84       115801.4      -19.716001      0              5353.4967      0              0              11.56549       13.248595      0.2            153.2265     
    993600   0.00071095241  0.59169957     0.59169957     0              0              57918.457      115823.42      13.496648      0              5353.8515      0              0              11.565362      13.248387      0.2            153.22239    
    993700   0.00070871344  0.59181257     0.59181257     0              0              57923.431      115833.71      13.153132      0              5354.4539      0              0              11.565233      13.24843       0.2            153.22119    
    993800   0.00067378986  0.59192558     0.59192558     0              0              57906.375      115832.6      -19.851176      0              5355.3258      0              0              11.565105      13.248719      0.2            153.22283    
    993900   0.00068215113  0.59203872     0.59203872     0              0              57922.594      115848.72     -3.5321636      0              5355.8277      0              0              11.564977      13.248637      0.2            153.22018    
    994000   0.00069257882  0.59215174     0.59215174     0              0              57944.719      115867.89      21.547297      0              5356.2561      0              0              11.564848      13.24849       0.2            153.21677    
    994100   0.0006996563   0.5922649      0.5922649      0              0              57930.752      115868.39     -6.8874245      0              5357.0643      0              0              11.56472       13.248745      0.2            153.21802    
    994200   0.00070856251  0.592378       0.592378       0              0              57928.346      115874.87     -18.172829      0              5357.7692      0              0              11.564591      13.248871      0.2            153.21778    
    994300   0.00077270074  0.59249072     0.59249072     0              0              57956.373      115897.06      15.683005      0              5358.1322      0              0              11.564463      13.248657      0.2            153.21361    
    994400   0.00069338876  0.59260355     0.59260355     0              0              57958.111      115905.65      10.573939      0              5358.7795      0              0              11.564334      13.248737      0.2            153.21283    
    994500   0.00074511443  0.59271663     0.59271663     0              0              57942.159      115905.11     -20.790714      0              5359.6325      0              0              11.564206      13.249014      0.2            153.21433    
    994600   0.00076009961  0.59282934     0.59282934     0              0              57961.03       115922.55     -0.49517807     0              5360.0988      0              0              11.564078      13.248903      0.2            153.21134    
    994700   0.00068423046  0.59294225     0.59294225     0              0              57980.724      115940.44      21.012884      0              5360.5617      0              0              11.563949      13.248782      0.2            153.20825    
    994800   0.00067699228  0.59305546     0.59305546     0              0              57965.222      115940.13     -9.6862593      0              5361.4274      0              0              11.563821      13.249055      0.2            153.2097     
    994900   0.00074777561  0.59316841     0.59316841     0              0              57965.951      115948.21     -16.310119      0              5362.1021      0              0              11.563692      13.249146      0.2            153.20905    
    995000   0.00080861073  0.59328099     0.59328099     0              0              57993.997      115970.4       17.593732      0              5362.4605      0              0              11.563564      13.248933      0.2            153.20488    
    995100   0.00075962566  0.59339357     0.59339357     0              0              57992.531      115977.31      7.7511833      0              5363.119       0              0              11.563436      13.249048      0.2            153.20451    
    995200   0.00073679489  0.59350628     0.59350628     0              0              57978.097      115977.52     -21.330233      0              5363.9425      0              0              11.563307      13.249308      0.2            153.20582    
    995300   0.00068394181  0.59361907     0.59361907     0              0              57999.395      115996.23      2.5630201      0              5364.3901      0              0              11.563179      13.24917       0.2            153.20252    
    995400   0.00071280759  0.5937324      0.5937324      0              0              58016.399      116012.76      20.037033      0              5364.8579      0              0              11.56305       13.249079      0.2            153.19977    
    995500   0.00069439411  0.59384549     0.59384549     0              0              57999.819      116011.89     -12.254602      0              5365.6765      0              0              11.562922      13.249363      0.2            153.20135    
    995600   0.0007467263   0.59395847     0.59395847     0              0              58003.772      116021.64     -14.093722      0              5366.3022      0              0              11.562794      13.249418      0.2            153.20028    
    995700   0.00069193497  0.59407129     0.59407129     0              0              58031.314      116043.57      19.056012      0              5366.6591      0              0              11.562665      13.24921       0.2            153.19617    
    995800   0.00069288754  0.59418431     0.59418431     0              0              58026.929      116049         4.8553975      0              5367.382       0              0              11.562537      13.249358      0.2            153.19619    
    995900   0.00069515344  0.59429774     0.59429774     0              0              58014.427      116050.26     -21.401911      0              5368.1849      0              0              11.562408      13.249597      0.2            153.19725    
    996000   0.00067998992  0.59441102     0.59441102     0              0              58037.773      116070.05      5.4941153      0              5368.5854      0              0              11.56228       13.249436      0.2            153.19368    
    996100   0.00074258441  0.59452405     0.59452405     0              0              58051.885      116085.06      18.713841      0              5369.0899      0              0              11.562152      13.249377      0.2            153.19131    
    996200   0.00071095939  0.59463699     0.59463699     0              0              58034.622      116083.81     -14.567773      0              5369.9269      0              0              11.562023      13.249669      0.2            153.19298    
    996300   0.00077124148  0.59475012     0.59475012     0              0              58041.801      116095.24     -11.633734      0              5370.4898      0              0              11.561895      13.249688      0.2            153.19149    
    996400   0.00073206302  0.59486292     0.59486292     0              0              58068.437      116116.69      20.18141       0              5370.844       0              0              11.561766      13.24949       0.2            153.18751    
    996500   0.00071395948  0.59497601     0.59497601     0              0              58061.287      116120.69      1.8806305      0              5371.607       0              0              11.561638      13.249669      0.2            153.18787    
    996600   0.00071106609  0.59508909     0.59508909     0              0              58050.989      116123.06     -21.086405      0              5372.416       0              0              11.561509      13.249882      0.2            153.18864    
    996700   0.00077889105  0.5952021      0.5952021      0              0              58076.016      116143.72      8.3143838      0              5372.8563      0              0              11.561381      13.249702      0.2            153.18486    
    996800   0.00075552764  0.595315       0.595315       0              0              58087.088      116157.13      17.050653      0              5373.4543      0              0              11.561253      13.249678      0.2            153.18287    
    996900   0.00068381683  0.59542828     0.59542828     0              0              58069.632      116155.8      -16.531358      0              5374.3275      0              0              11.561124      13.249971      0.2            153.18456    
    997000   0.00063737035  0.5955417      0.5955417      0              0              58079.894      116168.82     -9.0356959      0              5374.891       0              0              11.560996      13.249956      0.2            153.18269    
    997100   0.00064611129  0.59565566     0.59565566     0              0              58105.317      116189.74      20.895772      0              5375.2841      0              0              11.560867      13.249772      0.2            153.17886    
    997200   0.00070280018  0.595769       0.595769       0              0              58095.702      116192.47     -1.0709956      0              5376.0667      0              0              11.560739      13.249979      0.2            153.17954    
    997300   0.00069591604  0.59588228     0.59588228     0              0              58087.896      116196.14     -20.351907      0              5376.8288      0              0              11.560611      13.250165      0.2            153.17999    
    997400   0.0007674134   0.59599532     0.59599532     0              0              58114.154      116217.42      10.888069      0              5377.2161      0              0              11.560482      13.249971      0.2            153.17606    
    997500   0.00071295459  0.59610857     0.59610857     0              0              58122.175      116229.27      15.083177      0              5377.7846      0              0              11.560354      13.249981      0.2            153.17447    
    997600   0.00068229355  0.59622207     0.59622207     0              0              58104.944      116228.06     -18.17409       0              5378.6478      0              0              11.560225      13.250273      0.2            153.17614    
    997700   0.00072640555  0.59633546     0.59633546     0              0              58118.183      116242.63     -6.2645138      0              5379.1757      0              0              11.560097      13.250224      0.2            153.17388    
    997800   0.00072479738  0.59644892     0.59644892     0              0              58141.873      116262.6       21.145619      0              5379.6319      0              0              11.559969      13.25006       0.2            153.17027    
    997900   0.00070153537  0.59656242     0.59656242     0              0              58130.14       116264.24     -3.9649314      0              5380.4725      0              0              11.55984       13.250289      0.2            153.17123    
    998000   0.00071589198  0.59667575     0.59667575     0              0              58125.051      116269.31     -19.205988      0              5381.2288      0              0              11.559712      13.250445      0.2            153.17133    
    998100   0.00075768109  0.59678888     0.59678888     0              0              58152.116      116291         13.229562      0              5381.6045      0              0              11.559583      13.250243      0.2            153.16729    
    998200   0.00070606073  0.59690205     0.59690205     0              0              58156.999      116301.21      12.788085      0              5382.2564      0              0              11.559455      13.250288      0.2            153.1661     
    998300   0.00074980824  0.59701543     0.59701543     0              0              58140.484      116300.37     -19.402336      0              5383.1514      0              0              11.559326      13.250571      0.2            153.16768    
    998400   0.00069806744  0.59712894     0.59712894     0              0              58156.473      116316.36     -3.4091534      0              5383.6702      0              0              11.559198      13.250492      0.2            153.16506    
    998500   0.00064279312  0.59724278     0.59724278     0              0              58178.177      116335.31      21.038999      0              5384.1265      0              0              11.55907       13.250349      0.2            153.16171    
    998600   0.00071124209  0.59735633     0.59735633     0              0              58164.637      116336.02     -6.744505       0              5384.9403      0              0              11.558941      13.2506        0.2            153.1629     
    998700   0.0006948312   0.5974699      0.5974699      0              0              58162.412      116342.58     -17.754299      0              5385.6135      0              0              11.558813      13.250724      0.2            153.16264    
    998800   0.00065827656  0.59758358     0.59758358     0              0              58189.911      116364.52      15.296984      0              5385.9429      0              0              11.558684      13.250517      0.2            153.15854    
    998900   0.00061345519  0.59769753     0.59769753     0              0              58191.799      116373.24      10.358751      0              5386.5591      0              0              11.558556      13.250595      0.2            153.15774    
    999000   0.0006899728   0.59781152     0.59781152     0              0              58176.362      116373        -20.276284      0              5387.3596      0              0              11.558428      13.250866      0.2            153.15917    
    999100   0.00068126804  0.59792512     0.59792512     0              0              58194.872      116390.29     -0.54639356     0              5387.799       0              0              11.558299      13.250758      0.2            153.15623    
    999200   0.00077879935  0.5980387      0.5980387      0              0              58214.285      116408.05      20.520675      0              5388.2267      0              0              11.558171      13.250641      0.2            153.15318    
    999300   0.00078822875  0.59815187     0.59815187     0              0              58199.323      116407.98     -9.3358134      0              5389.0235      0              0              11.558042      13.250907      0.2            153.15455    
    999400   0.0007474842   0.59826502     0.59826502     0              0              58200.009      116416.02     -16.002496      0              5389.655       0              0              11.557914      13.250998      0.2            153.1539     
    999500   0.0007168565   0.59837844     0.59837844     0              0              58227.492      116437.95      17.039063      0              5390.0046      0              0              11.557786      13.250791      0.2            153.14981    
    999600   0.00072397971  0.59849193     0.59849193     0              0              58226.433      116445.1       7.7606913      0              5390.6683      0              0              11.557657      13.250902      0.2            153.14938    
    999700   0.00066173544  0.59860581     0.59860581     0              0              58212.388      116445.55     -20.772934      0              5391.4767      0              0              11.557529      13.251158      0.2            153.15064    
    999800   0.00071751674  0.59871934     0.59871934     0              0              58233.131      116463.99      2.2730752      0              5391.9349      0              0              11.5574        13.251026      0.2            153.14741    
    999900   0.0007580372   0.59883277     0.59883277     0              0              58250.044      116480.43      19.654043      0              5392.4231      0              0              11.557272      13.250937      0.2            153.14468    
   1000000   0.00076590711  0.59894616     0.59894616     0              0              58234.046      116479.85     -11.755311      0              5393.2606      0              0              11.557144      13.251214      0.2            153.14618    
   1000100   0.00074989583  0.5990592      0.5990592      0              0              58237.729      116489.42     -13.958691      0              5393.8789      0              0              11.557015      13.251271      0.2            153.14514    
   1000163   0.00079243091  0.59913054     0.59913054     0              0              58255.959      116503.68      8.2342374      0              5394.0962      0              0              11.556934      13.251131      0.2            153.14244    
Loop time of 68.3759 on 6 procs for 1000000 steps with 97 atoms

Performance: 12636.039 ns/day, 0.002 hours/ns, 14625.045 timesteps/s
97.5% CPU use with 6 MPI tasks x 1 OpenMP threads

MPI task timing breakdown:
Section |  min time  |  avg time  |  max time  |%varavg| %total
---------------------------------------------------------------
Pair    | 0          | 0          | 0          |   0.0 |  0.00
Bond    | 1.4214     | 2.2281     | 2.7263     |  26.9 |  3.26
Neigh   | 0          | 0          | 0          |   0.0 |  0.00
Comm    | 42.641     | 43.194     | 43.973     |   6.2 | 63.17
Output  | 0.47949    | 0.54038    | 0.83944    |  18.2 |  0.79
Modify  | 18.73      | 19.069     | 19.604     |   6.5 | 27.89
Other   |            | 3.344      |            |       |  4.89

Nlocal:        16.1667 ave          18 max          11 min
Histogram: 1 0 0 0 0 0 0 1 2 2
Nghost:        363.167 ave         370 max         356 min
Histogram: 2 0 0 1 0 0 0 1 1 1
Neighs:              0 ave           0 max           0 min
Histogram: 6 0 0 0 0 0 0 0 0 0

Total # of neighbors = 0
Ave neighs/atom = 0
Ave special neighs/atom = 21.010309
Neighbor list builds = 0
Dangerous builds = 0
Total wall time: 0:01:08
