LAMMPS data file.

     97 atoms
    201 bonds
      0 angles
      0 dihedrals
      0 impropers
      1 atom types
    201 bond types
      0 angle types
      0 dihedral types
      0 improper types
  -6.420519   6.420519 xlo xhi
  -6.420519   6.420519 ylo yhi
  -0.100000   0.100000 zlo zhi

Masses # ['atom_id', 'mass']

1 1000000000.0

Atoms # ['atomID', 'moleculeID', 'atomType', 'charge', 'x', 'y', 'z']

     15      1      1   0.000000  -5.601861  -5.363072   0.000000
     47      1      1   0.000000  -3.442606  -5.437675   0.000000
    114      1      1   0.000000   2.031265  -5.670454   0.000000
    108      1      1   0.000000   2.923131  -6.020899   0.000000
    119      1      1   0.000000   3.648004  -5.542859   0.000000
     27      1      1   0.000000   4.800071  -5.533139   0.000000
     93      1      1   0.000000  -4.506949  -5.019364   0.000000
     72      1      1   0.000000  -3.883696  -4.312728   0.000000
     45      1      1   0.000000  -2.655050  -4.389860   0.000000
     40      1      1   0.000000   1.641346  -4.630441   0.000000
     63      1      1   0.000000   2.809438  -4.991399   0.000000
     64      1      1   0.000000   3.837531  -4.425369   0.000000
    104      1      1   0.000000   4.822352  -4.425447   0.000000
      7      1      1   0.000000   6.038582  -4.612609   0.000000
     52      1      1   0.000000   6.340748  -3.286944   0.000000
     48      1      1   0.000000  -5.144619  -4.051470   0.000000
     79      1      1   0.000000  -2.759386  -3.260029   0.000000
     49      1      1   0.000000  -1.380177  -4.108897   0.000000
     76      1      1   0.000000  -0.241927  -4.241158   0.000000
     70      1      1   0.000000   0.737709  -3.911380   0.000000
      4      1      1   0.000000   2.801437  -3.663044   0.000000
     39      1      1   0.000000   4.211655  -3.181591   0.000000
    109      1      1   0.000000   5.256231  -3.600861   0.000000
     41      1      1   0.000000  -5.217565  -2.779606   0.000000
     58      1      1   0.000000  -3.973443  -3.331316   0.000000
    101      1      1   0.000000  -3.341788  -2.375290   0.000000
     91      1      1   0.000000  -2.391339  -2.244053   0.000000
    103      1      1   0.000000  -1.775973  -3.148373   0.000000
     46      1      1   0.000000  -0.455937  -3.071758   0.000000
     19      1      1   0.000000   0.847656  -2.653265   0.000000
    107      1      1   0.000000   1.705695  -3.499362   0.000000
     89      1      1   0.000000   2.118207  -2.458162   0.000000
     67      1      1   0.000000   3.149027  -2.452333   0.000000
     18      1      1   0.000000   5.302044  -2.309556   0.000000
     24      1      1   0.000000  -5.176776  -1.343441   0.000000
    115      1      1   0.000000  -4.352455  -2.352991   0.000000
     50      1      1   0.000000  -3.791215  -1.401334   0.000000
     42      1      1   0.000000  -2.627901  -1.172809   0.000000
     51      1      1   0.000000  -1.326842  -2.106088   0.000000
      9      1      1   0.000000  -0.024188  -1.527557   0.000000
      8      1      1   0.000000   2.949822  -1.142663   0.000000
     85      1      1   0.000000   4.074396  -1.923514   0.000000
    116      1      1   0.000000  -4.376947  -0.486055   0.000000
     73      1      1   0.000000  -3.531243  -0.277038   0.000000
     16      1      1   0.000000  -1.332682  -0.800308   0.000000
     96      1      1   0.000000   0.738666  -0.496282   0.000000
    110      1      1   0.000000   3.800495  -0.341446   0.000000
     54      1      1   0.000000   4.671769  -0.924584   0.000000
    105      1      1   0.000000   4.858436   0.073011   0.000000
     55      1      1   0.000000  -5.863784   1.268509   0.000000
     20      1      1   0.000000  -4.892042   0.422498   0.000000
     29      1      1   0.000000  -3.473625   1.105752   0.000000
     32      1      1   0.000000  -2.398863   0.172004   0.000000
     95      1      1   0.000000  -1.296240   0.342944   0.000000
     86      1      1   0.000000  -0.206442  -0.218980   0.000000
     61      1      1   0.000000   0.558446   0.517561   0.000000
     11      1      1   0.000000   1.869376  -0.010534   0.000000
    117      1      1   0.000000   3.058562   0.136582   0.000000
      2      1      1   0.000000   4.043442   0.858613   0.000000
     36      1      1   0.000000   5.784209   0.803145   0.000000
    112      1      1   0.000000  -4.720438   1.561297   0.000000
      3      1      1   0.000000  -1.857962   1.522780   0.000000
     66      1      1   0.000000  -0.480253   0.967437   0.000000
     34      1      1   0.000000   0.439431   1.695864   0.000000
     99      1      1   0.000000   1.410263   1.164816   0.000000
     57      1      1   0.000000   1.636519   2.359798   0.000000
     23      1      1   0.000000   2.642584   1.312944   0.000000
     78      1      1   0.000000   4.911831   1.687229   0.000000
     84      1      1   0.000000   5.974484   1.975613   0.000000
      5      1      1   0.000000  -5.403035   2.539721   0.000000
    102      1      1   0.000000  -4.166554   2.409333   0.000000
     44      1      1   0.000000  -3.078589   2.291887   0.000000
     38      1      1   0.000000  -1.945987   2.895863   0.000000
     81      1      1   0.000000   0.511557   2.909814   0.000000
     82      1      1   0.000000   2.660997   2.977989   0.000000
     13      1      1   0.000000   3.798447   2.435097   0.000000
     83      1      1   0.000000   5.123540   2.737250   0.000000
     80      1      1   0.000000   6.198365   2.977919   0.000000
    118      1      1   0.000000  -4.342911   3.267170   0.000000
     25      1      1   0.000000  -3.201996   3.805674   0.000000
     43      1      1   0.000000  -1.920900   4.176488   0.000000
     59      1      1   0.000000  -0.725942   3.479855   0.000000
     17      1      1   0.000000   0.375102   4.254794   0.000000
     87      1      1   0.000000   1.532180   3.525038   0.000000
    113      1      1   0.000000   2.548559   4.061431   0.000000
     37      1      1   0.000000   3.564862   3.838303   0.000000
     65      1      1   0.000000   4.642743   3.521445   0.000000
     35      1      1   0.000000   5.519873   4.021941   0.000000
     75      1      1   0.000000  -2.802521   4.962949   0.000000
     92      1      1   0.000000  -0.910961   4.613615   0.000000
     69      1      1   0.000000   1.710740   4.678510   0.000000
     68      1      1   0.000000   3.025771   4.944655   0.000000
      1      1      1   0.000000   4.393306   4.823705   0.000000
     26      1      1   0.000000  -4.488327  -6.282164   0.000000
     30      1      1   0.000000  -1.603726   5.622264   0.000000
     21      1      1   0.000000   0.831578   5.722429   0.000000
     28      1      1   0.000000   2.165038   5.945739   0.000000

Bond Coeffs # ['bondID', 'bondCoeff', 'd']

      1   0.529024   1.374872
      2   0.816642   1.106583
      3   1.317691   0.871151
      4   0.629515   1.260367
      5   0.947126   1.027534
      6   0.757780   1.148758
      7   0.702616   1.193002
      8   0.948102   1.027005
      9   0.749845   1.154820
     10   0.842823   1.089261
     11   0.761629   1.145851
     12   0.908454   1.049176
     13   0.992751   1.003644
     14   0.932144   1.035759
     15   0.630263   1.259618
     16   0.676125   1.216148
     17   1.086277   0.959466
     18   0.547168   1.351884
     19   0.992244   1.003901
     20   0.698462   1.196544
     21   0.639808   1.250188
     22   0.648237   1.242033
     23   0.446220   1.497013
     24   0.494181   1.422515
     25   0.551798   1.346201
     26   0.819242   1.104826
     27   1.326326   0.868310
     28   0.673890   1.218164
     29   0.738162   1.163922
     30   0.626983   1.262909
     31   0.784486   1.129035
     32   0.926560   1.038875
     33   0.711478   1.185548
     34   0.873720   1.069828
     35   0.676189   1.216090
     36   0.519985   1.386770
     37   0.667172   1.224281
     38   0.423312   1.536985
     39   0.573713   1.320239
     40   0.591368   1.300383
     41   0.667871   1.223640
     42   0.606954   1.283578
     43   0.521229   1.385115
     44   0.541369   1.359106
     45   0.980534   1.009878
     46   0.546581   1.352611
     47   0.493259   1.423844
     48   0.492221   1.425344
     49   0.540923   1.359667
     50   0.719346   1.179047
     51   0.450347   1.490138
     52   0.764638   1.143595
     53   0.536857   1.364805
     54   0.830892   1.097053
     55   0.528265   1.375859
     56   0.730635   1.169902
     57   0.586477   1.305793
     58   0.480433   1.442725
     59   0.824812   1.101089
     60   0.734009   1.167211
     61   0.814679   1.107916
     62   0.603811   1.286914
     63   0.717894   1.180239
     64   0.941067   1.030836
     65   0.761553   1.145908
     66   0.688652   1.205036
     67   1.283739   0.882595
     68   0.903542   1.052024
     69   0.856409   1.080586
     70   0.602049   1.288796
     71   1.126407   0.942220
     72   0.659839   1.231065
     73   0.550555   1.347719
     74   0.732282   1.168587
     75   0.512980   1.396207
     76   0.707566   1.188822
     77   0.605193   1.285444
     78   0.780406   1.131983
     79   0.753972   1.151655
     80   1.151818   0.931769
     81   0.935943   1.033654
     82   0.480277   1.442959
     83   0.667038   1.224404
     84   0.660303   1.230632
     85   0.792250   1.123489
     86   0.649116   1.241192
     87   1.029630   0.985506
     88   0.642215   1.247842
     89   1.089043   0.958247
     90   1.020856   0.989732
     91   0.616158   1.273954
     92   0.750960   1.153962
     93   0.539891   1.360965
     94   0.867914   1.073400
     95   0.518304   1.389017
     96   0.716447   1.181430
     97   0.810594   1.110704
     98   0.937498   1.032796
     99   0.624376   1.265543
    100   0.403430   1.574402
    101   1.303807   0.875777
    102   0.607728   1.282760
    103   0.533479   1.369120
    104   0.553497   1.344133
    105   0.604945   1.285707
    106   0.825724   1.100481
    107   0.684900   1.208332
    108   0.642316   1.247745
    109   0.534368   1.367981
    110   0.523018   1.382744
    111   0.555886   1.341242
    112   0.886881   1.061860
    113   0.776352   1.134934
    114   0.491596   1.426251
    115   0.776757   1.134638
    116   0.484441   1.436744
    117   0.970836   1.014909
    118   0.534243   1.368140
    119   0.923654   1.040508
    120   0.604365   1.286324
    121   0.606689   1.283858
    122   0.766756   1.142014
    123   0.592784   1.298828
    124   0.425632   1.532790
    125   0.814702   1.107900
    126   0.547051   1.352029
    127   0.726024   1.173612
    128   0.824287   1.101440
    129   0.628269   1.261616
    130   0.646878   1.243337
    131   0.617882   1.272176
    132   0.569827   1.324733
    133   0.712981   1.184298
    134   0.461080   1.472692
    135   0.727359   1.172534
    136   0.789311   1.125579
    137   0.670548   1.221195
    138   0.602404   1.288416
    139   0.880313   1.065814
    140   0.835099   1.094286
    141   1.031062   0.984822
    142   0.493340   1.423727
    143   0.764320   1.143832
    144   0.780467   1.131938
    145   0.546965   1.352135
    146   0.669018   1.222591
    147   0.582017   1.310787
    148   0.562206   1.333682
    149   0.598957   1.292118
    150   1.030795   0.984949
    151   0.572873   1.321207
    152   0.637732   1.252220
    153   0.744357   1.159069
    154   0.694106   1.200293
    155   0.518168   1.389200
    156   0.869131   1.072648
    157   0.566703   1.328379
    158   0.923594   1.040542
    159   0.891302   1.059223
    160   0.660395   1.230546
    161   0.474367   1.451920
    162   0.551624   1.346413
    163   0.916764   1.044411
    164   0.759320   1.147592
    165   0.530566   1.372873
    166   0.753380   1.152108
    167   0.456440   1.480158
    168   0.522076   1.383990
    169   0.943079   1.029736
    170   0.603071   1.287704
    171   0.611357   1.278948
    172   0.472329   1.455049
    173   1.181855   0.919852
    174   0.660226   1.230705
    175   0.603377   1.287376
    176   0.696473   1.198251
    177   0.779131   1.132908
    178   0.628048   1.261838
    179   0.909778   1.048413
    180   0.726519   1.173212
    181   0.708775   1.187807
    182   0.392877   1.595408
    183   0.533505   1.369086
    184   0.479688   1.443845
    185   0.528233   1.375901
    186   0.803215   1.115794
    187   0.622526   1.267422
    188   0.846872   1.086654
    189   0.586771   1.305466
    190   0.645022   1.245124
    191   0.626956   1.262937
    192   1.074788   0.964581
    193   0.533667   1.368878
    194   0.522678   1.383193
    195   0.871561   1.071152
    196   0.568796   1.325934
    197   0.408317   1.564953
    198   0.704140   1.191709
    199   0.419941   1.543141
    200   0.537351   1.364177
    201   0.609522   1.280871

Bonds # ['ID', 'type', 'atom1', 'atom2']

         1         1        48        58
         2         2        34        99
         3         3       116        73
         4         4        82        13
         5         5        95        66
         6         6        59        92
         7         7       112         5
         8         8        84        80
         9         9        40        70
        10        10        82       113
        11        11        58       101
        12        12        58       115
        13        13       119        63
        14        14       108        63
        15        15         4        67
        16        16        79        58
        17        17       101        91
        18        18        81        17
        19        19       113        68
        20        20        57        82
        21        21        29        44
        22        22        36        78
        23        23         9        16
        24        24        13        37
        25        25        69        28
        26        26       115        50
        27        27       108       119
        28        28        73        32
        29        29        85        54
        30        30        70        19
        31        31        52       109
        32        32        49       103
        33        33        50        42
        34        34        61        99
        35        35        34        81
        36        36        24        50
        37        37        25        75
        38        38        17        21
        39        39        68        28
        40        40        46        51
        41        41        92        30
        42        42        44        38
        43        43         4        89
        44        44        13        83
        45        45        65        35
        46        46        38        59
        47        47        19         9
        48        48        51         9
        49        49         7        52
        50        50       105        36
        51        51         4        39
        52        52        47        93
        53        53        69        21
        54        54        91        42
        55        55        13        65
        56        56        57        87
        57        57        51        16
        58        58         3        44
        59        59        78        84
        60        60        87        69
        61        61        27       104
        62        62        18        85
        63        63        55       112
        64        64        89        67
        65        65        49        76
        66        66        19       107
        67        67       110       117
        68        68        70       107
        69        69        79        91
        70        70        39        67
        71        71        93        72
        72        72        72        45
        73        73        42        16
        74        74         8       110
        75        75        39        18
        76        76        76        46
        77        77        19        89
        78        78       105         2
        79        79        20       112
        80        80       104       109
        81        81        76        70
        82        82        16        32
        83        83       110         2
        84        84        96        11
        85        85        37        65
        86        86        99        23
        87        87        72        58
        88        88        82        37
        89        89       114       108
        90        90        79       103
        91        91        48        41
        92        92        50        73
        93        93        41        58
        94        94        91        51
        95        95        15        48
        96        96        43        75
        97        97       114        40
        98        98       114        63
        99        99        39        85
       100       100        20        29
       101       101       102       118
       102       102         9        96
       103       103        46        19
       104       104        47        26
       105       105         5       118
       106       106        43        92
       107       107        47        72
       108       108       117        23
       109       109        17        87
       110       110        35         1
       111       111        78        13
       112       112        86        61
       113       113       103        51
       114       114        52        18
       115       115        45        79
       116       116        41        24
       117       117        54       105
       118       118        75        30
       119       119       113        37
       120       120        64         4
       121       121         8       117
       122       122        84        83
       123       123        64        39
       124       124        11        23
       125       125         4       107
       126       126        21        28
       127       127        63        64
       128       128        83        80
       129       129       118        25
       130       130         5       102
       131       131        42        73
       132       132        67         8
       133       133        61        34
       134       134         2        23
       135       135        24       116
       136       136        39       109
       137       137       117         2
       138       138        55        20
       139       139        67        85
       140       140       102        44
       141       141        64       104
       142       142        29        32
       143       143        16        95
       144       144        61        66
       145       145        55         5
       146       146        40        63
       147       147        47        45
       148       148        25        43
       149       149       109        18
       150       150        96        86
       151       151         9        86
       152       152        57        81
       153       153        93        48
       154       154         2        78
       155       155        49        46
       156       156       101        50
       157       157        63         4
       158       158       113        69
       159       159        79       101
       160       160       104         7
       161       161        57        23
       162       162        59        17
       163       163       116        20
       164       164        15        93
       165       165        68         1
       166       166       119        27
       167       167        43        30
       168       168        73        29
       169       169        96        61
       170       170        72        48
       171       171         7       109
       172       172        32         3
       173       173        83        65
       174       174        37        68
       175       175        37         1
       176       176        11       117
       177       177        40       107
       178       178        11        99
       179       179       110        54
       180       180        66        34
       181       181        36        84
       182       182         2        13
       183       183         8        85
       184       184        15        26
       185       185         3        38
       186       186        32        95
       187       187        16        86
       188       188        50       116
       189       189        45        49
       190       190        80        35
       191       191        93        26
       192       192        41       115
       193       193        34        57
       194       194        43        59
       195       195        78        83
       196       196        65         1
       197       197         8        11
       198       198        81        87
       199       199        27         7
       200       200        42        32
       201       201        38        43
