ITEM: TIMESTEP
500
ITEM: NUMBER OF ATOMS
70
ITEM: BOX BOUNDS pp pp pp
-4.8270603707552144e+00 4.8270603707552144e+00
-4.8270873661485068e+00 4.8270873661485068e+00
-1.0000000000000001e-01 1.0000000000000001e-01
ITEM: ATOMS id type xs ys zs
48 1 0.0760679 0.0542395 0.500009
62 1 0.994331 0.0611662 0.50052
26 1 0.233942 0.0884556 0.499643
56 1 0.339481 0.0907101 0.500221
7 1 0.450329 0.0412047 0.50019
1 1 0.688067 0.0136697 0.49981
77 1 0.793664 0.0886531 0.499739
50 1 0.724204 0.134511 0.500103
80 1 0.851174 0.0703614 0.499963
52 1 0.936711 0.0512763 0.500063
17 1 0.106069 0.153842 0.500304
58 1 0.217663 0.216119 0.50012
65 1 0.406028 0.133902 0.500349
24 1 0.310895 0.18825 0.500393
72 1 0.520171 0.170339 0.499908
36 1 0.609616 0.133952 0.499798
32 1 0.83873 0.157529 0.500276
53 1 0.973867 0.138612 0.500035
57 1 0.19451 0.331512 0.499891
44 1 0.275725 0.286674 0.499745
51 1 0.365681 0.285945 0.500154
23 1 0.432115 0.209163 0.499519
28 1 0.569282 0.246247 0.50012
5 1 0.720779 0.248535 0.500148
61 1 0.84731 0.258329 0.500112
67 1 0.831567 0.322344 0.499767
74 1 0.913206 0.223015 0.500089
60 1 0.916669 0.307207 0.499617
35 1 0.0116578 0.246301 0.500209
9 1 0.0905938 0.369926 0.49938
55 1 0.202841 0.418824 0.499788
20 1 0.316147 0.402439 0.500275
6 1 0.477788 0.354615 0.500423
29 1 0.637714 0.350361 0.499458
37 1 0.754325 0.375333 0.499624
34 1 0.878097 0.414639 0.500417
47 1 0.986788 0.46128 0.500179
33 1 0.101808 0.498396 0.499905
14 1 0.234182 0.543794 0.500032
12 1 0.40036 0.547309 0.500031
54 1 0.496137 0.471204 0.500016
40 1 0.603923 0.489151 0.49998
31 1 0.734538 0.474809 0.499823
21 1 0.831963 0.527124 0.499931
78 1 0.924685 0.50493 0.499828
42 1 0.175605 0.656928 0.499884
2 1 0.536633 0.621947 0.500522
8 1 0.693397 0.609623 0.49968
22 1 0.0187801 0.570235 0.500077
30 1 0.056992 0.682395 0.500312
46 1 0.151107 0.756431 0.500077
15 1 0.265968 0.724479 0.499476
38 1 0.406178 0.688103 0.499468
45 1 0.710818 0.732101 0.499413
19 1 0.834983 0.727906 0.500722
76 1 0.969559 0.660517 0.499864
59 1 0.957241 0.7348 0.500092
13 1 0.0499988 0.83245 0.500315
49 1 0.183607 0.838 0.500057
43 1 0.276599 0.847095 0.500386
4 1 0.505007 0.776295 0.499847
18 1 0.724378 0.855983 0.500006
16 1 0.904445 0.853961 0.50035
25 1 0.0169418 0.967836 0.499651
3 1 0.15569 0.949546 0.500152
11 1 0.308694 0.97084 0.499837
27 1 0.42469 0.901111 0.499976
10 1 0.576369 0.904969 0.499759
39 1 0.824764 0.964195 0.499637
71 1 0.922324 0.966886 0.50014
ITEM: TIMESTEP
750
ITEM: NUMBER OF ATOMS
70
ITEM: BOX BOUNDS pp pp pp
-4.8258535827335534e+00 4.8258535827335534e+00
-4.8282618638518899e+00 4.8282618638518899e+00
-1.0000000000000001e-01 1.0000000000000001e-01
ITEM: ATOMS id type xs ys zs
48 1 0.0755353 0.0547895 0.50037
62 1 0.994006 0.0615642 0.500995
26 1 0.233081 0.0887395 0.501579
56 1 0.338894 0.0910516 0.500165
7 1 0.45014 0.041347 0.49994
1 1 0.687817 0.0138027 0.499696
77 1 0.792974 0.088846 0.498678
50 1 0.723728 0.134699 0.501834
80 1 0.850688 0.0705325 0.49992
52 1 0.936318 0.0513603 0.499117
17 1 0.106001 0.154073 0.500208
58 1 0.217451 0.217025 0.497616
65 1 0.40549 0.134557 0.501913
24 1 0.310807 0.18855 0.50106
72 1 0.52027 0.170664 0.502634
36 1 0.609097 0.134238 0.501174
32 1 0.838078 0.157619 0.499934
53 1 0.973764 0.138717 0.499406
57 1 0.195044 0.332277 0.49937
44 1 0.276279 0.286733 0.500087
51 1 0.365857 0.28608 0.500642
23 1 0.432493 0.209574 0.500075
28 1 0.569426 0.246315 0.499553
5 1 0.720464 0.248606 0.501626
61 1 0.846572 0.258381 0.49998
67 1 0.832184 0.322782 0.499523
74 1 0.913277 0.222718 0.498449
60 1 0.916634 0.306747 0.498991
35 1 0.0117116 0.24604 0.498418
9 1 0.0909227 0.369959 0.500793
55 1 0.203098 0.419767 0.501143
20 1 0.315824 0.402181 0.501653
6 1 0.476945 0.3546 0.500468
29 1 0.63762 0.35013 0.499158
37 1 0.754785 0.375366 0.50029
34 1 0.878856 0.414583 0.50018
47 1 0.987585 0.461201 0.498306
33 1 0.10172 0.498525 0.500278
14 1 0.234165 0.544747 0.50111
12 1 0.40032 0.54756 0.500618
54 1 0.496048 0.471011 0.498462
40 1 0.603749 0.489086 0.500127
31 1 0.734531 0.47529 0.500929
21 1 0.832076 0.527326 0.50113
78 1 0.925371 0.504904 0.498473
42 1 0.175918 0.65805 0.501092
2 1 0.536461 0.62212 0.501182
8 1 0.693349 0.609982 0.498442
22 1 0.0187373 0.570526 0.500752
30 1 0.0574403 0.682322 0.500374
46 1 0.151988 0.757665 0.500342
15 1 0.266587 0.72527 0.498618
38 1 0.406128 0.688246 0.499931
45 1 0.711472 0.73217 0.499401
19 1 0.83503 0.728099 0.500278
76 1 0.969935 0.660475 0.499259
59 1 0.95802 0.735024 0.498446
13 1 0.0507237 0.832526 0.498903
49 1 0.184089 0.839274 0.501633
43 1 0.276513 0.848145 0.498985
4 1 0.504935 0.776794 0.50055
18 1 0.725357 0.855599 0.502003
16 1 0.905331 0.854503 0.500686
25 1 0.0170369 0.968237 0.501233
3 1 0.15602 0.951114 0.501331
11 1 0.308867 0.971276 0.500296
27 1 0.424605 0.901551 0.499704
10 1 0.57672 0.904979 0.49938
39 1 0.824792 0.964651 0.500102
71 1 0.922589 0.966534 0.499426
ITEM: TIMESTEP
1000
ITEM: NUMBER OF ATOMS
70
ITEM: BOX BOUNDS pp pp pp
-4.8246467947118923e+00 4.8246467947118923e+00
-4.8306891501528124e+00 4.8306891501528124e+00
-1.0000000000000001e-01 1.0000000000000001e-01
ITEM: ATOMS id type xs ys zs
48 1 0.0765047 0.054575 0.501452
62 1 0.995084 0.0617174 0.501524
26 1 0.234019 0.0881968 0.499588
56 1 0.33948 0.0913648 0.501518
7 1 0.450651 0.0422655 0.499021
1 1 0.688331 0.0145465 0.499874
77 1 0.79372 0.0890358 0.497341
50 1 0.72457 0.135583 0.503604
80 1 0.851139 0.0701016 0.500354
52 1 0.937156 0.0521102 0.498694
17 1 0.105986 0.154594 0.499463
58 1 0.217277 0.217082 0.496048
65 1 0.406153 0.13405 0.503481
24 1 0.310203 0.188459 0.50063
72 1 0.520086 0.171114 0.503798
36 1 0.609949 0.135135 0.500997
32 1 0.839014 0.157679 0.501222
53 1 0.97402 0.139432 0.499271
57 1 0.195164 0.332168 0.498996
44 1 0.276006 0.286971 0.499168
51 1 0.366072 0.286067 0.501927
23 1 0.431631 0.209107 0.502783
28 1 0.569472 0.247141 0.499049
5 1 0.72137 0.249343 0.502235
61 1 0.845553 0.25865 0.498479
67 1 0.831049 0.323018 0.499662
74 1 0.914011 0.222289 0.498691
60 1 0.916009 0.306609 0.499985
35 1 0.011967 0.247261 0.501068
9 1 0.0912879 0.369815 0.499991
55 1 0.203118 0.419389 0.500457
20 1 0.317389 0.403023 0.502215
6 1 0.477996 0.354809 0.50016
29 1 0.638309 0.350693 0.499847
37 1 0.753991 0.376581 0.499971
34 1 0.878892 0.41447 0.501547
47 1 0.988677 0.460921 0.497426
33 1 0.100643 0.497723 0.500963
14 1 0.23317 0.544233 0.49844
12 1 0.400598 0.547079 0.501761
54 1 0.496195 0.471536 0.498578
40 1 0.604626 0.489555 0.501185
31 1 0.735546 0.47607 0.499883
21 1 0.833539 0.526337 0.50298
78 1 0.926193 0.50389 0.498818
42 1 0.176561 0.658074 0.50133
2 1 0.536798 0.62159 0.500711
8 1 0.693914 0.609624 0.496715
22 1 0.0177568 0.570429 0.501183
30 1 0.0572585 0.682231 0.499761
46 1 0.15242 0.757558 0.499199
15 1 0.267555 0.725138 0.499372
38 1 0.406829 0.687632 0.499875
45 1 0.710889 0.732176 0.498262
19 1 0.835277 0.729448 0.499439
76 1 0.969601 0.660626 0.500457
59 1 0.957427 0.734797 0.498946
13 1 0.0509359 0.832433 0.497904
49 1 0.185129 0.838759 0.501044
43 1 0.278053 0.847552 0.497707
4 1 0.505007 0.776534 0.501184
18 1 0.725091 0.85608 0.502195
16 1 0.905542 0.854508 0.500141
25 1 0.0175499 0.968192 0.503056
3 1 0.15654 0.950024 0.501452
11 1 0.309564 0.971305 0.502838
27 1 0.426423 0.902383 0.499587
10 1 0.57738 0.905021 0.499958
39 1 0.824915 0.964775 0.498445
71 1 0.922204 0.96765 0.500281
ITEM: TIMESTEP
1250
ITEM: NUMBER OF ATOMS
70
ITEM: BOX BOUNDS pp pp pp
-4.8234400066902312e+00 4.8234400066902312e+00
-4.8251095520691889e+00 4.8251095520691889e+00
-1.0000000000000001e-01 1.0000000000000001e-01
ITEM: ATOMS id type xs ys zs
48 1 0.0767753 0.0547138 0.500321
62 1 0.995014 0.0615209 0.502384
26 1 0.23391 0.0886614 0.49918
56 1 0.339744 0.0912057 0.501409
7 1 0.451258 0.0420404 0.500254
1 1 0.688647 0.0142275 0.49931
77 1 0.794042 0.0889782 0.498944
50 1 0.724696 0.134893 0.504557
80 1 0.851227 0.0696415 0.499325
52 1 0.93728 0.0520413 0.498378
17 1 0.106243 0.15424 0.498379
58 1 0.217929 0.216679 0.494761
65 1 0.406136 0.134301 0.501223
24 1 0.311499 0.188571 0.500529
72 1 0.520092 0.170398 0.50265
36 1 0.609883 0.135126 0.500414
32 1 0.839558 0.157101 0.50012
53 1 0.973987 0.139255 0.500604
57 1 0.19483 0.331465 0.496729
44 1 0.276527 0.287179 0.499094
51 1 0.366043 0.286317 0.499746
23 1 0.432609 0.209504 0.501362
28 1 0.567973 0.24704 0.50025
5 1 0.721918 0.24881 0.50231
61 1 0.844924 0.258427 0.49585
67 1 0.831693 0.323139 0.499629
74 1 0.914673 0.221669 0.498042
60 1 0.916142 0.305839 0.501864
35 1 0.0123524 0.24654 0.500805
9 1 0.0912399 0.370446 0.499704
55 1 0.203939 0.418654 0.500642
20 1 0.316808 0.402993 0.502458
6 1 0.477154 0.355751 0.501695
29 1 0.638354 0.350085 0.501158
37 1 0.754822 0.375841 0.501303
34 1 0.879026 0.414448 0.499332
47 1 0.98799 0.460327 0.497905
33 1 0.101349 0.499355 0.500606
14 1 0.234319 0.543433 0.497345
12 1 0.400783 0.547913 0.500637
54 1 0.496486 0.472004 0.498421
40 1 0.604408 0.488754 0.499563
31 1 0.735817 0.475948 0.499689
21 1 0.834202 0.527537 0.504626
78 1 0.926403 0.504719 0.499735
42 1 0.17697 0.657197 0.501582
2 1 0.537452 0.621477 0.501649
8 1 0.69357 0.609692 0.495543
22 1 0.0178064 0.570299 0.50238
30 1 0.0570203 0.681852 0.499158
46 1 0.151894 0.756619 0.499472
15 1 0.266694 0.724845 0.499751
38 1 0.408062 0.688862 0.502165
45 1 0.711131 0.732199 0.49857
19 1 0.835367 0.727782 0.501259
76 1 0.969161 0.660745 0.501016
59 1 0.958257 0.735281 0.498843
13 1 0.0502952 0.831682 0.498612
49 1 0.1846 0.838261 0.499697
43 1 0.278041 0.848057 0.497998
4 1 0.506321 0.776709 0.501087
18 1 0.724321 0.855794 0.502878
16 1 0.905012 0.854401 0.500282
25 1 0.0177401 0.968049 0.502546
3 1 0.156555 0.949783 0.502344
11 1 0.309228 0.971448 0.502186
27 1 0.426048 0.901654 0.499268
10 1 0.576415 0.905887 0.500249
39 1 0.825205 0.964242 0.49784
71 1 0.9225 0.967727 0.499959
ITEM: TIMESTEP
1500
ITEM: NUMBER OF ATOMS
70
ITEM: BOX BOUNDS pp pp pp
-4.8222332186685701e+00 4.8222332186685701e+00
-4.8292083062035465e+00 4.8292083062035465e+00
-1.0000000000000001e-01 1.0000000000000001e-01
ITEM: ATOMS id type xs ys zs
48 1 0.0762328 0.0537894 0.501509
62 1 0.994259 0.0605924 0.503396
26 1 0.234462 0.0888289 0.498918
56 1 0.339244 0.0916355 0.501085
7 1 0.451213 0.0419827 0.500024
1 1 0.68883 0.0139262 0.498341
77 1 0.793432 0.0886722 0.499587
50 1 0.724385 0.135378 0.5057
80 1 0.850794 0.0694801 0.500975
52 1 0.936524 0.0502349 0.49771
17 1 0.106578 0.153585 0.4986
58 1 0.217471 0.216373 0.494701
65 1 0.406694 0.134048 0.502022
24 1 0.310758 0.188952 0.501394
72 1 0.520009 0.169979 0.502536
36 1 0.609963 0.134017 0.500697
32 1 0.839117 0.157247 0.503193
53 1 0.974178 0.137883 0.49983
57 1 0.19398 0.331708 0.496832
44 1 0.27582 0.286746 0.498457
51 1 0.365879 0.286416 0.498452
23 1 0.43218 0.20927 0.501728
28 1 0.569519 0.246401 0.502866
5 1 0.721956 0.249399 0.505433
61 1 0.84592 0.258383 0.494061
67 1 0.830589 0.322534 0.49897
74 1 0.913604 0.222229 0.498081
60 1 0.915956 0.30593 0.50172
35 1 0.0116324 0.246168 0.500809
9 1 0.0900461 0.370602 0.498295
55 1 0.202992 0.419242 0.501021
20 1 0.315989 0.402441 0.503262
6 1 0.478306 0.354859 0.503259
29 1 0.637716 0.350723 0.499953
37 1 0.754312 0.376633 0.501942
34 1 0.879029 0.413718 0.501051
47 1 0.989244 0.459922 0.498862
33 1 0.101355 0.499319 0.499098
14 1 0.234484 0.543959 0.499041
12 1 0.401362 0.549213 0.501376
54 1 0.49533 0.471628 0.496831
40 1 0.603973 0.489839 0.500748
31 1 0.734923 0.476164 0.499689
21 1 0.834088 0.526478 0.504053
78 1 0.926645 0.503152 0.499975
42 1 0.176737 0.6567 0.499582
2 1 0.538206 0.622967 0.502678
8 1 0.694767 0.610375 0.496533
22 1 0.0170353 0.569977 0.502151
30 1 0.057331 0.682153 0.497365
46 1 0.151854 0.756559 0.499237
15 1 0.2666 0.724491 0.500082
38 1 0.407241 0.689193 0.501129
45 1 0.711167 0.73301 0.500277
19 1 0.835744 0.726106 0.500362
76 1 0.969607 0.661575 0.501297
59 1 0.958297 0.735926 0.498277
13 1 0.0503059 0.832554 0.49987
49 1 0.183864 0.838254 0.499044
43 1 0.277139 0.847518 0.499324
4 1 0.505982 0.776852 0.502512
18 1 0.72402 0.856831 0.503057
16 1 0.904476 0.853909 0.500372
25 1 0.0177573 0.967317 0.502477
3 1 0.156146 0.949552 0.502137
11 1 0.309173 0.972032 0.502715
27 1 0.425157 0.901762 0.499519
10 1 0.576196 0.905979 0.500373
39 1 0.825211 0.964762 0.497119
71 1 0.922897 0.966099 0.499219
ITEM: TIMESTEP
1750
ITEM: NUMBER OF ATOMS
70
ITEM: BOX BOUNDS pp pp pp
-4.8210264306469091e+00 4.8210264306469091e+00
-4.8310930205108589e+00 4.8310930205108589e+00
-1.0000000000000001e-01 1.0000000000000001e-01
ITEM: ATOMS id type xs ys zs
48 1 0.0763629 0.0539118 0.500947
62 1 0.994588 0.0611935 0.505416
26 1 0.234143 0.0890562 0.499062
56 1 0.339814 0.0913404 0.500298
7 1 0.451091 0.0414898 0.502227
1 1 0.688673 0.0147645 0.499896
77 1 0.793303 0.088741 0.500628
50 1 0.724264 0.135394 0.507783
80 1 0.850922 0.0698273 0.50145
52 1 0.936811 0.0508128 0.498955
17 1 0.105976 0.153224 0.499478
58 1 0.217682 0.216427 0.495632
65 1 0.406706 0.134224 0.50199
24 1 0.310881 0.18867 0.501782
72 1 0.520426 0.170509 0.50444
36 1 0.610034 0.134539 0.500213
32 1 0.838802 0.156912 0.503636
53 1 0.973462 0.138322 0.501224
57 1 0.193763 0.331305 0.495936
44 1 0.275683 0.287278 0.500119
51 1 0.365394 0.286835 0.498117
23 1 0.432395 0.209772 0.501124
28 1 0.569397 0.246651 0.503374
5 1 0.722447 0.249869 0.504378
61 1 0.845749 0.258329 0.49183
67 1 0.831089 0.322819 0.499214
74 1 0.912651 0.222848 0.496963
60 1 0.916202 0.306693 0.501592
35 1 0.0112597 0.24569 0.501418
9 1 0.0900208 0.369012 0.4977
55 1 0.202897 0.418606 0.502152
20 1 0.316345 0.402543 0.504105
6 1 0.477433 0.354718 0.501218
29 1 0.638907 0.350431 0.499366
37 1 0.754583 0.377243 0.501684
34 1 0.87879 0.414288 0.502074
47 1 0.98815 0.459914 0.497397
33 1 0.100441 0.497611 0.500472
14 1 0.233431 0.543884 0.497573
12 1 0.401309 0.548031 0.502767
54 1 0.496383 0.470969 0.496199
40 1 0.603909 0.490464 0.499853
31 1 0.734812 0.476206 0.499593
21 1 0.833503 0.526543 0.504962
78 1 0.9265 0.504203 0.500124
42 1 0.177018 0.658019 0.497206
2 1 0.536938 0.623197 0.50267
8 1 0.693789 0.610738 0.495971
22 1 0.0173899 0.569684 0.503854
30 1 0.0568678 0.681832 0.498923
46 1 0.151809 0.756908 0.500097
15 1 0.266558 0.725845 0.50039
38 1 0.406771 0.689539 0.500422
45 1 0.710728 0.733017 0.500163
19 1 0.835521 0.726761 0.501555
76 1 0.969369 0.660609 0.501
59 1 0.957677 0.734982 0.49947
13 1 0.049777 0.832152 0.499605
49 1 0.183886 0.838296 0.499622
43 1 0.276971 0.848462 0.498435
4 1 0.505847 0.777811 0.503918
18 1 0.723804 0.856923 0.502372
16 1 0.904027 0.853703 0.500142
25 1 0.0174864 0.967896 0.503439
3 1 0.156216 0.949744 0.500135
11 1 0.308929 0.971679 0.502366
27 1 0.425072 0.901897 0.499004
10 1 0.576356 0.906633 0.499773
39 1 0.825535 0.964231 0.499333
71 1 0.923004 0.966402 0.499988
ITEM: TIMESTEP
2000
ITEM: NUMBER OF ATOMS
70
ITEM: BOX BOUNDS pp pp pp
-4.8198196426252471e+00 4.8198196426252471e+00
-4.8378297677086675e+00 4.8378297677086675e+00
-1.0000000000000001e-01 1.0000000000000001e-01
ITEM: ATOMS id type xs ys zs
48 1 0.0766497 0.0539335 0.501991
62 1 0.994806 0.0609373 0.505998
26 1 0.234131 0.0893806 0.499648
56 1 0.340048 0.0913931 0.500784
7 1 0.45094 0.0422249 0.503362
1 1 0.687643 0.0145269 0.498275
77 1 0.793431 0.088975 0.499828
50 1 0.724089 0.134918 0.50908
80 1 0.851158 0.0703617 0.499921
52 1 0.937042 0.0511011 0.498488
17 1 0.105501 0.15379 0.497954
58 1 0.217765 0.215906 0.494691
65 1 0.406635 0.134731 0.501329
24 1 0.311519 0.188617 0.500447
72 1 0.521187 0.171608 0.506183
36 1 0.610096 0.134556 0.49889
32 1 0.838998 0.157165 0.503544
53 1 0.975161 0.138289 0.502392
57 1 0.193309 0.331163 0.496635
44 1 0.275823 0.286622 0.500262
51 1 0.365946 0.286674 0.497063
23 1 0.433063 0.209904 0.499647
28 1 0.570773 0.246767 0.503987
5 1 0.721841 0.249103 0.503306
61 1 0.845317 0.258094 0.490915
67 1 0.830911 0.32264 0.49905
74 1 0.913196 0.222525 0.496306
60 1 0.915693 0.306211 0.501861
35 1 0.0112707 0.246381 0.501995
9 1 0.0892315 0.369942 0.497551
55 1 0.201774 0.418043 0.500916
20 1 0.315464 0.402793 0.502891
6 1 0.478522 0.353855 0.500312
29 1 0.638407 0.350658 0.500578
37 1 0.754088 0.376404 0.50217
34 1 0.87872 0.413988 0.503179
47 1 0.987953 0.461222 0.497081
33 1 0.099998 0.49853 0.500251
14 1 0.23265 0.542959 0.499602
12 1 0.402642 0.548143 0.503104
54 1 0.496628 0.469939 0.495319
40 1 0.603492 0.491191 0.500427
31 1 0.733999 0.475569 0.498944
21 1 0.832544 0.526297 0.503588
78 1 0.925004 0.504145 0.498647
42 1 0.17724 0.657276 0.497435
2 1 0.538451 0.624204 0.502011
8 1 0.695082 0.610503 0.496049
22 1 0.0176071 0.570559 0.502383
30 1 0.0568447 0.682178 0.499715
46 1 0.152489 0.756631 0.500039
15 1 0.267235 0.725814 0.501261
38 1 0.406942 0.68898 0.500602
45 1 0.71096 0.73248 0.499769
19 1 0.835548 0.72803 0.502472
76 1 0.969147 0.660969 0.500617
59 1 0.957646 0.735573 0.499788
13 1 0.0507091 0.832506 0.4992
49 1 0.184698 0.837681 0.499857
43 1 0.277769 0.848253 0.498307
4 1 0.505488 0.777804 0.504688
18 1 0.722521 0.856027 0.501078
16 1 0.905175 0.854561 0.498831
25 1 0.0173698 0.96756 0.503069
3 1 0.15617 0.949004 0.50022
11 1 0.309039 0.971639 0.501697
27 1 0.425656 0.902407 0.499094
10 1 0.575528 0.906796 0.498547
39 1 0.824182 0.963593 0.500145
71 1 0.922193 0.967196 0.499071
ITEM: TIMESTEP
2250
ITEM: NUMBER OF ATOMS
70
ITEM: BOX BOUNDS pp pp pp
-4.8186128546035860e+00 4.8186128546035860e+00
-4.8358222529556301e+00 4.8358222529556301e+00
-1.0000000000000001e-01 1.0000000000000001e-01
ITEM: ATOMS id type xs ys zs
48 1 0.0763247 0.0538883 0.50105
62 1 0.994872 0.0608667 0.504892
26 1 0.234358 0.0891245 0.498595
56 1 0.340248 0.0919401 0.501053
7 1 0.451607 0.042552 0.502493
1 1 0.68843 0.0138637 0.497635
77 1 0.793127 0.0883817 0.498746
50 1 0.723521 0.134372 0.509613
80 1 0.851105 0.0704625 0.498052
52 1 0.936723 0.0510956 0.498857
17 1 0.105694 0.15325 0.497245
58 1 0.217496 0.215833 0.495236
65 1 0.406876 0.135473 0.502825
24 1 0.311333 0.189186 0.4992
72 1 0.520218 0.171453 0.506188
36 1 0.609122 0.133588 0.498664
32 1 0.838488 0.157131 0.50171
53 1 0.974411 0.138333 0.502837
57 1 0.194011 0.330948 0.495005
44 1 0.275281 0.287186 0.499831
51 1 0.365507 0.287083 0.494106
23 1 0.432433 0.210641 0.497795
28 1 0.570636 0.246456 0.50383
5 1 0.720798 0.248569 0.504464
61 1 0.846061 0.257827 0.491565
67 1 0.831042 0.322003 0.500008
74 1 0.913801 0.221767 0.493751
60 1 0.916326 0.305881 0.501228
35 1 0.0117379 0.246514 0.503478
9 1 0.0898956 0.369483 0.497617
55 1 0.202229 0.418337 0.501013
20 1 0.315247 0.402801 0.500847
6 1 0.478847 0.353472 0.500033
29 1 0.638317 0.350667 0.501691
37 1 0.754266 0.375776 0.502128
34 1 0.878691 0.413312 0.503171
47 1 0.987093 0.460708 0.498466
33 1 0.0992567 0.497288 0.500844
14 1 0.232526 0.543306 0.500015
12 1 0.402282 0.547897 0.503762
54 1 0.495858 0.470017 0.496142
40 1 0.603694 0.49164 0.500789
31 1 0.734296 0.47461 0.500531
21 1 0.83241 0.525709 0.504111
78 1 0.925188 0.504016 0.498501
42 1 0.176986 0.657916 0.500255
2 1 0.537863 0.624262 0.501056
8 1 0.694977 0.610237 0.496157
22 1 0.0174618 0.570225 0.501284
30 1 0.0574424 0.682495 0.498289
46 1 0.152205 0.757087 0.49914
15 1 0.267253 0.726278 0.502091
38 1 0.406629 0.689063 0.499701
45 1 0.710697 0.732399 0.502081
19 1 0.835469 0.727662 0.500002
76 1 0.969817 0.660898 0.503239
59 1 0.95802 0.735135 0.500761
13 1 0.0505008 0.832453 0.500394
49 1 0.183458 0.838419 0.499062
43 1 0.27587 0.848752 0.497926
4 1 0.505461 0.778323 0.5032
18 1 0.7221 0.856481 0.500888
16 1 0.904939 0.854093 0.497665
25 1 0.0171825 0.967691 0.50269
3 1 0.156723 0.94964 0.499903
11 1 0.309581 0.972388 0.500382
27 1 0.426189 0.902787 0.498166
10 1 0.574678 0.907322 0.499843
39 1 0.824762 0.963069 0.503245
71 1 0.92252 0.966971 0.498584
ITEM: TIMESTEP
2500
ITEM: NUMBER OF ATOMS
70
ITEM: BOX BOUNDS pp pp pp
-4.8174060665819249e+00 4.8174060665819249e+00
-4.8328100112069441e+00 4.8328100112069441e+00
-1.0000000000000001e-01 1.0000000000000001e-01
ITEM: ATOMS id type xs ys zs
48 1 0.075921 0.0538429 0.499589
62 1 0.994291 0.0605047 0.507274
26 1 0.234381 0.0883142 0.497032
56 1 0.340216 0.0912606 0.501029
7 1 0.451355 0.0432113 0.502161
1 1 0.687665 0.0138825 0.496617
77 1 0.792883 0.0884314 0.498875
50 1 0.723957 0.134883 0.507607
80 1 0.850488 0.0696898 0.497843
52 1 0.936151 0.0508062 0.497393
17 1 0.106565 0.153295 0.497117
58 1 0.218043 0.21573 0.495373
65 1 0.406205 0.135533 0.501591
24 1 0.311815 0.188339 0.498937
72 1 0.520227 0.170717 0.506427
36 1 0.609011 0.13381 0.500242
32 1 0.838852 0.1567 0.500552
53 1 0.972941 0.137712 0.503748
57 1 0.193856 0.331631 0.49586
44 1 0.275266 0.286691 0.500226
51 1 0.365791 0.286163 0.495074
23 1 0.433135 0.210696 0.496394
28 1 0.570977 0.245827 0.503611
5 1 0.721572 0.249168 0.502797
61 1 0.845477 0.257329 0.492062
67 1 0.831269 0.321612 0.500251
74 1 0.91345 0.221343 0.493977
60 1 0.915954 0.305194 0.501648
35 1 0.0116703 0.24514 0.504105
9 1 0.0897947 0.369102 0.494976
55 1 0.201325 0.418932 0.50309
20 1 0.314614 0.401819 0.503149
6 1 0.478994 0.353605 0.501189
29 1 0.63792 0.350819 0.500705
37 1 0.754674 0.375495 0.502064
34 1 0.879325 0.41328 0.503926
47 1 0.987731 0.461039 0.498634
33 1 0.101025 0.498404 0.502
14 1 0.233713 0.543707 0.499036
12 1 0.40169 0.548382 0.50266
54 1 0.49563 0.469848 0.496611
40 1 0.603026 0.490546 0.499919
31 1 0.733089 0.474727 0.500879
21 1 0.832003 0.525281 0.505214
78 1 0.925032 0.504172 0.49878
42 1 0.17582 0.65693 0.500529
2 1 0.53738 0.623626 0.499904
8 1 0.694686 0.609872 0.495919
22 1 0.018017 0.570486 0.50154
30 1 0.0573482 0.682738 0.498999
46 1 0.150435 0.7564 0.500064
15 1 0.265775 0.725414 0.502957
38 1 0.40622 0.689065 0.50029
45 1 0.710178 0.733304 0.501098
19 1 0.834967 0.727508 0.50191
76 1 0.969756 0.661128 0.499673
59 1 0.957402 0.734976 0.501672
13 1 0.050394 0.832823 0.501312
49 1 0.183684 0.837929 0.498259
43 1 0.276726 0.847713 0.50037
4 1 0.504748 0.77758 0.503992
18 1 0.722271 0.857171 0.500578
16 1 0.904122 0.853811 0.498724
25 1 0.0168755 0.967329 0.50489
3 1 0.15649 0.949413 0.500761
11 1 0.30914 0.971379 0.501749
27 1 0.425557 0.902825 0.499997
10 1 0.574205 0.907309 0.499182
39 1 0.824275 0.964515 0.501805
71 1 0.921832 0.966248 0.498703
ITEM: TIMESTEP
2750
ITEM: NUMBER OF ATOMS
70
ITEM: BOX BOUNDS pp pp pp
-4.8161992785602639e+00 4.8161992785602639e+00
-4.8315395354873845e+00 4.8315395354873845e+00
-1.0000000000000001e-01 1.0000000000000001e-01
ITEM: ATOMS id type xs ys zs
48 1 0.0756094 0.0537273 0.498729
62 1 0.99379 0.0604391 0.507665
26 1 0.23366 0.0885422 0.498205
56 1 0.33973 0.0911738 0.502044
7 1 0.450968 0.0425421 0.50176
1 1 0.687015 0.0135732 0.494584
77 1 0.792489 0.0879655 0.498184
50 1 0.722999 0.134233 0.508084
80 1 0.849983 0.06894 0.497881
52 1 0.9358 0.050187 0.497797
17 1 0.106113 0.153049 0.496744
58 1 0.21699 0.216326 0.495129
65 1 0.406723 0.13467 0.502165
24 1 0.310589 0.18873 0.499643
72 1 0.519387 0.170559 0.506258
36 1 0.60848 0.132854 0.501439
32 1 0.837927 0.156535 0.499824
53 1 0.973429 0.137824 0.503247
57 1 0.193567 0.33242 0.496056
44 1 0.274852 0.286758 0.498888
51 1 0.365055 0.286911 0.493493
23 1 0.431689 0.21032 0.496065
28 1 0.569906 0.245574 0.503523
5 1 0.720686 0.248527 0.504793
61 1 0.845938 0.257518 0.492666
67 1 0.831198 0.321665 0.500009
74 1 0.913344 0.220709 0.494069
60 1 0.915986 0.304903 0.497753
35 1 0.0116227 0.245503 0.502817
9 1 0.0887461 0.370441 0.494158
55 1 0.201184 0.420005 0.504176
20 1 0.315348 0.403166 0.502556
6 1 0.478867 0.353005 0.501362
29 1 0.637583 0.350775 0.500563
37 1 0.754097 0.375506 0.500142
34 1 0.879094 0.413213 0.503147
47 1 0.987388 0.461046 0.497464
33 1 0.102234 0.498552 0.501521
14 1 0.234647 0.544492 0.49932
12 1 0.401148 0.547899 0.499623
54 1 0.494966 0.47 0.494702
40 1 0.602062 0.491097 0.498818
31 1 0.73276 0.474514 0.502514
21 1 0.831809 0.524426 0.505821
78 1 0.924463 0.503732 0.49779
42 1 0.173888 0.65731 0.4997
2 1 0.53671 0.624314 0.501324
8 1 0.693915 0.609736 0.496014
22 1 0.0184049 0.570235 0.499263
30 1 0.0579513 0.681976 0.499202
46 1 0.150722 0.756911 0.500021
15 1 0.264912 0.724386 0.502826
38 1 0.405891 0.689289 0.500824
45 1 0.710369 0.732027 0.503106
19 1 0.83544 0.727163 0.502587
76 1 0.970309 0.660832 0.498613
59 1 0.958173 0.735025 0.501218
13 1 0.0489519 0.83223 0.500582
49 1 0.183458 0.83808 0.499731
43 1 0.276899 0.847317 0.500402
4 1 0.505002 0.777346 0.502563
18 1 0.721983 0.856536 0.500373
16 1 0.903268 0.853887 0.497722
25 1 0.0166651 0.967373 0.504116
3 1 0.155807 0.949704 0.50154
11 1 0.309043 0.971328 0.502291
27 1 0.426069 0.902712 0.499539
10 1 0.574089 0.906722 0.497917
39 1 0.823822 0.963505 0.501819
71 1 0.921746 0.965823 0.500929
ITEM: TIMESTEP
3000
ITEM: NUMBER OF ATOMS
70
ITEM: BOX BOUNDS pp pp pp
-4.8149924905386028e+00 4.8149924905386028e+00
-4.8335511474047985e+00 4.8335511474047985e+00
-1.0000000000000001e-01 1.0000000000000001e-01
ITEM: ATOMS id type xs ys zs
48 1 0.0754277 0.0542926 0.498479
62 1 0.993399 0.0612076 0.507452
26 1 0.233323 0.0893631 0.497386
56 1 0.338914 0.0917093 0.504513
7 1 0.450406 0.0432238 0.500575
1 1 0.686989 0.014221 0.496225
77 1 0.79229 0.0884225 0.497153
50 1 0.723042 0.134567 0.507449
80 1 0.849735 0.0694188 0.497212
52 1 0.935564 0.0512228 0.499313
17 1 0.105612 0.15359 0.496887
58 1 0.216234 0.217736 0.493985
65 1 0.405604 0.135024 0.501925
24 1 0.309518 0.189579 0.50112
72 1 0.518886 0.170321 0.506667
36 1 0.608183 0.133832 0.501083
32 1 0.838129 0.156709 0.500376
53 1 0.973207 0.138459 0.503095
57 1 0.193454 0.333001 0.496113
44 1 0.274646 0.287922 0.497044
51 1 0.364975 0.286911 0.492159
23 1 0.431789 0.210302 0.495558
28 1 0.568793 0.246102 0.504482
5 1 0.720562 0.248894 0.504181
61 1 0.845891 0.257091 0.492019
67 1 0.830516 0.321022 0.49863
74 1 0.913854 0.220801 0.494946
60 1 0.915954 0.30509 0.496785
35 1 0.0119003 0.245828 0.502575
9 1 0.0894717 0.370671 0.493516
55 1 0.201682 0.420405 0.504454
20 1 0.315426 0.402845 0.502403
6 1 0.47801 0.354038 0.501503
29 1 0.637444 0.350163 0.501383
37 1 0.754221 0.375014 0.500836
34 1 0.878157 0.412782 0.503765
47 1 0.986891 0.461019 0.4994
33 1 0.101286 0.498406 0.50105
14 1 0.234449 0.544327 0.497739
12 1 0.400094 0.547778 0.500266
54 1 0.494636 0.470535 0.494773
40 1 0.602466 0.489635 0.498821
31 1 0.732131 0.473979 0.503554
21 1 0.831196 0.524822 0.507681
78 1 0.924246 0.503114 0.498907
42 1 0.176706 0.657847 0.50064
2 1 0.536365 0.622552 0.503369
8 1 0.693062 0.609361 0.497296
22 1 0.0186484 0.57028 0.498943
30 1 0.0567025 0.682632 0.498594
46 1 0.150832 0.757156 0.500788
15 1 0.265837 0.726387 0.502608
38 1 0.405683 0.689013 0.500273
45 1 0.710084 0.73228 0.50394
19 1 0.834677 0.72709 0.503532
76 1 0.96895 0.66074 0.497652
59 1 0.956928 0.735028 0.500034
13 1 0.0496667 0.833041 0.499832
49 1 0.183481 0.838714 0.499675
43 1 0.277119 0.84864 0.503419
4 1 0.50463 0.776591 0.503325
18 1 0.720756 0.856346 0.500845
16 1 0.903593 0.854049 0.496969
25 1 0.0164791 0.968193 0.505661
3 1 0.155175 0.94965 0.501224
11 1 0.308921 0.972121 0.502233
27 1 0.425851 0.902588 0.500573
10 1 0.572814 0.907044 0.498319
39 1 0.823628 0.964013 0.501517
71 1 0.921464 0.966888 0.499486
ITEM: TIMESTEP
3250
ITEM: NUMBER OF ATOMS
70
ITEM: BOX BOUNDS pp pp pp
-4.8137857025169417e+00 4.8137857025169417e+00
-4.8340672767470085e+00 4.8340672767470085e+00
-1.0000000000000001e-01 1.0000000000000001e-01
ITEM: ATOMS id type xs ys zs
48 1 0.0750219 0.054676 0.500089
62 1 0.992971 0.061191 0.509517
26 1 0.233452 0.0884358 0.498641
56 1 0.339491 0.0921805 0.503164
7 1 0.450581 0.0422181 0.501202
1 1 0.685877 0.0138015 0.497018
77 1 0.79167 0.0876646 0.497822
50 1 0.723004 0.134229 0.50552
80 1 0.849091 0.0682802 0.496068
52 1 0.935164 0.0512198 0.497696
17 1 0.106079 0.153466 0.496683
58 1 0.216712 0.217142 0.493908
65 1 0.406615 0.134697 0.501948
24 1 0.309669 0.188824 0.501883
72 1 0.519452 0.170749 0.50613
36 1 0.608635 0.134279 0.502173
32 1 0.837906 0.155697 0.50009
53 1 0.97135 0.138689 0.503686
57 1 0.19333 0.332411 0.49591
44 1 0.274866 0.287353 0.497235
51 1 0.364877 0.286519 0.492335
23 1 0.431547 0.210002 0.497366
28 1 0.56865 0.246535 0.505266
5 1 0.72073 0.248257 0.504032
61 1 0.846061 0.255995 0.493867
67 1 0.831137 0.320617 0.499259
74 1 0.913536 0.220257 0.494689
60 1 0.915899 0.304445 0.494791
35 1 0.0119635 0.245529 0.502688
9 1 0.0886304 0.37125 0.491499
55 1 0.201526 0.419785 0.505011
20 1 0.315308 0.402534 0.502448
6 1 0.477684 0.354646 0.501267
29 1 0.637341 0.350174 0.501658
37 1 0.75427 0.373927 0.500701
34 1 0.878735 0.41253 0.503963
47 1 0.987247 0.461527 0.500392
33 1 0.10126 0.499155 0.500377
14 1 0.23471 0.544267 0.49879
12 1 0.400171 0.547335 0.499618
54 1 0.495431 0.470955 0.496075
40 1 0.603435 0.488531 0.499231
31 1 0.733556 0.47324 0.503667
21 1 0.831376 0.52475 0.508205
78 1 0.923968 0.503871 0.498406
42 1 0.176416 0.65746 0.500983
2 1 0.537337 0.621468 0.502924
8 1 0.694899 0.608386 0.497034
22 1 0.0188975 0.570734 0.498273
30 1 0.0571495 0.682744 0.498196
46 1 0.151263 0.756893 0.501552
15 1 0.266444 0.726153 0.502988
38 1 0.406619 0.688261 0.501286
45 1 0.710641 0.731192 0.503301
19 1 0.835208 0.728448 0.501203
76 1 0.969452 0.660594 0.497016
59 1 0.957664 0.735069 0.501465
13 1 0.0497406 0.833107 0.5
49 1 0.183058 0.838261 0.498679
43 1 0.275987 0.849179 0.504233
4 1 0.505849 0.77639 0.504042
18 1 0.723155 0.855164 0.500559
16 1 0.903727 0.85493 0.496236
25 1 0.0163824 0.968158 0.504406
3 1 0.155561 0.95028 0.500305
11 1 0.309114 0.972044 0.499913
27 1 0.425601 0.902317 0.500557
10 1 0.574558 0.905402 0.49851
39 1 0.823047 0.964451 0.500699
71 1 0.921097 0.967087 0.496396
ITEM: TIMESTEP
3500
ITEM: NUMBER OF ATOMS
70
ITEM: BOX BOUNDS pp pp pp
-4.8125789144952797e+00 4.8125789144952797e+00
-4.8320427878170236e+00 4.8320427878170236e+00
-1.0000000000000001e-01 1.0000000000000001e-01
ITEM: ATOMS id type xs ys zs
48 1 0.0754233 0.0538203 0.499863
62 1 0.993445 0.0608172 0.509495
26 1 0.233771 0.0882158 0.499339
56 1 0.339495 0.0913672 0.501539
7 1 0.450638 0.0421204 0.500052
1 1 0.686417 0.01417 0.494363