LAMMPS (23 Jun 2022 - Update 4)
  using 1 OpenMP thread(s) per MPI task
# Compute elastic constant tensor for a crystal
#
# Written by Aidan Thompson (Sandia, athomps@sandia.gov)
#
#  This script uses the following three include files.
#
#   init.mod      (must be modified for different crystal structures)
# 	       	  Define units, deformation parameters and initial
#		  configuration of the atoms and simulation cell.
#
#
#   potential.mod    (must be modified for different pair styles)
# 		     Define pair style and other attributes
#		     not stored in restart file
#
#
#   displace.mod    (displace.mod should not need to be modified)
# 		    Perform positive and negative box displacements
# 		    in direction ${dir} and size ${up}.
# 		    It uses the resultant changes
#		    in stress to compute one
# 		    row of the elastic stiffness tensor
#
#		    Inputs variables:
#		    	   dir = the Voigt deformation component
#		    		    (1,2,3,4,5,6)
#		    Global constants:
#       	    	   up = the deformation magnitude (strain units)
#       		   cfac = conversion from LAMMPS pressure units to
#               	   output units for elastic constants
#
#
#  To run this on a different system, it should only be necessary to
#  modify the files init.mod and potential.mod. In order to calculate
#  the elastic constants correctly, care must be taken to specify
#  the correct units in init.mod (units, cfac and cunits). It is also
#  important to verify that the minimization of energy w.r.t atom
#  positions in the deformed cell is fully converged.
#  One indication of this is that the elastic constants are insensitive
#  to the choice of the variable ${up} in init.mod. Another is to check
#  the final max and two-norm forces reported in the log file. If you know
#  that minimization is not required, you can set maxiter = 0.0 in
#  init.mod.
#



variable dt equal 0.01
variable strain equal 0.05
variable srate equal 1e-4
variable M equal 1000 # averaging time for properties
variable strainsteps equal ${strain}/${dt}/${srate}
variable strainsteps equal 0.05/${dt}/${srate}
variable strainsteps equal 0.05/0.01/${srate}
variable strainsteps equal 0.05/0.01/0.0001


dimension 2
include init.mod
# NOTE: This script can be modified for different atomic structures,
# units, etc. See in.elastic for more info.
#

# Define the finite deformation size. Try several values of this
# variable to verify that results do not depend on it.
variable up equal 1.0e-1

# Define the amount of random jiggle for atoms
# This prevents atoms from staying on saddle points
variable atomjiggle equal 1.0e-6

# Uncomment one of these blocks, depending on what units
# you are using in LAMMPS and for output

# metal units, elastic constants in eV/A^3
#units		metal
#variable cfac equal 6.2414e-7
#variable cunits string eV/A^3

# Choose potential
# metal units, elastic constants in GPa
units		metal
atom_style	full
#pair_style      lj/cut 1.0
#pair_style      yukawa 1.0 2.0
#pair_modify     mix arithmetic
bond_style      harmonic
angle_style     harmonic
dihedral_style  zero
special_bonds   amber
variable cfac equal 1.0e-4
variable cunits string GPa
boundary	p p p

# Need to set mass to something, just to satisfy LAMMPS
#mass 1 1.0e-20
read_data network.lmp
Reading data file ...
  orthogonal box = (-4.827154 -4.827154 -0.1) to (4.827154 4.827154 0.1)
  1 by 1 by 1 MPI processor grid
WARNING: Atom style in data file differs from currently defined atom style (src/read_data.cpp:538)
  reading atoms ...
  70 atoms
WARNING: Bond style in data file differs from currently defined bond style (src/read_data.cpp:630)
  scanning bonds ...
  5 = max bonds/atom
  reading bonds ...
  160 bonds
Finding 1-2 1-3 1-4 neighbors ...
  special bond factors lj:    0        0        0.5     
  special bond factors coul:  0        0        0.8333333333333334
    10 = max # of 1-2 neighbors
    55 = max # of 1-3 neighbors
   352 = max # of 1-4 neighbors
    35 = max # of special neighbors
  special bonds CPU = 0.000 seconds
  read_data CPU = 0.003 seconds

# real units, elastic constants in GPa
#units		real
#variable cfac equal 1.01325e-4
#variable cunits string GPa

# Define minimization parameters
variable etol equal 0.0
variable ftol equal 5.0e-10
variable maxiter equal 100000
variable maxeval equal 20000
variable dmax equal 1.0e-2


include potential.mod
# NOTE: This script can be modified for different pair styles
# See in.elastic for more info.

# Setup neighbor style
neighbor 3.0 nsq
neigh_modify once no every 1 delay 0 check yes
comm_modify cutoff 2.0

# Setup minimization style
min_style	     cg
min_modify	     dmax ${dmax} line quadratic
min_modify	     dmax 0.01 line quadratic

timestep	0.001


# Setup output
thermo		500
thermo_style custom step temp pe ebond eangle edihed press pxx pyy pzz pxy pxz pyz lx ly lz vol
thermo_modify norm no


#change_box all triclinic
comm_modify mode single cutoff 10.0 vel yes
atom_modify sort 0 0



# Compute initial state

#dump rela all atom 1 traj_relax.lmpstrj
fix 3 all box/relax x 0 y 0 # xy 0  #MS comment: relax if the network is periodic
minimize ${etol} ${ftol} ${maxiter} ${maxeval}
minimize 0 ${ftol} ${maxiter} ${maxeval}
minimize 0 5e-10 ${maxiter} ${maxeval}
minimize 0 5e-10 100000 ${maxeval}
minimize 0 5e-10 100000 20000
Neighbor list info ...
  update every 1 steps, delay 0 steps, check yes
  max neighbors/atom: 2000, page size: 100000
  master list distance cutoff = 0
  ghost atom cutoff = 10
  0 neighbor lists, perpetual/occasional/extra = 0 0 0
WARNING: Inconsistent image flags (src/domain.cpp:819)
Per MPI rank memory allocation (min/avg/max) = 9.162 | 9.162 | 9.162 Mbytes
   Step          Temp          PotEng         E_bond        E_angle        E_dihed         Press           Pxx            Pyy            Pzz            Pxy            Pxz            Pyz             Lx             Ly             Lz           Volume    
         0   0              3.5816447e-11  3.5816447e-11  0              0             -0.15475861    -0.14936301    -0.16015422     0             -0.015721671    0              0              9.654308       9.654308       0.2            93.205663    
       481   0              3.4505895e-19  3.4505895e-19  0              0             -3.3261094e-07 -7.1869859e-07  5.3476702e-08  0             -7.2865354e-06  0              0              9.6543042      9.6543108      0.2            93.205653    
Loop time of 0.028793 on 1 procs for 481 steps with 70 atoms

100.0% CPU use with 1 MPI tasks x 1 OpenMP threads

Minimization stats:
  Stopping criterion = force tolerance
  Energy initial, next-to-last, final = 
    3.58164470264589e-11 3.62277380427719e-19 3.45058949420654e-19
  Force two-norm initial, final = 2.4881551e-05 3.9969955e-10
  Force max component initial, final = 9.3168761e-06 1.2224443e-10
  Final line search alpha, max atom move = 1 1.2224443e-10
  Iterations, force evaluations = 481 962

MPI task timing breakdown:
Section |  min time  |  avg time  |  max time  |%varavg| %total
---------------------------------------------------------------
Pair    | 0          | 0          | 0          |   0.0 |  0.00
Bond    | 0.0041497  | 0.0041497  | 0.0041497  |   0.0 | 14.41
Neigh   | 0          | 0          | 0          |   0.0 |  0.00
Comm    | 0.0088175  | 0.0088175  | 0.0088175  |   0.0 | 30.62
Output  | 0          | 0          | 0          |   0.0 |  0.00
Modify  | 0          | 0          | 0          |   0.0 |  0.00
Other   |            | 0.01583    |            |       | 54.96

Nlocal:             70 ave          70 max          70 min
Histogram: 1 0 0 0 0 0 0 0 0 0
Nghost:            594 ave         594 max         594 min
Histogram: 1 0 0 0 0 0 0 0 0 0
Neighs:              0 ave           0 max           0 min
Histogram: 1 0 0 0 0 0 0 0 0 0

Total # of neighbors = 0
Ave neighs/atom = 0
Ave special neighs/atom = 24.542857
Neighbor list builds = 0
Dangerous builds = 0
#dump rela all atom 1 traj_relax.lmpstrj
thermo 100
unfix 3

fix 2d all enforce2d



#dump dump0 all xyz 1000000 cfg0.xyz
#dump_modify dump0 format line "%d %20.10g %20.10g %20.10g"
#minimize ${etol} ${ftol} ${maxiter} ${maxeval}

#undump rela

#write_restart restart.equil

# These formulas define the derivatives w.r.t. strain components
# Constants uses $, variables use v_


timestep        ${dt}
timestep        0.01
variable nsteps equal round(${strainsteps})
variable nsteps equal round(50000)

fix             4 all nve
fix             5 all langevin 0.1 0.1 1 904297
#fix		6 all press/berendsen y  0.0 0.0 1 x 0.0 0.0 10
fix             6 all nph y 0.0 0.0 10 ptemp 0.1 # x 0.0 0.0 10

# For PLUMED2
# fix 22 all plumed plumedfile plumed.dat outfile plumed.out

#fix             6 all nph x 0.0 0.0 10
fix     	9 all deform 1 x erate -${srate} units box remap x
fix     	9 all deform 1 x erate -0.0001 units box remap x

#fix     8 all deform 1 xy erate ${srate} units box remap x



#fix    10 all ave/time

dump 1 all atom 250 deform_dump.lammpstrj


#To avoid flying ice cube phenomenon:
#fix 21 all momentum 100 linear 1 1 1 angular


run  ${nsteps}
run  50000
WARNING: One or more atoms are time integrated more than once (src/modify.cpp:292)
WARNING: Inconsistent image flags (src/domain.cpp:819)
Per MPI rank memory allocation (min/avg/max) = 8.037 | 8.037 | 8.037 Mbytes
   Step          Temp          PotEng         E_bond        E_angle        E_dihed         Press           Pxx            Pyy            Pzz            Pxy            Pxz            Pyz             Lx             Ly             Lz           Volume    
       481   0              3.4505895e-19  3.4505895e-19  0              0             -3.3261094e-07 -7.1869859e-07  5.3476702e-08  0             -7.2865354e-06  0              0              9.6543042      9.6543108      0.2            93.205653    
       500   0.10041522     8.5864496e-05  8.5864496e-05  0              0              57.837831      86.087224      29.376308      0              79.622115      0              0              9.6541207      9.6541747      0.2            93.202569    
       600   0.19238732     0.00078867501  0.00078867501  0              0              487.861        832.29856      143.21344      0             -183.11847      0              0              9.6531553      9.6551521      0.2            93.202683    
       700   0.20679295     0.0010665852   0.0010665852   0              0             -475.13236     -806.158       -144.29812      0              163.41518      0              0              9.6521899      9.6617499      0.2            93.257045    
       800   0.19888088     0.0012249557   0.0012249557   0              0              291.97917      472.70042      111.09637      0              280.57364      0              0              9.6512245      9.6586344      0.2            93.217648    
       900   0.22905207     0.00073494627  0.00073494627  0              0              469.77384      1079.6891     -140.36798      0             -66.065618      0              0              9.650259       9.6599522      0.2            93.221041    
      1000   0.21179471     0.0012961262   0.0012961262   0              0             -250.98106     -531.79289      29.65096       0             -8.7098771      0              0              9.6492936      9.6613783      0.2            93.225476    
      1100   0.20019935     0.0012124117   0.0012124117   0              0             -27.640395     -69.998888      14.498186      0             -581.38597      0              0              9.6483282      9.6593249      0.2            93.196337    
      1200   0.22918936     0.0012171808   0.0012171808   0              0              47.878952      189.37159     -93.821244      0              206.81311      0              0              9.6473627      9.6566392      0.2            93.161101    
      1300   0.22654252     0.0012051385   0.0012051385   0              0              298.78188      503.00882      94.347642      0             -188.02822      0              0              9.6463973      9.654736       0.2            93.133419    
      1400   0.24282921     0.0012212842   0.0012212842   0              0             -312.83486     -727.66232      101.79604      0              310.03004      0              0              9.6454319      9.6585624      0.2            93.161005    
      1500   0.20990478     0.0015477058   0.0015477058   0              0             -473.153       -785.78028     -160.70694      0             -606.57338      0              0              9.6444664      9.6584166      0.2            93.150275    
      1600   0.24655185     0.0012059864   0.0012059864   0              0              370.04497      529.89348      209.99772      0             -197.92871      0              0              9.643501       9.6567417      0.2            93.124798    
      1700   0.24075485     0.0010579607   0.0010579607   0              0              105.75468      289.02859     -77.710553      0              221.12885      0              0              9.6425356      9.6618103      0.2            93.16435     
      1800   0.19878732     0.0011601501   0.0011601501   0              0              199.69721      608.72979     -209.55612      0             -314.94479      0              0              9.6415701      9.6676477      0.2            93.211303    
      1900   0.21266818     0.001182795    0.001182795    0              0              16.95635      -330.02796      363.7111       0             -206.7171       0              0              9.6406047      9.6691171      0.2            93.216136    
      2000   0.2163594      0.00096118569  0.00096118569  0              0             -103.50238      102.32372     -309.55305      0              136.46977      0              0              9.6396393      9.6756595      0.2            93.269868    
      2100   0.18434261     0.0013377419   0.0013377419   0              0              425.67388      768.22968      82.880337      0             -62.685931      0              0              9.6386739      9.6720687      0.2            93.225916    
      2200   0.19815807     0.0011300119   0.0011300119   0              0              852.152        1523.1213      180.95544      0             -200.69087      0              0              9.6377084      9.6708368      0.2            93.204706    
      2300   0.20392573     0.0012754915   0.0012754915   0              0              389.10986      1174.8659     -396.85801      0             -926.10568      0              0              9.636743       9.6758581      0.2            93.243758    
      2400   0.25561424     0.00093842029  0.00093842029  0              0              752.87962      987.8692       517.68129      0              396.18965      0              0              9.6357776      9.6699872      0.2            93.177845    
      2500   0.2131157      0.0012655823   0.0012655823   0              0              219.0032       735.37544     -297.57882      0             -871.47594      0              0              9.6348121      9.66562        0.2            93.126433    
      2600   0.25210914     0.0012182363   0.0012182363   0              0              544.15158      1377.3489     -289.24928      0             -427.80846      0              0              9.6338467      9.6663542      0.2            93.124175    
      2700   0.2084934      0.0012866753   0.0012866753   0              0              367.41179      161.49221      573.11804      0             -895.90991      0              0              9.6328813      9.6653135      0.2            93.104817    
      2800   0.22081596     0.0013598495   0.0013598495   0              0             -57.996012      655.30816     -771.53496      0             -796.62883      0              0              9.6319158      9.6688051      0.2            93.129117    
      2900   0.20420887     0.001265545    0.001265545    0              0              1087.1533      1594.9477      579.18369      0             -3.2488231      0              0              9.6309504      9.6655654      0.2            93.088581    
      3000   0.20829873     0.00118977     0.00118977     0              0              500.38967      960.42084      40.142266      0             -1021.094       0              0              9.629985       9.6671023      0.2            93.09405     
      3100   0.15902995     0.001406204    0.001406204    0              0              191.4347       1005.2836     -622.60392      0             -330.08966      0              0              9.6290196      9.6694282      0.2            93.107114    
      3200   0.19893903     0.0013767215   0.0013767215   0              0              749.18161      727.48339      770.69155      0             -234.25446      0              0              9.6280541      9.6623412      0.2            93.029544    
      3300   0.17817059     0.0012743304   0.0012743304   0              0              333.05965      1331.0638     -665.14301      0             -138.55531      0              0              9.6270887      9.6724128      0.2            93.117176    
      3400   0.16001362     0.0011893851   0.0011893851   0              0              1057.248       2040.7139      73.542247      0             -415.92732      0              0              9.6261233      9.6704191      0.2            93.088647    
      3500   0.19102773     0.0014161572   0.0014161572   0              0              1153.197       1856.9864      449.168        0             -309.37319      0              0              9.6251578      9.6640856      0.2            93.018349    
      3600   0.22366641     0.0013060808   0.0013060808   0              0              54.971423      830.18892     -720.4358       0             -346.03724      0              0              9.6241924      9.670273       0.2            93.068568    
      3700   0.2109392      0.0017015959   0.0017015959   0              0              566.47465      388.68516      744.05737      0             -231.2691       0              0              9.623227       9.6685738      0.2            93.04288     
      3800   0.2360364      0.0012775144   0.0012775144   0              0              725.36531      1920.6668     -470.14203      0             -74.497218      0              0              9.6222615      9.6833266      0.2            93.175501    
      3900   0.22099421     0.0014088069   0.0014088069   0              0              244.91619      609.29584     -119.68637      0             -25.870021      0              0              9.6212961      9.6825216      0.2            93.158407    
      4000   0.22646543     0.0011162007   0.0011162007   0              0              1057.0278      1254.4698      859.34196      0             -686.08336      0              0              9.6203307      9.68201        0.2            93.144138    
      4100   0.22748269     0.0013013109   0.0013013109   0              0             -713.3594      -315.53261     -1111.419       0             -454.73843      0              0              9.6193652      9.6929203      0.2            93.239741    
      4200   0.19561502     0.0014138578   0.0014138578   0              0              1147.8378      1356.219       939.23829      0             -568.92749      0              0              9.6183998      9.6848179      0.2            93.15245     
      4300   0.25181596     0.0014755078   0.0014755078   0              0              369.99178      1127.3397     -387.55513      0             -519.92692      0              0              9.6174344      9.6960128      0.2            93.250767    
      4400   0.23129459     0.0013492312   0.0013492312   0              0              380.46195      1279.212      -518.48691      0             -694.32822      0              0              9.616469       9.6950733      0.2            93.232372    
      4500   0.20848763     0.0014798632   0.0014798632   0              0              1378.5649      1540.9634      1215.9629      0             -243.46897      0              0              9.6155035      9.6842173      0.2            93.118626    
      4600   0.20583076     0.0010219129   0.0010219129   0              0             -184.8645       1086.886      -1456.8438      0             -251.91046      0              0              9.6145381      9.6945698      0.2            93.208811    
      4700   0.19989353     0.0013885798   0.0013885798   0              0              1270.6641      1511.0288      1030.0767      0             -744.76509      0              0              9.6135727      9.6817026      0.2            93.075752    
      4800   0.23797824     0.001460793    0.001460793    0              0              593.22856      1452.9067     -266.64055      0             -1581.7291      0              0              9.6126072      9.694029       0.2            93.184893    
      4900   0.26183902     0.0014274189   0.0014274189   0              0              181.09473      952.94786     -590.9851       0             -1094.63        0              0              9.6116418      9.6898604      0.2            93.135467    
      5000   0.19069107     0.0014280686   0.0014280686   0              0              1466.9884      1763.1525      1170.6104      0             -644.74951      0              0              9.6106764      9.6866414      0.2            93.095176    
      5100   0.22714015     0.001123598    0.001123598    0              0             -424.27281      450.78085     -1299.5226      0             -629.0601       0              0              9.6097109      9.693632       0.2            93.153002    
      5200   0.20246456     0.001357667    0.001357667    0              0              1719.2385      2378.9323      1059.3503      0             -410.14147      0              0              9.6087455      9.6844129      0.2            93.055059    
      5300   0.19294722     0.0014517243   0.0014517243   0              0              484.7873       1414.191      -444.8213       0             -775.95982      0              0              9.6077801      9.6929302      0.2            93.127542    
      5400   0.20496242     0.0013050502   0.0013050502   0              0              686.90498      1536.4213     -162.83338      0              87.840532      0              0              9.6068147      9.6931636      0.2            93.120426    
      5500   0.20035279     0.0013447861   0.0013447861   0              0              1648.8795      2649.8363      647.68583      0             -48.348365      0              0              9.6058492      9.6842629      0.2            93.025569    
      5600   0.16848621     0.0012770453   0.0012770453   0              0              376.74708      1588.4919     -835.17717      0              154.40201      0              0              9.6048838      9.7003638      0.2            93.170867    
      5700   0.21751135     0.0012439174   0.0012439174   0              0              1057.7411      1256.7506      858.51022      0             -11.725909      0              0              9.6039184      9.6946154      0.2            93.106295    
      5800   0.24261096     0.0014520286   0.0014520286   0              0              236.55862      1017.1015     -544.23478      0             -42.076196      0              0              9.6029529      9.7009759      0.2            93.158015    
      5900   0.2590519      0.0015583108   0.0015583108   0              0             -58.484857     -280.10316      162.8912       0             -557.03276      0              0              9.6019875      9.7059232      0.2            93.196153    
      6000   0.23595773     0.0014146644   0.0014146644   0              0              1094.7921      1893.2752      296.0991       0             -614.23589      0              0              9.6010221      9.7070767      0.2            93.197857    
      6100   0.16057414     0.0013736554   0.0013736554   0              0              114.65829      914.37824     -685.24207      0             -420.99563      0              0              9.6000566      9.7138315      0.2            93.253333    
      6200   0.21481262     0.001574268    0.001574268    0              0              896.90078      1066.9505      726.66458      0             -507.87307      0              0              9.5990912      9.7088789      0.2            93.196415    
      6300   0.20677437     0.0013506585   0.0013506585   0              0             -73.039118      355.49676     -501.79381      0             -296.19815      0              0              9.5981258      9.7145563      0.2            93.241534    
      6400   0.18640308     0.0014272239   0.0014272239   0              0              237.15993      245.10831      228.99499      0             -231.2424       0              0              9.5971603      9.7144801      0.2            93.231423    
      6500   0.175379       0.0013412368   0.0013412368   0              0              663.36454      1188.6796      137.84942      0             -1158.9323      0              0              9.5961949      9.7121634      0.2            93.199814    
      6600   0.18864618     0.0013112559   0.0013112559   0              0             -23.130385      270.55488     -317.02054      0             -572.842        0              0              9.5952295      9.7121288      0.2            93.190105    
      6700   0.18951963     0.0013629086   0.0013629086   0              0              905.39161      1393.1573      417.42068      0             -115.09041      0              0              9.5942641      9.7172437      0.2            93.229802    
      6800   0.16883992     0.0013322927   0.0013322927   0              0              839.89095      2087.9759     -408.40117      0             -849.39229      0              0              9.5932986      9.7128903      0.2            93.178657    
      6900   0.18551118     0.0012713531   0.0012713531   0              0              1012.9143      1701.0862      324.5732       0              9.6788843      0              0              9.5923332      9.7143427      0.2            93.183212    
      7000   0.18673073     0.0014602295   0.0014602295   0              0              1059.3859      2133.6129     -15.031472      0             -302.37982      0              0              9.5913678      9.7152033      0.2            93.182088    
      7100   0.18434721     0.0015501517   0.0015501517   0              0              659.29345      1583.8676     -265.47847      0             -660.44838      0              0              9.5904023      9.7152532      0.2            93.173187    
      7200   0.17859308     0.0013516672   0.0013516672   0              0              1013.2257      1598.3691      427.84164      0             -142.19007      0              0              9.5894369      9.708006       0.2            93.094311    
      7300   0.17459035     0.0014007582   0.0014007582   0              0              487.04482      1598.6967     -624.79971      0             -640.89502      0              0              9.5884715      9.7121912      0.2            93.125069    
      7400   0.20855577     0.0012937682   0.0012937682   0              0              1076.2506      1591.3009      560.97911      0             -630.83441      0              0              9.587506       9.7055854      0.2            93.052359    
      7500   0.16947771     0.0014252294   0.0014252294   0              0              275.86583      1038.5732     -487.03881      0             -566.75837      0              0              9.5865406      9.7113436      0.2            93.098189    
      7600   0.18006822     0.0012088535   0.0012088535   0              0              306.16838      452.72913      159.35091      0             -169.8898       0              0              9.5855752      9.7079164      0.2            93.055962    
      7700   0.17178428     0.001440244    0.001440244    0              0              1249.5122      2146.6109      352.20681      0             -716.28623      0              0              9.5846098      9.7068624      0.2            93.036488    
      7800   0.19890752     0.00116772     0.00116772     0              0              514.76724      1648.0575     -618.69572      0             -710.80009      0              0              9.5836443      9.7106084      0.2            93.063017    
      7900   0.21461117     0.0013445826   0.0013445826   0              0              1015.323       1129.298       901.15176      0             -641.61074      0              0              9.5826789      9.7112615      0.2            93.059901    
      8000   0.21984319     0.0012556226   0.0012556226   0              0             -55.023179      739.37464     -849.57998      0             -1207.8297      0              0              9.5817135      9.723255       0.2            93.165443    
      8100   0.20451384     0.0014625341   0.0014625341   0              0              728.40779      793.36615      663.27844      0             -913.32137      0              0              9.580748       9.7119254      0.2            93.04751     
      8200   0.19311361     0.0013536757   0.0013536757   0              0              871.62997      2001.6821     -258.62402      0             -717.00415      0              0              9.5797826      9.7158073      0.2            93.075322    
      8300   0.16632023     0.0013065511   0.0013065511   0              0              715.46941      1545.0008     -114.24319      0             -908.62959      0              0              9.5788172      9.7136413      0.2            93.045194    
      8400   0.25497429     0.0012553782   0.0012553782   0              0              888.14389      1218.661       557.40064      0             -165.82704      0              0              9.5778517      9.7146404      0.2            93.045386    
      8500   0.21062921     0.0015919998   0.0015919998   0              0             -21.122549      791.95605     -834.37992      0             -163.51346      0              0              9.5768863      9.7266685      0.2            93.151198    
      8600   0.19843164     0.0013901327   0.0013901327   0              0              1316.0929      1627.5627      1004.3996      0              524.85544      0              0              9.5759209      9.728524       0.2            93.159576    
      8700   0.20383301     0.001406082    0.001406082    0              0             -58.764435      722.79064     -840.53337      0             -354.34507      0              0              9.5749554      9.7371686      0.2            93.232955    
      8800   0.21425269     0.0014217705   0.0014217705   0              0              1067.2621      1688.1897      446.1133       0             -216.60718      0              0              9.57399        9.7318244      0.2            93.172389    
      8900   0.15085857     0.001432787    0.001432787    0              0              411.70491      834.74122     -11.588228      0             -241.14803      0              0              9.5730246      9.7293614      0.2            93.139416    
      9000   0.2492534      0.0013784588   0.0013784588   0              0              391.72167      1141.49       -358.22915      0             -70.374034      0              0              9.5720592      9.7310589      0.2            93.146271    
      9100   0.21541278     0.0015422615   0.0015422615   0              0              904.49602      1123.2569      685.51343      0              224.82426      0              0              9.5710937      9.7227218      0.2            93.057082    
      9200   0.2496751      0.0014312799   0.0014312799   0              0             -415.86212      152.03936     -983.9511       0              208.38517      0              0              9.5701283      9.7292474      0.2            93.110146    
      9300   0.21627204     0.0017192036   0.0017192036   0              0              1893.1802      2618.2814      1167.8568      0             -649.92258      0              0              9.5691629      9.7232617      0.2            93.043475    
      9400   0.17912789     0.0015820957   0.0015820957   0              0              384.36536      1907.6612     -1139.1489      0              362.158        0              0              9.5681974      9.7285076      0.2            93.084281    
      9500   0.24996396     0.0014141641   0.0014141641   0              0              1490.3204      2103.6682      876.7969       0              234.78636      0              0              9.567232       9.7187334      0.2            92.981377    
      9600   0.22266432     0.0017199476   0.0017199476   0              0              230.47719      826.92062     -366.19499      0              41.132467      0              0              9.5662666      9.7288514      0.2            93.068786    
      9700   0.24411886     0.0015501438   0.0015501438   0              0              1040.6142      2318.4048     -237.37456      0             -148.80383      0              0              9.5653011      9.7266382      0.2            93.038224    
      9800   0.25090094     0.0015986354   0.0015986354   0              0              1813.7304      2732.9322      894.34682      0             -122.06729      0              0              9.5643357      9.7257606      0.2            93.020439    
      9900   0.19957665     0.0013915779   0.0013915779   0              0              494.75111      2175.0479     -1185.7832      0              180.36871      0              0              9.5633703      9.7341188      0.2            93.090982    
     10000   0.22959743     0.0012786824   0.0012786824   0              0              1777.8724      2017.3589      1538.1761      0              338.77996      0              0              9.5624049      9.7287242      0.2            93.029999    
     10100   0.22627581     0.0016270821   0.0016270821   0              0             -690.65212      169.60209     -1551.0952      0             -41.626063      0              0              9.5614394      9.7422307      0.2            93.149749    
     10200   0.22273724     0.0015748841   0.0015748841   0              0              1355.1768      1529.9733      1180.1829      0              167.4021       0              0              9.560474       9.731256       0.2            93.03542     
     10300   0.21501608     0.0014064118   0.0014064118   0              0              728.31846      2001.5978     -545.18334      0              176.69931      0              0              9.5595086      9.7414481      0.2            93.123457    
     10400   0.19832537     0.0014581007   0.0014581007   0              0              667.30967      1371.7399     -37.345729      0             -346.43479      0              0              9.5585431      9.7382627      0.2            93.083604    
     10500   0.21354075     0.0016525463   0.0016525463   0              0              1009.4927      1504.1641      514.62372      0              148.70839      0              0              9.5575777      9.7400806      0.2            93.091577    
     10600   0.21340076     0.0015092481   0.0015092481   0              0             -143.68777      572.55973     -860.09714      0             -147.47591      0              0              9.5566123      9.7423331      0.2            93.1037      
     10700   0.19560671     0.0016059726   0.0016059726   0              0              1633.1611      2315.9226      950.18753      0              275.98757      0              0              9.5556468      9.7314548      0.2            92.990345    
     10800   0.18709866     0.0015459118   0.0015459118   0              0              580.94488      2043.645      -882.00419      0              195.26175      0              0              9.5546814      9.7388331      0.2            93.051448    
     10900   0.17454907     0.0019000554   0.0019000554   0              0              1581.6424      2542.0288      621.03766      0             -1165.8313      0              0              9.553716       9.7330254      0.2            92.986561    
     11000   0.23918511     0.0016109786   0.0016109786   0              0              1310.5728      2893.7133     -272.79995      0             -741.41765      0              0              9.5527505      9.7346244      0.2            92.992438    
     11100   0.19648959     0.0013586181   0.0013586181   0              0              972.50093      1857.2776      87.530782      0             -432.9029       0              0              9.5517851      9.7302042      0.2            92.94082     
     11200   0.21907517     0.0017410252   0.0017410252   0              0              1469.5714      2690.7084      248.24139      0             -173.66912      0              0              9.5508197      9.7266016      0.2            92.897018    
     11300   0.21769705     0.0016522467   0.0016522467   0              0              494.02436      1441.7044     -453.85481      0             -1084.1972      0              0              9.5498543      9.7294         0.2            92.914352    
     11400   0.21697123     0.0018694927   0.0018694927   0              0              794.61326      987.32676      601.69091      0             -362.4126       0              0              9.5488888      9.7252375      0.2            92.865212    
     11500   0.17125305     0.0017338531   0.0017338531   0              0              920.54149      2491.5051     -650.60694      0             -152.33181      0              0              9.5479234      9.7280042      0.2            92.882238    
     11600   0.22263352     0.0015768157   0.0015768157   0              0              1588.6932      2667.3411      509.85325      0              21.705896      0              0              9.546958       9.7265081      0.2            92.858564    
     11700   0.221317       0.0018283981   0.0018283981   0              0              949.91827      2156.7925     -257.16756      0             -499.79144      0              0              9.5459925      9.7317826      0.2            92.899524    
     11800   0.19646131     0.0018130657   0.0018130657   0              0              1072.1334      2215.4383     -71.392295      0             -649.70578      0              0              9.5450271      9.7346482      0.2            92.917481    
     11900   0.23051726     0.0017662717   0.0017662717   0              0              1249.1642      2247.2911      250.81015      0             -202.47962      0              0              9.5440617      9.7313645      0.2            92.876743    
     12000   0.23923509     0.001439284    0.001439284    0              0              971.1454       2302.6272     -360.58526      0             -477.44118      0              0              9.5430962      9.7377909      0.2            92.928675    
     12100   0.23993513     0.0018519823   0.0018519823   0              0              1380.8802      2333.0751      428.45082      0             -509.05315      0              0              9.5421308      9.7346629      0.2            92.889426    
     12200   0.23877921     0.0014424884   0.0014424884   0              0              757.74809      1880.4635     -365.17711      0              63.360802      0              0              9.5411654      9.7324268      0.2            92.858694    
     12300   0.21830482     0.0015779844   0.0015779844   0              0              999.32182      1667.6371      330.81713      0             -836.17857      0              0              9.5402         9.7316841      0.2            92.842212    
     12400   0.22242098     0.0014672251   0.0014672251   0              0              657.13745      1492.2126     -178.15601      0             -722.435        0              0              9.5392345      9.736105       0.2            92.874989    
     12500   0.20599546     0.0017049261   0.0017049261   0              0              942.12104      1745.3564      138.68584      0             -548.3567       0              0              9.5382691      9.7388461      0.2            92.891735    
     12600   0.20322533     0.0016351657   0.0016351657   0              0              871.40865      1709.8197      32.789709      0             -420.54949      0              0              9.5373037      9.734122       0.2            92.837277    
     12700   0.21078282     0.0016094061   0.0016094061   0              0              681.79503      1539.484      -176.10234      0              566.94893      0              0              9.5363382      9.7334841      0.2            92.821797    
     12800   0.19495185     0.0016455469   0.0016455469   0              0              1686.5678      3101.8283      271.08247      0             -555.4594       0              0              9.5353728      9.7334508      0.2            92.812082    
     12900   0.19717768     0.0020469579   0.0020469579   0              0              1071.7154      2565.1823     -421.94608      0             -934.68163      0              0              9.5344074      9.7410159      0.2            92.874814    
     13000   0.17540938     0.0019138284   0.0019138284   0              0              713.85456      1097.0762      330.44545      0             -295.99823      0              0              9.5334419      9.7344858      0.2            92.803156    
     13100   0.2154911      0.0016422071   0.0016422071   0              0              1224.5661      2618.2369     -169.27585      0             -194.05575      0              0              9.5324765      9.7363427      0.2            92.811458    
     13200   0.18225763     0.0017888938   0.0017888938   0              0              1448.6378      2793.1719      103.87273      0             -528.70622      0              0              9.5315111      9.7368822      0.2            92.8072      
     13300   0.18149827     0.001760134    0.001760134    0              0              1230.1849      2409.9924      50.170419      0             -1148.1885      0              0              9.5305456      9.732503       0.2            92.756065    
     13400   0.20234752     0.0018271285   0.0018271285   0              0              1667.6281      3514.591      -179.54055      0             -568.26055      0              0              9.5295802      9.7356131      0.2            92.776306    
     13500   0.24246212     0.0014320782   0.0014320782   0              0              1452.667       2765.7432      139.35787      0             -902.69295      0              0              9.5286148      9.7390645      0.2            92.799794    
     13600   0.17186313     0.0017260745   0.0017260745   0              0              765.49436      1673.5567     -142.79737      0             -793.34979      0              0              9.5276494      9.7436558      0.2            92.834136    
     13700   0.19252174     0.00160867     0.00160867     0              0              1376.2051      2482.5859      269.59906      0             -1063.0341      0              0              9.5266839      9.7403651      0.2            92.79338     
     13800   0.22043478     0.001877086    0.001877086    0              0              1393.2071      3017.9643     -231.78877      0             -1051.0601      0              0              9.5257185      9.7423021      0.2            92.802428    
     13900   0.20091336     0.001876634    0.001876634    0              0              1181.1833      2172.5948      189.62714      0             -1175.2119      0              0              9.5247531      9.7425393      0.2            92.795282    
     14000   0.19769551     0.0015469064   0.0015469064   0              0              850.82336      1784.0999     -82.685952      0             -498.79827      0              0              9.5237876      9.7493185      0.2            92.850439    
     14100   0.19211836     0.001596177    0.001596177    0              0              1035.8029      2128.5179     -57.091782      0             -728.1821       0              0              9.5228222      9.7483133      0.2            92.831454    
     14200   0.17579334     0.0016977911   0.0016977911   0              0              1430.0138      2605.0022      254.82172      0             -212.20863      0              0              9.5218568      9.7496948      0.2            92.835197    
     14300   0.21863939     0.0018411245   0.0018411245   0              0              936.44218      2223.0422     -350.36593      0             -375.04224      0              0              9.5208913      9.7532422      0.2            92.859559    
     14400   0.24519609     0.0017644122   0.0017644122   0              0              1180.8626      1758.7001      602.85506      0             -341.31477      0              0              9.5199259      9.75426        0.2            92.859833    
     14500   0.26629975     0.0019467682   0.0019467682   0              0              184.51346      1110.7317     -741.92026      0             -635.32784      0              0              9.5189605      9.7616827      0.2            92.921071    
     14600   0.18309723     0.0018047311   0.0018047311   0              0              860.06066      976.04659      743.87604      0              8.5392607      0              0              9.5179951      9.752609       0.2            92.825284    
     14700   0.19405927     0.0016317057   0.0016317057   0              0             -262.85487      232.98231     -758.87445      0             -405.98441      0              0              9.5170296      9.7600908      0.2            92.887073    
     14800   0.20900622     0.0016728456   0.0016728456   0              0              1676.2906      2651.0856      701.28912      0              61.521297      0              0              9.5160642      9.7499785      0.2            92.781421    
     14900   0.19006734     0.0018822823   0.0018822823   0              0             -10.379623      568.43121     -589.40516      0             -436.1239       0              0              9.5150988      9.76064        0.2            92.873453    
     15000   0.20937452     0.0017072242   0.0017072242   0              0              232.33572      179.78339      284.69264      0             -506.2781       0              0              9.5141333      9.7576528      0.2            92.83561     
     15100   0.14462228     0.0017700079   0.0017700079   0              0              575.41216      1246.2412     -95.622757      0              12.483927      0              0              9.5131679      9.7561684      0.2            92.812068    
     15200   0.21089895     0.0016361159   0.0016361159   0              0              742.34361      1676.8492     -192.4144       0             -32.243681      0              0              9.5122025      9.7629427      0.2            92.867087    
     15300   0.22280624     0.0017219928   0.0017219928   0              0              853.2195       1428.1554      278.05146      0             -463.18425      0              0              9.511237       9.7649778      0.2            92.877019    
     15400   0.19286351     0.0019685374   0.0019685374   0              0              392.7237       1393.8318     -608.52956      0              837.67049      0              0              9.5102716      9.7708071      0.2            92.923029    
     15500   0.18204765     0.0019023198   0.0019023198   0              0              1042.3512      1185.4378      899.04696      0             -107.07372      0              0              9.5093062      9.7674876      0.2            92.882031    
     15600   0.28769987     0.0016563441   0.0016563441   0              0              458.05634      1903.2174     -987.32462      0              814.33719      0              0              9.5083407      9.7776338      0.2            92.969074    
     15700   0.18047135     0.001984565    0.001984565    0              0              1385.1575      1784.3554      985.78385      0             -136.6932       0              0              9.5073753      9.764198       0.2            92.831895    
     15800   0.19273175     0.0019829077   0.0019829077   0              0              56.219405      1071.7862     -959.55116      0             -162.93687      0              0              9.5064099      9.7733559      0.2            92.909527    
     15900   0.21941614     0.0016093738   0.0016093738   0              0              1295.0599      1674.998       914.90909      0             -94.906253      0              0              9.5054445      9.7639402      0.2            92.810591    
     16000   0.20957837     0.0018945719   0.0018945719   0              0              563.73931      2077.2396     -949.99272      0             -584.839        0              0              9.504479       9.776937       0.2            92.924693    
     16100   0.2235521      0.0018591119   0.0018591119   0              0              1048.6571      1255.2199      841.87344      0              306.79874      0              0              9.5035136      9.7778648      0.2            92.924071    
     16200   0.1960473      0.0016538531   0.0016538531   0              0              749.88144      2222.2526     -722.67907      0             -147.74316      0              0              9.5025482      9.780475       0.2            92.939435    
     16300   0.2661461      0.0018365686   0.0018365686   0              0              1229.3179      1938.3961      520.03813      0              121.63726      0              0              9.5015827      9.7732527      0.2            92.861369    
     16400   0.24928246     0.0021228433   0.0021228433   0              0              1312.802       2925.733      -300.38298      0             -634.17276      0              0              9.5006173      9.7782677      0.2            92.899579    
     16500   0.19621837     0.0020095016   0.0020095016   0              0              1475.3731      2961.9395     -11.414797      0             -465.81407      0              0              9.4996519      9.7792557      0.2            92.899525    
     16600   0.25467191     0.0018847209   0.0018847209   0              0              1145.2447      1978.9414      311.32671      0             -336.78039      0              0              9.4986864      9.7781398      0.2            92.879484    
     16700   0.22044409     0.0017229825   0.0017229825   0              0              935.91508      2484.0192     -612.35876      0              17.295651      0              0              9.497721       9.7896176      0.2            92.979057    
     16800   0.25343538     0.0018522955   0.0018522955   0              0              986.00804      1210.4289      761.3857       0             -147.33324      0              0              9.4967556      9.7859215      0.2            92.934504    
     16900   0.20302278     0.001960751    0.001960751    0              0             -47.645789      778.59889     -874.13933      0             -746.83036      0              0              9.4957902      9.799888       0.2            93.05768     
     17000   0.20672456     0.0018803977   0.0018803977   0              0              1374.5816      1880.136       868.82455      0              136.32292      0              0              9.4948247      9.7905414      0.2            92.959475    
     17100   0.20133479     0.0019249952   0.0019249952   0              0             -256.0234       335.20815     -847.49392      0              584.97584      0              0              9.4938593      9.7922548      0.2            92.966289    
     17200   0.2548592      0.0017457697   0.0017457697   0              0              1703.7971      2512.974       894.45092      0             -388.15921      0              0              9.4928939      9.7846504      0.2            92.884648    
     17300   0.2046019      0.001896823    0.001896823    0              0              85.829495      1060.7094     -889.25141      0              160.07838      0              0              9.4919284      9.7975843      0.2            92.997969    
     17400   0.2186424      0.0018926522   0.0018926522   0              0              970.5165       1099.1283      841.66475      0              206.10246      0              0              9.490963       9.7975749      0.2            92.988421    
     17500   0.24797657     0.0019179324   0.0019179324   0              0              185.26453      1114.4685     -744.14263      0             -48.865634      0              0              9.4899976      9.799818       0.2            93.000249    
     17600   0.16890572     0.0017718558   0.0017718558   0              0              1317.6078      1972.5861      662.39474      0             -43.933891      0              0              9.4890321      9.7914544      0.2            92.911426    
     17700   0.17658093     0.0018109468   0.0018109468   0              0              324.61129      1257.8365     -608.82416      0             -170.50066      0              0              9.4880667      9.7994231      0.2            92.97758     
     17800   0.20763523     0.0018212784   0.0018212784   0              0              1358.7156      2088.0451      629.19406      0             -251.50249      0              0              9.4871013      9.7878405      0.2            92.858234    
     17900   0.18643328     0.0018651185   0.0018651185   0              0              780.79377      2138.0376     -576.64798      0              91.656567      0              0              9.4861358      9.7929824      0.2            92.897562    
     18000   0.19184832     0.0019268267   0.0019268267   0              0              1245.716       1935.2523      555.94696      0             -282.04024      0              0              9.4851704      9.7974861      0.2            92.930826    
     18100   0.17943727     0.0019504328   0.0019504328   0              0              280.14143      1059.1499     -499.10625      0              506.0506       0              0              9.484205       9.7976896      0.2            92.923297    
     18200   0.21582613     0.0019487923   0.0019487923   0              0              541.22591      724.95914      357.30866      0              703.22566      0              0              9.4832396      9.7993877      0.2            92.929941    
     18300   0.18578904     0.0020751807   0.0020751807   0              0             -224.81737     -146.78854     -303.06551      0             -123.14422      0              0              9.4822741      9.8081492      0.2            93.00356     
     18400   0.24561332     0.0020937343   0.0020937343   0              0              408.0517       485.61768      330.26934      0             -130.4671       0              0              9.4813087      9.8054197      0.2            92.968211    
     18500   0.18634623     0.0020819407   0.0020819407   0              0              573.72656      1284.2509     -136.99577      0              537.45048      0              0              9.4803433      9.8055052      0.2            92.959555    
     18600   0.20358688     0.0018791896   0.0018791896   0              0              1411.906       2712.0817      111.52413      0              756.75403      0              0              9.4793778      9.8071673      0.2            92.965844    
     18700   0.23244248     0.0020105854   0.0020105854   0              0              687.81448      1464.0817     -88.646345      0              263.16871      0              0              9.4784124      9.806504       0.2            92.950089    
     18800   0.2101418      0.0018350939   0.0018350939   0              0              318.16382      556.93614      79.185475      0              204.56273      0              0              9.477447       9.8038485      0.2            92.915454    
     18900   0.16398284     0.0018604009   0.0018604009   0              0              915.47197      1882.3028     -51.556228      0              313.96761      0              0              9.4764815      9.8059368      0.2            92.925779    
     19000   0.23739553     0.0021215889   0.0021215889   0              0              568.40614      1102.6867      33.893019      0             -296.62046      0              0              9.4755161      9.8069781      0.2            92.926179    
     19100   0.21262367     0.0019209081   0.0019209081   0              0              604.81389      1163.0002      46.432743      0             -70.773763      0              0              9.4745507      9.8049127      0.2            92.897142    
     19200   0.19989738     0.0018691916   0.0018691916   0              0              947.37706      2044.7497     -150.21383      0              523.36869      0              0              9.4735853      9.8071528      0.2            92.908898    
     19300   0.19058938     0.0020575537   0.0020575537   0              0              607.12896      1000.6326      213.39666      0              720.03116      0              0              9.4726198      9.8041089      0.2            92.870597    
     19400   0.23725732     0.0020179077   0.0020179077   0              0              321.22943      830.53594     -188.29664      0              505.50717      0              0              9.4716544      9.8074171      0.2            92.892466    
     19500   0.21291191     0.0021242932   0.0021242932   0              0              845.25615      1472.6636      217.62655      0              722.91909      0              0              9.470689       9.7993516      0.2            92.806611    
     19600   0.17566496     0.001982649    0.001982649    0              0              870.2015       1957.7803     -217.65896      0              404.23725      0              0              9.4697235      9.8032264      0.2            92.833844    
     19700   0.23128975     0.0019698564   0.0019698564   0              0              1174.66        2202.8951      146.25856      0              108.56016      0              0              9.4687581      9.8071834      0.2            92.861847    
     19800   0.19145949     0.002108423    0.002108423    0              0              544.81681      1282.4608     -193.04978      0             -4.5804472      0              0              9.4677927      9.8064328      0.2            92.845272    
     19900   0.19667475     0.0022200104   0.0022200104   0              0              617.3815       943.41499      291.11081      0             -45.876333      0              0              9.4668272      9.8090777      0.2            92.860844    
     20000   0.18707494     0.0019887498   0.0019887498   0              0              765.72259      1667.5245     -136.26871      0              132.69858      0              0              9.4658618      9.815954       0.2            92.916464    
     20100   0.24592309     0.0021292009   0.0021292009   0              0              1250.5994      2325.6935      175.31094      0              49.114925      0              0              9.4648964      9.8143181      0.2            92.891504    
     20200   0.20792658     0.0018063082   0.0018063082   0              0              503.42073      1317.5432     -310.91443      0              125.64496      0              0              9.4639309      9.8133111      0.2            92.872499    
     20300   0.17910958     0.0018621151   0.0018621151   0              0              1053.8396      1840.1817      267.30416      0              66.588682      0              0              9.4629655      9.8099461      0.2            92.831182    
     20400   0.19842467     0.0019760249   0.0019760249   0              0              809.73685      1807.4911     -188.20975      0              1.8749276      0              0              9.4620001      9.8128298      0.2            92.848997    
     20500   0.18115876     0.0019804996   0.0019804996   0              0              1639.2089      3097.2283      180.9843       0              160.2304       0              0              9.4610347      9.819545       0.2            92.903056    
     20600   0.19510257     0.0020906812   0.0020906812   0              0              1470.6515      3140.7357     -199.64699      0             -172.22637      0              0              9.4600692      9.8193914      0.2            92.892122    
     20700   0.26220773     0.0019802054   0.0019802054   0              0              1504.0091      2786.0236      221.8052       0              12.227815      0              0              9.4591038      9.8262768      0.2            92.947773    
     20800   0.22833665     0.0022557027   0.0022557027   0              0              923.47953      2060.791      -214.03599      0              222.89574      0              0              9.4581384      9.8357155      0.2            93.027558    
     20900   0.20751893     0.0021118571   0.0021118571   0              0              1636.0576      3069.8522      202.03321      0              311.6346       0              0              9.4571729      9.8305454      0.2            92.969167    
     21000   0.20956339     0.0022048952   0.0022048952   0              0              493.56451      1301.0144     -314.07182      0              753.28539      0              0              9.4562075      9.8312307      0.2            92.966157    
     21100   0.17374557     0.0022365624   0.0022365624   0              0              644.17677      985.08811      303.07826      0              151.19592      0              0              9.4552421      9.8339682      0.2            92.98255     
     21200   0.17316266     0.0019230438   0.0019230438   0              0              826.54393      2053.6404     -400.74061      0              203.00107      0              0              9.4542766      9.8338741      0.2            92.972167    
     21300   0.17763859     0.0020949279   0.0020949279   0              0              913.50303      1474.8227      351.97552      0              46.682068      0              0              9.4533112      9.8348777      0.2            92.97216     
     21400   0.21633154     0.0018466342   0.0018466342   0              0              982.11025      2249.3604     -285.32568      0              109.14055      0              0              9.4523458      9.8325867      0.2            92.94101     
     21500   0.22530092     0.0021457966   0.0021457966   0              0              1128.0008      1909.4854      346.32511      0              397.00642      0              0              9.4513804      9.8293794      0.2            92.901203    
     21600   0.22435242     0.0020119171   0.0020119171   0              0              229.23863      887.83516     -429.56234      0              331.45295      0              0              9.4504149      9.8329075      0.2            92.925055    
     21700   0.20185122     0.0019165012   0.0019165012   0              0              1176.4532      1936.0277      416.68748      0              66.658158      0              0              9.4494495      9.8291089      0.2            92.879668    
     21800   0.21376825     0.0021059533   0.0021059533   0              0              1311.9038      3063.8292     -440.21645      0             -296.08133      0              0              9.4484841      9.8338636      0.2            92.915104    
     21900   0.22845206     0.0020957454   0.0020957454   0              0              1543.4053      2690.0035      396.60917      0              816.54643      0              0              9.4475186      9.8341247      0.2            92.908076    
     22000   0.25851936     0.0018909483   0.0018909483   0              0              477.08685      1355.7226     -401.76538      0              519.01433      0              0              9.4465532      9.834778       0.2            92.904754    
     22100   0.20905253     0.0021224395   0.0021224395   0              0              1350.9736      2163.545       538.19464      0             -63.770005      0              0              9.4455878      9.8303518      0.2            92.853451    
     22200   0.19918588     0.002166475    0.002166475    0              0             -40.89665       567.47863     -649.48248      0              403.01844      0              0              9.4446223      9.8301325      0.2            92.841889    
     22300   0.21571258     0.0022671526   0.0022671526   0              0              1316.8723      1939.8269      693.68483      0              184.07087      0              0              9.4436569      9.8179978      0.2            92.717803    
     22400   0.21740209     0.0023171811   0.0023171811   0              0              257.92003      1105.0245     -589.36157      0             -42.297488      0              0              9.4426915      9.8277146      0.2            92.800077    
     22500   0.18634213     0.0023009968   0.0023009968   0              0              990.05094      1330.0305      649.87102      0             -628.521        0              0              9.441726       9.8307248      0.2            92.81901     
     22600   0.20729521     0.002427097    0.002427097    0              0              373.66653      1476.4251     -729.32125      0             -84.285449      0              0              9.4407606      9.8360045      0.2            92.859364    
     22700   0.18376399     0.0023780882   0.0023780882   0              0              1687.76        2596.2045      779.13291      0              446.88652      0              0              9.4397952      9.8292416      0.2            92.786028    
     22800   0.18928766     0.0022953617   0.0022953617   0              0              839.27733      2448.3004     -769.96128      0             -114.96376      0              0              9.4388298      9.8383528      0.2            92.862538    
     22900   0.17563123     0.002390853    0.002390853    0              0              1664.8758      2563.2632      766.22847      0              104.51169      0              0              9.4378643      9.8266006      0.2            92.742124    
     23000   0.2242667      0.0022536444   0.0022536444   0              0              661.1013       2041.4128     -719.38721      0              500.109        0              0              9.4368989      9.8389776      0.2            92.849437    
     23100   0.18802747     0.0022109357   0.0022109357   0              0              1559.922       2310.3038      809.37517      0              30.242103      0              0              9.4359335      9.8348683      0.2            92.801163    
     23200   0.19671646     0.0023296978   0.0023296978   0              0              65.491505      935.76714     -805.01765      0             -14.546888      0              0              9.434968       9.8422575      0.2            92.861385    
     23300   0.23913514     0.0023837502   0.0023837502   0              0              1452.5883      2076.8448      828.10103      0              654.46801      0              0              9.4340026      9.8424788      0.2            92.853971    
     23400   0.23977399     0.0022443415   0.0022443415   0              0              636.18785      2179.5173     -907.33666      0             -285.09355      0              0              9.4330372      9.8468942      0.2            92.886119    
     23500   0.18923336     0.0022991143   0.0022991143   0              0              1147.077       1338.5601      955.40737      0             -431.61755      0              0              9.4320717      9.8410788      0.2            92.821761    
     23600   0.20659937     0.002509129    0.002509129    0              0              206.19182      1357.086      -944.89562      0             -24.294784      0              0              9.4311063      9.8544626      0.2            92.938484    
     23700   0.21726852     0.0021862713   0.0021862713   0              0              2091.5984      3172.7144      1010.2785      0             -271.35884      0              0              9.4301409      9.8409968      0.2            92.801986    
     23800   0.22161475     0.0022267949   0.0022267949   0              0              550.27721      2197.3515     -1097.011       0             -641.22178      0              0              9.4291755      9.8443198      0.2            92.823819    
     23900   0.22810949     0.0021107624   0.0021107624   0              0              1721.42        2353.0782      1089.5579      0              124.59843      0              0              9.42821        9.8370948      0.2            92.746196    
     24000   0.19668158     0.0024266291   0.0024266291   0              0              605.25632      2229.7305     -1019.459       0              150.78199      0              0              9.4272446      9.8439502      0.2            92.801326    
     24100   0.17986732     0.0026182036   0.0026182036   0              0              1578.5653      2338.5027      818.42707      0             -35.301356      0              0              9.4262792      9.8340209      0.2            92.698226    
     24200   0.26099027     0.0023054059   0.0023054059   0              0              224.62279      1214.1505     -765.11049      0              237.11498      0              0              9.4253137      9.841309       0.2            92.757424    
     24300   0.21106571     0.0026237835   0.0026237835   0              0              1778.8739      2752.7207      804.79828      0              311.37518      0              0              9.4243483      9.8324377      0.2            92.664318    
     24400   0.22366392     0.0022006646   0.0022006646   0              0              387.32059      1591.3655     -816.94299      0              610.34986      0              0              9.4233829      9.8383294      0.2            92.710344    
     24500   0.22837567     0.0024149947   0.0024149947   0              0              1724.378       2551.313       897.21685      0              101.85622      0              0              9.4224174      9.835315       0.2            92.672444    
     24600   0.20492536     0.0025145426   0.0025145426   0              0              804.56936      2392.5456     -783.57308      0             -507.44195      0              0              9.421452       9.8473083      0.2            92.775942    
     24700   0.22963523     0.0023941911   0.0023941911   0              0              1955.0018      3051.9322      857.8829       0              41.176318      0              0              9.4204866      9.8454595      0.2            92.749019    
     24800   0.22437002     0.0023340233   0.0023340233   0              0              764.60941      2318.2764     -789.29966      0              362.352        0              0              9.4195212      9.8463786      0.2            92.748171    
     24900   0.23990224     0.0027378268   0.0027378268   0              0              1430.8308      2108.2331      753.21263      0              264.96179      0              0              9.4185557      9.8392715      0.2            92.671727    
     25000   0.19984167     0.0026106336   0.0026106336   0              0              406.95264      1569.3539     -755.63645      0             -254.35554      0              0              9.4175903      9.8453888      0.2            92.719838    
     25100   0.20057238     0.0026487549   0.0026487549   0              0              1765.5293      2715.4952      815.35595      0              188.40872      0              0              9.4166249      9.843811       0.2            92.695475    
     25200   0.1985607      0.002402924    0.002402924    0              0              446.60536      1801.148      -908.15664      0             -88.064194      0              0              9.4156594      9.8498704      0.2            92.743025    
     25300   0.21148511     0.0023893106   0.0023893106   0              0              1983.7139      3158.8874      808.32674      0              108.22391      0              0              9.414694       9.8444055      0.2            92.682065    
     25400   0.21282413     0.0024694954   0.0024694954   0              0              471.92879      1703.7756     -760.12236      0              212.02717      0              0              9.4137286      9.8512079      0.2            92.736597    
     25500   0.20171137     0.0024224073   0.0024224073   0              0              1855.0893      2969.9529      740.00523      0             -392.0335       0              0              9.4127631      9.8450289      0.2            92.668925    
     25600   0.2248286      0.0025243201   0.0025243201   0              0              1258.2067      3066.1709     -549.96476      0             -113.54741      0              0              9.4117977      9.8517572      0.2            92.722746    
     25700   0.17800789     0.0022727916   0.0022727916   0              0              1133.6284      1775.2283      491.81749      0             -687.90144      0              0              9.4108323      9.8398553      0.2            92.601228    
     25800   0.16435477     0.0023153194   0.0023153194   0              0              745.67921      1924.7756     -433.58803      0              464.33117      0              0              9.4098668      9.8495091      0.2            92.682569    
     25900   0.18599749     0.002625234    0.002625234    0              0              1739.4312      3030.0862      448.57045      0             -738.36607      0              0              9.4089014      9.8478271      0.2            92.657234    
     26000   0.21016511     0.0025045921   0.0025045921   0              0              1481.4762      3453.6985     -490.96863      0              116.32044      0              0              9.407936       9.8540066      0.2            92.705863    
     26100   0.17615584     0.0025391599   0.0025391599   0              0              1975.1147      3479.1958      470.83722      0             -688.7024       0              0              9.4069706      9.8536579      0.2            92.69307     
     26200   0.22683122     0.0027860784   0.0027860784   0              0              802.62335      2088.0716     -482.9952       0              182.80766      0              0              9.4060051      9.8566548      0.2            92.711746    
     26300   0.22173668     0.0025703675   0.0025703675   0              0              921.59711      1465.7688      377.19813      0             -919.98999      0              0              9.4050397      9.8492303      0.2            92.632402    
     26400   0.20732253     0.002067658    0.002067658    0              0              996.14566      2266.4311     -274.38954      0              37.092394      0              0              9.4040743      9.8541461      0.2            92.669121    
     26500   0.21336103     0.0025976645   0.0025976645   0              0              1857.3743      3486.6438      227.87247      0              1016.7946      0              0              9.4031088      9.8493776      0.2            92.61477     
     26600   0.20809514     0.0026757976   0.0026757976   0              0              1266.399       2640.3638     -107.75969      0              527.15212      0              0              9.4021434      9.8515095      0.2            92.625305    
     26700   0.20278622     0.0024044458   0.0024044458   0              0              1565.0131      3127.0785      2.7293705      0             -13.25364       0              0              9.401178       9.8551002      0.2            92.649551    
     26800   0.16302713     0.0025480731   0.0025480731   0              0              1613.1813      3168.8883      57.246708      0             -91.568945      0              0              9.4002125      9.8571976      0.2            92.659753    
     26900   0.19833062     0.0024316638   0.0024316638   0              0              1492.534       3186.9901     -202.08453      0              247.77725      0              0              9.3992471      9.8583212      0.2            92.660797    
     27000   0.22233825     0.0023615156   0.0023615156   0              0              1015.4147      1732.6509      297.9244       0             -269.37039      0              0              9.3982817      9.8568376      0.2            92.637336    
     27100   0.21275669     0.0025181811   0.0025181811   0              0              951.01091      2276.5704     -374.73967      0              141.53359      0              0              9.3973163      9.8555971      0.2            92.616163    
     27200   0.21503297     0.0025405124   0.0025405124   0              0              2175.2189      3957.9739      392.25783      0             -556.56682      0              0              9.3963508      9.8495894      0.2            92.550198    
     27300   0.1940692      0.0022994837   0.0022994837   0              0              1301.9017      3136.3885     -532.79966      0              677.37697      0              0              9.3953854      9.8612288      0.2            92.650045    
     27400   0.19043921     0.0027069944   0.0027069944   0              0              1626.2346      2653.1491      599.12799      0              147.59506      0              0              9.39442        9.8568501      0.2            92.59939     
     27500   0.20741664     0.0025350015   0.0025350015   0              0              926.51861      2532.5404     -679.72187      0              384.23152      0              0              9.3934545      9.8607571      0.2            92.626573    
     27600   0.17652895     0.0024599875   0.0024599875   0              0              2158.0581      3605.978       709.91744      0             -100.08169      0              0              9.3924891      9.8589873      0.2            92.600431    
     27700   0.20211528     0.0026391678   0.0026391678   0              0              1373.9034      3421.3912     -673.7512       0              8.863654       0              0              9.3915237      9.8591904      0.2            92.59282     
     27800   0.21136727     0.0027549494   0.0027549494   0              0              1469.1741      2340.5388      597.58738      0              349.9211       0              0              9.3905582      9.8587481      0.2            92.579148    
     27900   0.18421342     0.0026408001   0.0026408001   0              0              1025.0062      2579.4574     -529.62757      0              450.66006      0              0              9.3895928      9.8625956      0.2            92.605756    
     28000   0.20649762     0.0024763966   0.0024763966   0              0              1794.9471      3193.6033      396.13168      0              1082.6505      0              0              9.3886274      9.8571583      0.2            92.545186    
     28100   0.17889007     0.0025369855   0.0025369855   0              0              1379.6696      3215.9428     -456.81792      0              907.95969      0              0              9.3876619      9.8627198      0.2            92.587879    
     28200   0.22047811     0.0023130947   0.0023130947   0              0              1810.1392      3176.357       443.73181      0              586.643        0              0              9.3866965      9.8583084      0.2            92.536949    
[...]
     43200   0.19034205     0.0021708676   0.0021708676   0              0              768.57721      1640.5791     -103.65333      0              305.98672      0              0              9.241882       9.9559793      0.2            92.011985    
     43300   0.2354488      0.0019547581   0.0019547581   0              0              169.40273      558.6694      -220.09262      0              480.99365      0              0              9.2409165      9.9575897      0.2            92.017255    
     43400   0.18153267     0.0022083214   0.0022083214   0              0              103.89907     -253.18767      460.77453      0              1028.993       0              0              9.2399511      9.9554805      0.2            91.988153    
     43500   0.21417115     0.0018927219   0.0018927219   0              0             -191.38018      110.81576     -493.78922      0              892.27645      0              0              9.2389857      9.9567759      0.2            91.99051     
     43600   0.19312929     0.0019663046   0.0019663046   0              0              518.79969      742.1697       295.24739      0              394.79036      0              0              9.2380202      9.9553965      0.2            91.968154    
     43700   0.18271592     0.0018310644   0.0018310644   0              0              847.61286      1770.4879     -75.458369      0              843.69291      0              0              9.2370548      9.9529423      0.2            91.935873    
     43800   0.19241751     0.0020144574   0.0020144574   0              0              572.07227      1464.2266     -320.27622      0              0.47927567     0              0              9.2360894      9.9603627      0.2            91.9948      
     43900   0.22927678     0.0018550384   0.0018550384   0              0              674.07429      767.26124      580.69258      0              329.73419      0              0              9.2351239      9.9583569      0.2            91.96666     
     44000   0.19929731     0.0023431559   0.0023431559   0              0              154.36439      1026.6741     -718.17412      0              534.86881      0              0              9.2341585      9.966408       0.2            92.031391    
     44100   0.20600338     0.0017718381   0.0017718381   0              0              495.35471      557.82934      432.65921      0              582.60922      0              0              9.2331931      9.9563241      0.2            91.928663    
     44200   0.18559499     0.0019604253   0.0019604253   0              0              43.312341      153.44191     -67.00426       0              731.78043      0              0              9.2322276      9.9597424      0.2            91.950609    
     44300   0.20585303     0.0019101969   0.0019101969   0              0             -129.96681      215.45893     -475.64861      0              1215.2679      0              0              9.2312622      9.9596316      0.2            91.939971    
     44400   0.25494521     0.0017260441   0.0017260441   0              0              982.84022      1214.6912      750.81249      0              846.57691      0              0              9.2302968      9.9561294      0.2            91.898029    
     44500   0.16936575     0.0019338847   0.0019338847   0              0              450.58898      1528.8674     -627.89936      0              801.15181      0              0              9.2293314      9.9675418      0.2            91.993746    
     44600   0.20744134     0.0021304148   0.0021304148   0              0              471.17588      559.56778      382.54093      0              738.09113      0              0              9.2283659      9.9607144      0.2            91.921117    
     44700   0.2491266      0.0018944858   0.0018944858   0              0              965.30078      1851.4325      78.960021      0              1049.1871      0              0              9.2274005      9.959941       0.2            91.904364    
     44800   0.19469588     0.001813998    0.001813998    0              0             -466.96913     -548.27114     -385.85922      0              475.01466      0              0              9.2264351      9.9604412      0.2            91.899364    
     44900   0.19049566     0.0018412797   0.0018412797   0              0              919.2703       1087.8529      750.49415      0              446.30597      0              0              9.2254696      9.9519724      0.2            91.81162     
     45000   0.2325593      0.0020267296   0.0020267296   0              0             -76.99008       572.05289     -726.25838      0              423.93765      0              0              9.2245042      9.9561134      0.2            91.84021     
     45100   0.200777       0.0018590422   0.0018590422   0              0              965.00979      1536.7561      393.08881      0              66.277174      0              0              9.2235388      9.9522535      0.2            91.794996    
     45200   0.19986929     0.0020491264   0.0020491264   0              0              406.4074       722.84015      89.76235       0             -131.15252      0              0              9.2225733      9.9575448      0.2            91.834188    
     45300   0.24869518     0.0019991184   0.0019991184   0              0             -56.406715      321.35152     -434.36995      0              154.2084       0              0              9.2216079      9.9590184      0.2            91.838163    
     45400   0.24047955     0.0020970607   0.0020970607   0              0              928.42011      1219.5563      637.08074      0              807.63433      0              0              9.2206425      9.9499242      0.2            91.744694    
     45500   0.19621589     0.0018211519   0.0018211519   0              0              317.44532      1335.0346     -700.36527      0             -384.70028      0              0              9.2196771      9.9563417      0.2            91.794255    
     45600   0.16282373     0.0018133779   0.0018133779   0              0              231.22719     -14.332316      476.55325      0              309.75285      0              0              9.2187116      9.9517204      0.2            91.742041    
     45700   0.24857306     0.0019221694   0.0019221694   0              0             -32.887532      123.02531     -188.9618       0             -87.819356      0              0              9.2177462      9.9554099      0.2            91.766441    
     45800   0.20912657     0.002211489    0.002211489    0              0             -76.322285      218.14395     -370.96925      0              41.108817      0              0              9.2167808      9.9570056      0.2            91.771538    
     45900   0.20593207     0.0019473494   0.0019473494   0              0              1134.2023      1656.6325      611.53718      0              527.46511      0              0              9.2158153      9.9555664      0.2            91.748662    
     46000   0.18296751     0.0020693869   0.0020693869   0              0              28.852426      854.08549     -796.60981      0             -145.77555      0              0              9.2148499      9.9572361      0.2            91.754437    
     46100   0.24684167     0.0021359925   0.0021359925   0              0              345.65682      245.95046      445.1675       0              193.13472      0              0              9.2138845      9.9579225      0.2            91.751148    
     46200   0.24820996     0.0019805686   0.0019805686   0              0              407.44223      847.86337     -33.173119      0              802.29108      0              0              9.212919       9.9599956      0.2            91.760633    
     46300   0.22654467     0.0020197801   0.0020197801   0              0              460.11485      1266.5506     -346.51536      0              353.55277      0              0              9.2119536      9.9620468      0.2            91.769913    
     46400   0.16566291     0.0015909424   0.0015909424   0              0              928.42548      1015.5834      841.06201      0              443.16628      0              0              9.2109882      9.9627759      0.2            91.767011    
     46500   0.23328477     0.0017699223   0.0017699223   0              0             -64.408504      634.16065     -763.15385      0              732.85853      0              0              9.2100227      9.9679306      0.2            91.804867    
     46600   0.28507805     0.0019997326   0.0019997326   0              0              1179.5973      1969.7965      389.23148      0             -45.972233      0              0              9.2090573      9.9623578      0.2            91.743924    
     46700   0.18986936     0.0019676103   0.0019676103   0              0              630.70857      1117.7468      143.46227      0             -260.16175      0              0              9.2080919      9.9655095      0.2            91.763327    
     46800   0.18950288     0.0019813863   0.0019813863   0              0              516.22898      1845.8407     -813.59181      0              60.964199      0              0              9.2071265      9.9631457      0.2            91.731942    
     46900   0.21719689     0.0016985437   0.0016985437   0              0              1134.4562      1139.4243      1129.2741      0              164.23549      0              0              9.206161       9.9619001      0.2            91.710856    
     47000   0.14785934     0.002018044    0.002018044    0              0              211.64552      1168.7708     -745.69353      0              968.94097      0              0              9.2051956      9.9698117      0.2            91.774067    
     47100   0.21742552     0.0019030749   0.0019030749   0              0              574.40987      1111.4298      37.179583      0              462.28104      0              0              9.2042302      9.9617948      0.2            91.690652    
     47200   0.22631604     0.0018915085   0.0018915085   0              0              1568.0882      2325.0377      810.96453      0              693.57111      0              0              9.2032647      9.9564505      0.2            91.63185     
     47300   0.23583131     0.0018530612   0.0018530612   0              0              244.09021      1760.819      -1272.8638      0              476.61586      0              0              9.2022993      9.9694701      0.2            91.742047    
     47400   0.16299786     0.0019552595   0.0019552595   0              0              1940.975       2816.114       1065.6607      0              1274.5992      0              0              9.2013339      9.9613321      0.2            91.657543    
     47500   0.23588678     0.0016477026   0.0016477026   0              0             -88.186707      192.67887     -369.23653      0              887.0904       0              0              9.2003684      9.9684456      0.2            91.713372    
     47600   0.18643281     0.0018755988   0.0018755988   0              0              266.19597      1121.3599     -589.15938      0              860.98114      0              0              9.199403       9.9707499      0.2            91.724946    
     47700   0.20596997     0.0018573688   0.0018573688   0              0              1161.3961      1081.038       1241.5338      0              398.20816      0              0              9.1984376      9.9623477      0.2            91.638033    
     47800   0.24248531     0.0018208829   0.0018208829   0              0             -324.66076      727.37819     -1376.9172      0              1057.2955      0              0              9.1974722      9.97404        0.2            91.735955    
     47900   0.22491986     0.0020087815   0.0020087815   0              0              1194.1731      1460.6154      927.51381      0              1014.672       0              0              9.1965067      9.9585571      0.2            91.583937    
     48000   0.22367483     0.0019577981   0.0019577981   0              0              40.817955     -5.4266427      86.830301      0              497.04971      0              0              9.1955413      9.9640343      0.2            91.624689    
     48100   0.20733752     0.0019669785   0.0019669785   0              0             -905.49503     -596.18737     -1215.0233      0              1093.4998      0              0              9.1945759      9.9710154      0.2            91.679258    
     48200   0.2108993      0.0021298061   0.0021298061   0              0              1132.953       631.28336      1634.4155      0              1409.8532      0              0              9.1936104      9.9592573      0.2            91.561532    
     48300   0.21463468     0.0022617339   0.0022617339   0              0             -605.64135      166.6723      -1378.1543      0              1066.7654      0              0              9.192645       9.9701019      0.2            91.651607    
     48400   0.1949071      0.0018064393   0.0018064393   0              0              252.25867      22.256593      482.06966      0              693.17523      0              0              9.1916796      9.9665845      0.2            91.609651    
     48500   0.19863063     0.001803301    0.001803301    0              0              1138.3599      1828.3939      448.07955      0              1397.4222      0              0              9.1907141      9.9661839      0.2            91.596347    
     48600   0.20798678     0.0017725909   0.0017725909   0              0             -57.140834      953.60371     -1068.1402      0              894.95787      0              0              9.1897487      9.9784726      0.2            91.699655    
     48700   0.19896792     0.0017926517   0.0017926517   0              0              1743.1466      2485.2082      1000.8741      0              824.4197       0              0              9.1887833      9.9733395      0.2            91.642855    
     48800   0.20598637     0.001712747    0.001712747    0              0             -196.76132      131.24709     -524.96653      0              1298.8596      0              0              9.1878178      9.9857867      0.2            91.74759     
     48900   0.16612058     0.0020944016   0.0020944016   0              0              440.21829      927.95214     -47.722685      0              851.12465      0              0              9.1868524      9.9716189      0.2            91.607791    
     49000   0.2262087      0.0020268645   0.0020268645   0              0              1037.9092      1652.006       423.57607      0              699.99697      0              0              9.185887       9.9746083      0.2            91.625624    
     49100   0.20907412     0.0018630027   0.0018630027   0              0              293.00157      1194.8781     -609.06733      0             -333.99851      0              0              9.1849216      9.9818647      0.2            91.682644    
     49200   0.2101789      0.0019781859   0.0019781859   0              0              582.81516      806.60822      358.79223      0              386.64795      0              0              9.1839561      9.9704786      0.2            91.568438    
     49300   0.22983762     0.0017522201   0.0017522201   0              0              791.44114      1597.1319     -14.462632      0              808.6554       0              0              9.1829907      9.9684714      0.2            91.54038     
     49400   0.21588828     0.0017666981   0.0017666981   0              0              917.94416      2184.1033     -348.39297      0              549.85611      0              0              9.1820253      9.9704533      0.2            91.548954    
     49500   0.1831019      0.0017954867   0.0017954867   0              0              213.15019     -7.7994049      433.94725      0              412.75372      0              0              9.1810598      9.9686347      0.2            91.522632    
     49600   0.20239416     0.0019248899   0.0019248899   0              0             -96.391955      295.53375     -488.47909      0              351.96468      0              0              9.1800944      9.9747271      0.2            91.568937    
     49700   0.20627405     0.0017791116   0.0017791116   0              0              349.28768      348.54111      349.80883      0              1050.5739      0              0              9.179129       9.9740169      0.2            91.552787    
     49800   0.14457075     0.0015906211   0.0015906211   0              0              649.31893      1439.236      -140.83174      0              716.62628      0              0              9.1781635      9.9773717      0.2            91.573949    
     49900   0.18203163     0.0015992661   0.0015992661   0              0              329.38041      1033.2109     -374.67663      0              828.49078      0              0              9.1771981      9.9781971      0.2            91.571891    
     50000   0.2064266      0.0016864464   0.0016864464   0              0              824.46869      1063.0703      585.64807      0              850.163        0              0              9.1762327      9.9761759      0.2            91.543711    
     50100   0.19112736     0.0017386349   0.0017386349   0              0             -298.40088      9.8186337     -606.81792      0              755.76368      0              0              9.1752673      9.9851317      0.2            91.616252    
     50200   0.19737052     0.0019381437   0.0019381437   0              0              1153.4114      2116.1721      190.45658      0              777.59631      0              0              9.1743018      9.9807985      0.2            91.566858    
     50300   0.16355076     0.0018302295   0.0018302295   0              0              288.34826      236.32937      340.1734       0              1349.9768      0              0              9.1733364      9.9865329      0.2            91.609826    
     50400   0.21890497     0.0017468921   0.0017468921   0              0              140.41988      1046.294      -765.6878       0              1474.7976      0              0              9.172371       9.9906146      0.2            91.637623    
     50481   0.18316864     0.0017741938   0.0017741938   0              0             -46.04032       390.75164     -483.05056      0              441.66192      0              0              9.171589       9.9848466      0.2            91.576909    
Loop time of 1.26104 on 1 procs for 50000 steps with 70 atoms

Performance: 34257.557 ns/day, 0.001 hours/ns, 39649.950 timesteps/s
99.0% CPU use with 1 MPI tasks x 1 OpenMP threads

MPI task timing breakdown:
Section |  min time  |  avg time  |  max time  |%varavg| %total
---------------------------------------------------------------
Pair    | 0          | 0          | 0          |   0.0 |  0.00
Bond    | 0.19319    | 0.19319    | 0.19319    |   0.0 | 15.32
Neigh   | 0          | 0          | 0          |   0.0 |  0.00
Comm    | 0.42396    | 0.42396    | 0.42396    |   0.0 | 33.62
Output  | 0.0074778  | 0.0074778  | 0.0074778  |   0.0 |  0.59
Modify  | 0.60669    | 0.60669    | 0.60669    |   0.0 | 48.11
Other   |            | 0.02973    |            |       |  2.36

Nlocal:             70 ave          70 max          70 min
Histogram: 1 0 0 0 0 0 0 0 0 0
Nghost:            594 ave         594 max         594 min
Histogram: 1 0 0 0 0 0 0 0 0 0
Neighs:              0 ave           0 max           0 min
Histogram: 1 0 0 0 0 0 0 0 0 0

Total # of neighbors = 0
Ave neighs/atom = 0
Ave special neighs/atom = 24.542857
Neighbor list builds = 0
Dangerous builds = 0


Total wall time: 0:00:01
