ITEM: TIMESTEP
250
ITEM: NUMBER OF ATOMS
73
ITEM: BOX BOUNDS pp pp pp
-4.8205464101156901e+00 4.8205464101156901e+00
-4.8206427361616386e+00 4.8206427361616386e+00
-1.0000000000000001e-01 1.0000000000000001e-01
ITEM: ATOMS id type xs ys zs
8 1 0.235523 0.118962 0.500326
54 1 0.373813 0.0206422 0.5
57 1 0.502653 0.16577 0.499663
40 1 0.592652 0.0767067 0.500019
29 1 0.720526 0.065641 0.5002
72 1 0.794636 0.0091556 0.500094
48 1 0.842432 0.0755214 0.500026
42 1 0.933267 0.0532634 0.49975
61 1 0.112067 0.211916 0.500191
41 1 0.104259 0.124335 0.499864
47 1 0.17464 0.218083 0.500202
35 1 0.323241 0.230836 0.500232
25 1 0.383884 0.129644 0.499704
63 1 0.583369 0.171981 0.500164
75 1 0.671092 0.136704 0.499455
55 1 0.779298 0.161356 0.499957
15 1 0.890446 0.186171 0.499827
36 1 0.016146 0.236312 0.500087
34 1 0.117416 0.315825 0.499934
38 1 0.234943 0.301517 0.499975
7 1 0.433905 0.274963 0.499964
17 1 0.667524 0.248601 0.499655
68 1 0.554451 0.233064 0.500009
66 1 0.772596 0.246997 0.499967
10 1 0.870141 0.320468 0.500119
1 1 0.0516294 0.442763 0.500129
50 1 0.177686 0.410036 0.500172
14 1 0.447701 0.424669 0.499808
27 1 0.557992 0.328281 0.49988
52 1 0.74221 0.329176 0.499993
30 1 0.773728 0.428362 0.499767
49 1 0.992129 0.345117 0.499643
65 1 0.0036165 0.539343 0.500256
33 1 0.159473 0.520199 0.50024
64 1 0.262558 0.386718 0.499967
24 1 0.265279 0.487889 0.499935
26 1 0.54675 0.560886 0.500132
11 1 0.628489 0.452243 0.500264
31 1 0.912825 0.463379 0.49994
53 1 0.076056 0.576139 0.500109
44 1 0.138832 0.629571 0.499707
12 1 0.271858 0.637181 0.499804
19 1 0.39804 0.549358 0.499618
77 1 0.475481 0.629712 0.500207
51 1 0.652029 0.568991 0.500008
76 1 0.656182 0.649854 0.499807
3 1 0.785757 0.574596 0.499503
22 1 0.92657 0.590651 0.500021
18 1 0.0106958 0.69473 0.500596
32 1 0.148479 0.741717 0.499936
74 1 0.384434 0.675987 0.499669
71 1 0.334741 0.710162 0.499931
5 1 0.420624 0.777813 0.499691
2 1 0.560706 0.698684 0.500069
13 1 0.743096 0.711839 0.499999
21 1 0.0835311 0.870542 0.499621
20 1 0.265029 0.790428 0.500152
59 1 0.391832 0.8935 0.500253
16 1 0.517614 0.900089 0.499899
37 1 0.634287 0.8103 0.499891
80 1 0.718914 0.82366 0.499858
28 1 0.826507 0.834784 0.500186
60 1 0.924122 0.859713 0.499984
58 1 0.985736 0.812104 0.500224
39 1 0.993437 0.955156 0.499824
9 1 0.136221 0.005676 0.500236
43 1 0.185068 0.886433 0.500166
6 1 0.278568 0.951119 0.499886
73 1 0.431686 0.962011 0.500134
69 1 0.540002 0.0129715 0.49986
67 1 0.59104 0.969153 0.499832
4 1 0.685699 0.929521 0.4998
23 1 0.874221 0.950847 0.500061
ITEM: TIMESTEP
500
ITEM: NUMBER OF ATOMS
73
ITEM: BOX BOUNDS pp pp pp
-4.8193412626668337e+00 4.8193412626668337e+00
-4.8216575899723617e+00 4.8216575899723617e+00
-1.0000000000000001e-01 1.0000000000000001e-01
ITEM: ATOMS id type xs ys zs
8 1 0.235913 0.118864 0.50076
54 1 0.373083 0.0217175 0.498875
57 1 0.502811 0.166055 0.502123
40 1 0.592163 0.0772286 0.500963
29 1 0.720703 0.0666485 0.5002
72 1 0.794716 0.00932597 0.500793
48 1 0.84347 0.0750751 0.501053
42 1 0.934746 0.0536932 0.499424
61 1 0.112371 0.212118 0.502429
41 1 0.104384 0.124482 0.499373
47 1 0.174906 0.218532 0.501663
35 1 0.323197 0.231215 0.500971
25 1 0.383969 0.130542 0.50043
63 1 0.583499 0.172851 0.500195
75 1 0.670693 0.1371 0.499324
55 1 0.779875 0.161818 0.499524
15 1 0.891675 0.185484 0.499631
36 1 0.016552 0.23731 0.500624
34 1 0.117812 0.316843 0.498281
38 1 0.234861 0.301914 0.500695
7 1 0.433754 0.275596 0.498339
17 1 0.667408 0.249201 0.499871
68 1 0.55428 0.233781 0.501895
66 1 0.772986 0.247059 0.498843
10 1 0.870887 0.319967 0.49898
1 1 0.0518462 0.443123 0.50165
50 1 0.178019 0.410345 0.501378
14 1 0.44783 0.424854 0.498219
27 1 0.557931 0.328468 0.498755
52 1 0.742414 0.329773 0.500118
30 1 0.77344 0.428372 0.498766
49 1 0.992275 0.345986 0.500911
65 1 0.00337208 0.53909 0.499963
33 1 0.159052 0.520358 0.499929
64 1 0.262997 0.386847 0.50095
24 1 0.265244 0.488019 0.501181
26 1 0.547445 0.562038 0.500271
11 1 0.628107 0.453155 0.500498
31 1 0.913232 0.462949 0.500997
53 1 0.0753706 0.575876 0.499794
44 1 0.138367 0.629385 0.497715
12 1 0.271784 0.637336 0.500524
19 1 0.39798 0.549461 0.498744
77 1 0.475392 0.630073 0.499233
51 1 0.652598 0.569745 0.499699
76 1 0.655523 0.650485 0.49893
3 1 0.786361 0.574496 0.499421
22 1 0.926426 0.590023 0.501092
18 1 0.0104636 0.694047 0.501137
32 1 0.148017 0.741529 0.500443
74 1 0.38394 0.677051 0.499605
71 1 0.334127 0.711122 0.501709
5 1 0.419974 0.778363 0.501137
2 1 0.560013 0.69958 0.500415
13 1 0.743427 0.712289 0.500368
21 1 0.0834008 0.869754 0.500571
20 1 0.264057 0.790975 0.502007
59 1 0.391616 0.894499 0.499603
16 1 0.517451 0.899757 0.499272
37 1 0.634505 0.810223 0.500448
80 1 0.718834 0.823687 0.49892
28 1 0.827284 0.835574 0.500429
60 1 0.924862 0.859636 0.499107
58 1 0.985704 0.811391 0.498972
39 1 0.994238 0.95501 0.499927
9 1 0.135265 0.00589797 0.500304
43 1 0.184341 0.886269 0.500929
6 1 0.27809 0.951763 0.498618
73 1 0.431299 0.963168 0.501059
69 1 0.540869 0.012443 0.500427
67 1 0.59121 0.967929 0.498943
4 1 0.686337 0.929781 0.498673
23 1 0.875081 0.95177 0.500887
ITEM: TIMESTEP
750
ITEM: NUMBER OF ATOMS
73
ITEM: BOX BOUNDS pp pp pp
-4.8181361152179782e+00 4.8181361152179782e+00
-4.8222918012552229e+00 4.8222918012552229e+00
-1.0000000000000001e-01 1.0000000000000001e-01
ITEM: ATOMS id type xs ys zs
8 1 0.234975 0.119693 0.501023
54 1 0.373584 0.0203254 0.497558
57 1 0.502056 0.167713 0.502755
40 1 0.593349 0.0775767 0.501868
29 1 0.721765 0.0667041 0.501016
72 1 0.795394 0.0092176 0.502048
48 1 0.843208 0.0754499 0.4996
42 1 0.934154 0.0534751 0.498855
61 1 0.112325 0.211995 0.502923
41 1 0.103882 0.124224 0.500362
47 1 0.17512 0.21921 0.501137
35 1 0.323435 0.231133 0.500429
25 1 0.38321 0.129357 0.499604
63 1 0.583196 0.173083 0.499436
75 1 0.67171 0.137281 0.498572
55 1 0.781186 0.162103 0.50113
15 1 0.892987 0.185981 0.500636
36 1 0.0167314 0.236665 0.49987
34 1 0.117726 0.316271 0.497558
38 1 0.235714 0.302322 0.501169
7 1 0.433779 0.276478 0.497272
17 1 0.667655 0.248917 0.501526
68 1 0.554705 0.234121 0.502051
66 1 0.772863 0.247269 0.499726
10 1 0.869978 0.320215 0.497831
1 1 0.0520566 0.443186 0.502268
50 1 0.178118 0.410067 0.50199
14 1 0.447978 0.425765 0.498362
27 1 0.558336 0.329457 0.499487
52 1 0.742399 0.329196 0.500324
30 1 0.773904 0.428262 0.500329
49 1 0.992566 0.345311 0.500217
65 1 0.00397478 0.540258 0.49864
33 1 0.160475 0.520662 0.500529
64 1 0.263225 0.387275 0.500493
24 1 0.265861 0.488322 0.499624
26 1 0.546966 0.561605 0.500543
11 1 0.629108 0.453214 0.500025
31 1 0.912678 0.463424 0.500774
53 1 0.0765297 0.576237 0.50003
44 1 0.139356 0.629878 0.497842
12 1 0.273001 0.636418 0.499024
19 1 0.398786 0.550065 0.500322
77 1 0.476215 0.630779 0.499337
51 1 0.651836 0.569799 0.500503
76 1 0.656303 0.650394 0.499497
3 1 0.785209 0.573685 0.498932
22 1 0.926009 0.590502 0.500501
18 1 0.00996582 0.694603 0.502334
32 1 0.147276 0.742019 0.500367
74 1 0.384983 0.675721 0.501062
71 1 0.335404 0.709727 0.500359
5 1 0.420437 0.778626 0.500021
2 1 0.56111 0.699638 0.501739
13 1 0.743024 0.712218 0.502916
21 1 0.0842821 0.870091 0.501707
20 1 0.265177 0.790081 0.501676
59 1 0.391619 0.894028 0.497596
16 1 0.517927 0.900644 0.498118
37 1 0.634766 0.811159 0.500558
80 1 0.719262 0.82434 0.498718
28 1 0.826184 0.835383 0.499602
60 1 0.924382 0.859595 0.499899
58 1 0.986432 0.811965 0.500497
39 1 0.994524 0.954992 0.49917
9 1 0.13666 0.00566165 0.502475
43 1 0.18512 0.886415 0.499802
6 1 0.278666 0.950289 0.49738
73 1 0.431972 0.962309 0.502098
69 1 0.54121 0.0134341 0.502662
67 1 0.591613 0.969414 0.497615
4 1 0.686952 0.930512 0.499868
23 1 0.875388 0.951089 0.501892
ITEM: TIMESTEP
1000
ITEM: NUMBER OF ATOMS
73
ITEM: BOX BOUNDS pp pp pp
-4.8169309677691219e+00 4.8169309677691219e+00
-4.8215039740872241e+00 4.8215039740872241e+00
-1.0000000000000001e-01 1.0000000000000001e-01
ITEM: ATOMS id type xs ys zs
8 1 0.235166 0.119792 0.499599
54 1 0.373426 0.0200601 0.496859
57 1 0.502823 0.166518 0.504128
40 1 0.593053 0.0779943 0.501653
29 1 0.721221 0.0658597 0.501832
72 1 0.795433 0.00921959 0.501424
48 1 0.843293 0.0755779 0.499119
42 1 0.933852 0.0530975 0.499372
61 1 0.111419 0.211689 0.503581
41 1 0.104046 0.124 0.501567
47 1 0.17401 0.217973 0.501137
35 1 0.324241 0.230828 0.500753
25 1 0.384003 0.128937 0.500572
63 1 0.583471 0.173191 0.500757
75 1 0.672206 0.13755 0.498164
55 1 0.780076 0.161622 0.499668
15 1 0.891177 0.186785 0.500186
36 1 0.0157917 0.237432 0.4993
34 1 0.117273 0.315785 0.497342
38 1 0.23548 0.301025 0.499947
7 1 0.434298 0.275816 0.497517
17 1 0.66766 0.248923 0.500689
68 1 0.553971 0.234122 0.501694
66 1 0.773004 0.246548 0.50174
10 1 0.870741 0.32135 0.497675
1 1 0.0526821 0.443863 0.504471
50 1 0.177977 0.410032 0.502645
14 1 0.448574 0.425372 0.498372
27 1 0.558695 0.329238 0.497172
52 1 0.742452 0.329073 0.501398
30 1 0.773867 0.428386 0.500992
49 1 0.992655 0.34617 0.501169
65 1 0.00438056 0.540423 0.498495
33 1 0.160341 0.520399 0.501148
64 1 0.262833 0.386644 0.500571
24 1 0.266049 0.487997 0.501345
26 1 0.547617 0.56193 0.500851
11 1 0.629609 0.45312 0.500694
31 1 0.913528 0.464233 0.498861
53 1 0.0769668 0.576859 0.500694
44 1 0.139556 0.629982 0.499985
12 1 0.272713 0.637192 0.498106
19 1 0.399271 0.549601 0.499635
77 1 0.476098 0.630661 0.499787
51 1 0.652787 0.569873 0.500879
76 1 0.655702 0.650715 0.499544
3 1 0.786578 0.574331 0.498567
22 1 0.926823 0.590755 0.501395
18 1 0.0106461 0.694847 0.503629
32 1 0.148611 0.742738 0.499241
74 1 0.385206 0.676144 0.499475
71 1 0.335288 0.709805 0.499307
5 1 0.420879 0.778505 0.499196
2 1 0.561058 0.700026 0.501435
13 1 0.743598 0.712022 0.503191
21 1 0.0836989 0.870236 0.499761
20 1 0.265843 0.790023 0.50019
59 1 0.392305 0.894371 0.496477
16 1 0.518133 0.899745 0.49562
37 1 0.635283 0.811115 0.50091
80 1 0.720062 0.823847 0.499349
28 1 0.826657 0.834931 0.501562
60 1 0.924198 0.858714 0.499951
58 1 0.985958 0.811624 0.500499
39 1 0.993458 0.954597 0.497915
9 1 0.135943 0.0058942 0.502761
43 1 0.185186 0.885811 0.500624
6 1 0.278152 0.950425 0.497057
73 1 0.432566 0.962863 0.502082
69 1 0.541548 0.0128668 0.502359
67 1 0.592232 0.968218 0.497639
4 1 0.687862 0.929817 0.498881
23 1 0.874921 0.950291 0.502309
ITEM: TIMESTEP
1250
ITEM: NUMBER OF ATOMS
73
ITEM: BOX BOUNDS pp pp pp
-4.8157258203202655e+00 4.8157258203202655e+00
-4.8274410662741909e+00 4.8274410662741909e+00
-1.0000000000000001e-01 1.0000000000000001e-01
ITEM: ATOMS id type xs ys zs
8 1 0.234415 0.119758 0.501549
54 1 0.373667 0.0207874 0.496197
57 1 0.502375 0.166649 0.506821
40 1 0.59336 0.0772593 0.500516
29 1 0.721199 0.0657566 0.504396
72 1 0.795006 0.00902463 0.503232
48 1 0.842294 0.0759816 0.497855
42 1 0.933246 0.0534657 0.500418
61 1 0.111153 0.211018 0.502952
41 1 0.102806 0.123441 0.501411
47 1 0.173724 0.218426 0.503232
35 1 0.322955 0.231212 0.500348
25 1 0.383039 0.129528 0.501061
63 1 0.583024 0.172549 0.499864
75 1 0.672787 0.137123 0.498861
55 1 0.779285 0.161504 0.499034
15 1 0.890877 0.186672 0.501307
36 1 0.0161999 0.238347 0.500461
34 1 0.118023 0.316849 0.496865
38 1 0.235118 0.30116 0.498207
7 1 0.43352 0.275562 0.49756
17 1 0.667223 0.249199 0.502069
68 1 0.554149 0.233455 0.501848
66 1 0.772479 0.247109 0.503056
10 1 0.87002 0.321018 0.49653
1 1 0.0524328 0.443893 0.504365
50 1 0.178267 0.410266 0.501771
14 1 0.448424 0.425158 0.498219
27 1 0.557706 0.328381 0.496228
52 1 0.74244 0.328963 0.500249
30 1 0.773322 0.428377 0.500389
49 1 0.992099 0.347311 0.49808
65 1 0.00446121 0.539602 0.499199
33 1 0.160256 0.520637 0.501628
64 1 0.262783 0.385869 0.500092
24 1 0.266223 0.48663 0.501355
26 1 0.547623 0.561964 0.501747
11 1 0.627727 0.453106 0.499718
31 1 0.912858 0.46314 0.498119
53 1 0.0766612 0.576681 0.501466
44 1 0.139574 0.629964 0.501199
12 1 0.2722 0.636497 0.498514
19 1 0.398975 0.5496 0.500927
77 1 0.475657 0.630706 0.499313
51 1 0.653184 0.569661 0.499657
76 1 0.656345 0.650127 0.498005
3 1 0.78648 0.574287 0.49869
22 1 0.927251 0.590395 0.501607
18 1 0.0113915 0.694355 0.503549
32 1 0.148845 0.741435 0.499725
74 1 0.384767 0.676309 0.50065
71 1 0.334826 0.71033 0.498029
5 1 0.421047 0.778255 0.500782
2 1 0.560931 0.699362 0.50207
13 1 0.743914 0.711375 0.504116
21 1 0.0835684 0.870678 0.500228
20 1 0.265373 0.789993 0.500954
59 1 0.392191 0.893937 0.49644
16 1 0.518188 0.900127 0.494209
37 1 0.635293 0.810092 0.501484
80 1 0.720076 0.822809 0.500538
28 1 0.826161 0.83517 0.50284
60 1 0.924336 0.860214 0.501099
58 1 0.985543 0.811841 0.500329
39 1 0.993617 0.95585 0.498119
9 1 0.136137 0.00525142 0.503989
43 1 0.185129 0.885636 0.500509
6 1 0.278632 0.950173 0.495678
73 1 0.431762 0.962431 0.499763
69 1 0.542408 0.0122303 0.502115
67 1 0.593096 0.96803 0.496245
4 1 0.68802 0.929043 0.500112
23 1 0.874617 0.950895 0.503577
ITEM: TIMESTEP
1500
ITEM: NUMBER OF ATOMS
73
ITEM: BOX BOUNDS pp pp pp
-4.8145206728714101e+00 4.8145206728714101e+00
-4.8287603514526651e+00 4.8287603514526651e+00
-1.0000000000000001e-01 1.0000000000000001e-01
ITEM: ATOMS id type xs ys zs
8 1 0.235058 0.11925 0.502828
54 1 0.37438 0.0204842 0.494315
57 1 0.500842 0.166635 0.506612
40 1 0.593444 0.0781367 0.499345
29 1 0.720578 0.0652516 0.503849
72 1 0.79491 0.00899709 0.502351
48 1 0.841842 0.0764982 0.500613
42 1 0.932656 0.0535671 0.500592
61 1 0.111384 0.211399 0.502936
41 1 0.103248 0.123442 0.502274
47 1 0.174183 0.218326 0.502108
35 1 0.323074 0.23085 0.500967
25 1 0.383587 0.129509 0.499152
63 1 0.581461 0.172519 0.501334
75 1 0.673468 0.137295 0.498122
55 1 0.778528 0.160581 0.497597
15 1 0.889188 0.187544 0.501863
36 1 0.0160086 0.238029 0.498429
34 1 0.117468 0.316506 0.498128
38 1 0.234734 0.301722 0.498145
7 1 0.433436 0.276625 0.496646
17 1 0.666766 0.248793 0.501123
68 1 0.553071 0.233798 0.499698
66 1 0.772488 0.246699 0.504449
10 1 0.870108 0.321453 0.497867
1 1 0.0525994 0.443897 0.502897
50 1 0.178549 0.410194 0.502489
14 1 0.44884 0.4261 0.499234
27 1 0.55808 0.328784 0.496024
52 1 0.742103 0.328786 0.501095
30 1 0.772401 0.428557 0.499026
49 1 0.992337 0.346625 0.498328
65 1 0.00385161 0.54034 0.499912
33 1 0.160287 0.520294 0.501878
64 1 0.263218 0.386737 0.499427
24 1 0.266623 0.487948 0.502019
26 1 0.54728 0.562172 0.500431
11 1 0.6281 0.452444 0.499027
31 1 0.913948 0.463936 0.498061
53 1 0.0766676 0.576097 0.503361
44 1 0.139227 0.629898 0.501641
12 1 0.271904 0.637406 0.499881
19 1 0.398612 0.550642 0.501535
77 1 0.47562 0.631279 0.499439
51 1 0.652916 0.568953 0.499378
76 1 0.65648 0.649541 0.501236
3 1 0.786482 0.574513 0.497132
22 1 0.926755 0.590998 0.502222
18 1 0.0118105 0.694546 0.504268
32 1 0.148863 0.741538 0.500143
74 1 0.385054 0.676339 0.501417
71 1 0.335179 0.710015 0.500048
5 1 0.421356 0.777572 0.500237
2 1 0.561149 0.699691 0.503883
13 1 0.743654 0.711705 0.503419
21 1 0.0831708 0.871343 0.500521
20 1 0.265507 0.790241 0.501319
59 1 0.39227 0.892685 0.496743
16 1 0.518267 0.900761 0.495139
37 1 0.634788 0.810888 0.502392
80 1 0.719429 0.823266 0.501366
28 1 0.826765 0.835485 0.503584
60 1 0.924988 0.859955 0.499427
58 1 0.986014 0.811707 0.501249
39 1 0.993527 0.955882 0.500635
9 1 0.136909 0.00572603 0.505412
43 1 0.185149 0.885552 0.499498
6 1 0.278885 0.950067 0.493481
73 1 0.431665 0.961093 0.500596
69 1 0.542065 0.0132677 0.5026
67 1 0.592576 0.969167 0.497721
4 1 0.687198 0.929392 0.499351
23 1 0.874655 0.950633 0.503665
ITEM: TIMESTEP
1750
ITEM: NUMBER OF ATOMS
73
ITEM: BOX BOUNDS pp pp pp
-4.8133155254225537e+00 4.8133155254225537e+00
-4.8314749914724331e+00 4.8314749914724331e+00
-1.0000000000000001e-01 1.0000000000000001e-01
ITEM: ATOMS id type xs ys zs
8 1 0.235114 0.11906 0.502883
54 1 0.374008 0.0201721 0.494565
57 1 0.50056 0.166765 0.507872
40 1 0.592553 0.0771625 0.497436
29 1 0.720704 0.0660201 0.503184
72 1 0.795309 0.0102306 0.502002
48 1 0.841913 0.0770083 0.498719
42 1 0.932405 0.0533122 0.499016
61 1 0.111601 0.21263 0.504043
41 1 0.103709 0.124688 0.502741
47 1 0.17409 0.218256 0.502833
35 1 0.323207 0.230779 0.499965
25 1 0.383301 0.12918 0.498819
63 1 0.581893 0.172303 0.502103
75 1 0.671141 0.137104 0.498054
55 1 0.777601 0.162756 0.497497
15 1 0.889198 0.187789 0.502125
36 1 0.0163085 0.238448 0.500298
34 1 0.118046 0.316745 0.499487
38 1 0.235314 0.301745 0.496392
7 1 0.43372 0.276431 0.496842
17 1 0.667026 0.248467 0.500699
68 1 0.553328 0.233619 0.498729
66 1 0.772557 0.248269 0.504528
10 1 0.869375 0.321627 0.499155
1 1 0.0521279 0.443667 0.501191
50 1 0.178327 0.410525 0.500826
14 1 0.449218 0.425765 0.499888
27 1 0.558291 0.328508 0.495807
52 1 0.740873 0.330208 0.501431
30 1 0.773518 0.428887 0.497685
49 1 0.991432 0.346937 0.495616
65 1 0.00432655 0.540106 0.500204
33 1 0.160123 0.5204 0.502902
64 1 0.262794 0.386958 0.501635
24 1 0.265686 0.488181 0.499847
26 1 0.547643 0.561192 0.499381
11 1 0.628126 0.452099 0.498658
31 1 0.912831 0.464119 0.500199
53 1 0.0769735 0.576545 0.503705
44 1 0.140083 0.629759 0.50118
12 1 0.273199 0.636935 0.500008
19 1 0.398511 0.549359 0.499631
77 1 0.476185 0.62949 0.497257
51 1 0.652703 0.568678 0.499191
76 1 0.657312 0.649306 0.500553
3 1 0.786523 0.574237 0.496223
22 1 0.927373 0.591061 0.501016
18 1 0.0104223 0.695368 0.502921
32 1 0.148712 0.741231 0.500212
74 1 0.386023 0.675853 0.502127
71 1 0.33589 0.709607 0.500373
5 1 0.421618 0.777678 0.500051
2 1 0.561972 0.698052 0.504169
13 1 0.743651 0.711716 0.50578
21 1 0.0832541 0.871549 0.500545
20 1 0.265545 0.789794 0.499845
59 1 0.392284 0.893001 0.495551
16 1 0.518041 0.900639 0.4943
37 1 0.634066 0.810067 0.502162
80 1 0.718284 0.8236 0.500956
28 1 0.827073 0.834458 0.501967
60 1 0.924008 0.860384 0.498634
58 1 0.985643 0.812326 0.501931
39 1 0.99339 0.955693 0.501083
9 1 0.137472 0.00600794 0.503597
43 1 0.185064 0.885206 0.500461
6 1 0.279041 0.949971 0.495013
73 1 0.431623 0.961347 0.500152
69 1 0.540443 0.0135129 0.504012
67 1 0.591611 0.969641 0.498704
4 1 0.686298 0.929798 0.499931
23 1 0.87435 0.950886 0.502794
ITEM: TIMESTEP
2000
ITEM: NUMBER OF ATOMS
73
ITEM: BOX BOUNDS pp pp pp
-4.8121103779736982e+00 4.8121103779736982e+00
-4.8307708838496044e+00 4.8307708838496044e+00
-1.0000000000000001e-01 1.0000000000000001e-01
ITEM: ATOMS id type xs ys zs
8 1 0.234239 0.11998 0.503606
54 1 0.373541 0.020426 0.494989
57 1 0.50206 0.166134 0.510029
40 1 0.592832 0.0767162 0.498669
29 1 0.720644 0.0651661 0.503622
72 1 0.795479 0.00978195 0.500924
48 1 0.842202 0.0765481 0.496929
42 1 0.93262 0.0533324 0.497057
61 1 0.111573 0.211359 0.503253
41 1 0.102241 0.124459 0.504597
47 1 0.174087 0.219018 0.503232
35 1 0.323045 0.23087 0.498217
25 1 0.382898 0.129034 0.498785
63 1 0.583138 0.1721 0.50138
75 1 0.671603 0.136506 0.499216
55 1 0.775973 0.162558 0.498606
15 1 0.887401 0.187914 0.501011
36 1 0.0158241 0.23742 0.499468
34 1 0.117022 0.316658 0.49911
38 1 0.23469 0.301767 0.497664
7 1 0.433498 0.275631 0.496763
17 1 0.667274 0.248013 0.50247
68 1 0.554177 0.233097 0.500242
66 1 0.771866 0.248148 0.503397
10 1 0.869422 0.322016 0.499417
1 1 0.0517799 0.443211 0.501328
50 1 0.177813 0.410192 0.501117
14 1 0.449894 0.425505 0.499718
27 1 0.558256 0.328333 0.496831
52 1 0.740673 0.329844 0.501246
30 1 0.772763 0.428558 0.498326
49 1 0.991259 0.346273 0.496353
65 1 0.00390859 0.539977 0.500755
33 1 0.160132 0.520412 0.501495
64 1 0.262661 0.386445 0.501177
24 1 0.265748 0.487544 0.499951
26 1 0.547263 0.560467 0.499192
11 1 0.62823 0.452395 0.500979
31 1 0.912755 0.464253 0.498311
53 1 0.076553 0.576069 0.503332
44 1 0.139297 0.629549 0.501353
12 1 0.273146 0.636877 0.500076
19 1 0.39896 0.549395 0.49912
77 1 0.476463 0.629184 0.498068
51 1 0.652529 0.568761 0.498191
76 1 0.658049 0.649201 0.500144
3 1 0.78652 0.573797 0.496614
22 1 0.926676 0.590589 0.500118
18 1 0.0113092 0.694264 0.502555
32 1 0.149581 0.741022 0.500001
74 1 0.386207 0.675797 0.499745
71 1 0.336275 0.709389 0.501478
5 1 0.422236 0.777336 0.498214
2 1 0.562519 0.697832 0.505237
13 1 0.744629 0.712509 0.507785
21 1 0.0836976 0.871578 0.498825
20 1 0.266325 0.789433 0.499536
59 1 0.391727 0.892175 0.495812
16 1 0.517506 0.901229 0.494876
37 1 0.634459 0.810509 0.500368
80 1 0.718991 0.823195 0.500648
28 1 0.82684 0.835134 0.499658
60 1 0.924809 0.859982 0.497755
58 1 0.986128 0.811933 0.501023
39 1 0.993483 0.955542 0.501593
9 1 0.137007 0.00587416 0.504885
43 1 0.186094 0.884794 0.501364
6 1 0.278982 0.949559 0.494458
73 1 0.430483 0.960923 0.500272
69 1 0.539296 0.0138668 0.505518
67 1 0.591114 0.970941 0.498957
4 1 0.685277 0.929126 0.498864
23 1 0.874446 0.950852 0.503065
ITEM: TIMESTEP
2250
ITEM: NUMBER OF ATOMS
73
ITEM: BOX BOUNDS pp pp pp
-4.8109052305248419e+00 4.8109052305248419e+00
-4.8293300081838995e+00 4.8293300081838995e+00
-1.0000000000000001e-01 1.0000000000000001e-01
ITEM: ATOMS id type xs ys zs
8 1 0.234227 0.120507 0.501805
54 1 0.373292 0.0209345 0.495488
57 1 0.501054 0.166168 0.508841
40 1 0.591727 0.0758872 0.496128
29 1 0.720789 0.0652859 0.503034
72 1 0.795337 0.00898636 0.499507
48 1 0.841818 0.0763879 0.498427
42 1 0.932468 0.0524732 0.497988
61 1 0.111248 0.210852 0.501748
41 1 0.102302 0.12391 0.50449
47 1 0.173673 0.219178 0.502521
35 1 0.322916 0.232144 0.499145
25 1 0.383031 0.12978 0.49982
63 1 0.581994 0.171552 0.500922
75 1 0.67059 0.135603 0.497612
55 1 0.775769 0.162563 0.49922
15 1 0.886993 0.187384 0.501474
36 1 0.0157111 0.236908 0.49973
34 1 0.116622 0.316637 0.500055
38 1 0.234262 0.302389 0.497775
7 1 0.433577 0.276391 0.49611
17 1 0.667439 0.24713 0.501679
68 1 0.553152 0.232586 0.499337
66 1 0.772915 0.248045 0.50295
10 1 0.869763 0.320881 0.49864
1 1 0.0515733 0.442984 0.501409
50 1 0.177693 0.410466 0.499719
14 1 0.450813 0.426069 0.500282
27 1 0.559022 0.327464 0.493466
52 1 0.741339 0.329823 0.502297
30 1 0.773933 0.429074 0.497618
49 1 0.991629 0.345554 0.49618
65 1 0.00410597 0.539382 0.502517
33 1 0.160183 0.520504 0.501027
64 1 0.263239 0.38649 0.50114
24 1 0.265691 0.487874 0.499459
26 1 0.547136 0.560037 0.496763
11 1 0.628243 0.45165 0.502433
31 1 0.912239 0.463489 0.499437
53 1 0.0769081 0.575554 0.502149
44 1 0.138898 0.629902 0.501148
12 1 0.272099 0.636832 0.502647
19 1 0.39879 0.548818 0.500325
77 1 0.475996 0.629216 0.498728
51 1 0.652342 0.568619 0.498269
76 1 0.656303 0.649061 0.501568
3 1 0.785938 0.57544 0.496949
22 1 0.926976 0.590473 0.502307
18 1 0.0113597 0.694079 0.504548
32 1 0.149068 0.741642 0.496914
74 1 0.385238 0.675411 0.498061
71 1 0.335318 0.709302 0.501185
5 1 0.420964 0.77743 0.499546
2 1 0.561107 0.698375 0.504531
13 1 0.742592 0.7126 0.507457
21 1 0.0836521 0.871638 0.499056
20 1 0.265607 0.789846 0.499833
59 1 0.391836 0.892409 0.496215
16 1 0.517516 0.89968 0.495603
37 1 0.633597 0.810357 0.5014
80 1 0.718771 0.823846 0.498871
28 1 0.827658 0.833908 0.498487
60 1 0.925273 0.859901 0.497343
58 1 0.986272 0.81142 0.501004
39 1 0.99367 0.955467 0.500516
9 1 0.13649 0.00670431 0.504873
43 1 0.185605 0.885796 0.500334
6 1 0.278633 0.950671 0.493047
73 1 0.430453 0.961388 0.501736
69 1 0.538602 0.0122285 0.504781
67 1 0.58993 0.969071 0.500429
4 1 0.68528 0.929795 0.500911
23 1 0.873959 0.949904 0.50201
ITEM: TIMESTEP
2500
ITEM: NUMBER OF ATOMS
73
ITEM: BOX BOUNDS pp pp pp
-4.8097000830759864e+00 4.8097000830759864e+00
-4.8325074758271649e+00 4.8325074758271649e+00
-1.0000000000000001e-01 1.0000000000000001e-01
ITEM: ATOMS id type xs ys zs
8 1 0.233526 0.120539 0.502861
54 1 0.374295 0.0207597 0.494849
57 1 0.501119 0.166978 0.509755
40 1 0.591472 0.0771197 0.49658
29 1 0.71974 0.0648816 0.502581
72 1 0.79476 0.00930013 0.4985
48 1 0.842564 0.0757858 0.497585
42 1 0.933072 0.0528369 0.498572
61 1 0.110714 0.210913 0.501301
41 1 0.10147 0.123597 0.504676
47 1 0.173096 0.219091 0.503507
35 1 0.322855 0.231091 0.498084
25 1 0.382451 0.129332 0.499605
63 1 0.581999 0.171976 0.500473
75 1 0.670794 0.136597 0.495736
55 1 0.775186 0.162187 0.498151
15 1 0.886088 0.187733 0.503252
36 1 0.0149676 0.236547 0.498525
34 1 0.116507 0.316855 0.498889
38 1 0.234265 0.301425 0.498877
7 1 0.432807 0.276673 0.495743
17 1 0.666939 0.248124 0.502386
68 1 0.553796 0.23333 0.499416
66 1 0.772296 0.247919 0.503212
10 1 0.869156 0.321231 0.49745
1 1 0.0501713 0.442938 0.501272
50 1 0.175974 0.410828 0.499994
14 1 0.448674 0.4253 0.499796
27 1 0.558159 0.327889 0.493434
52 1 0.740409 0.329091 0.502265
30 1 0.771436 0.428318 0.496865
49 1 0.991042 0.34534 0.495111
65 1 0.00398794 0.540054 0.500187
33 1 0.15926 0.520385 0.499887
64 1 0.261292 0.387006 0.503417
24 1 0.264893 0.487702 0.499486
26 1 0.546825 0.561233 0.496485
11 1 0.626522 0.452063 0.503658
31 1 0.911392 0.463853 0.500491
53 1 0.0762131 0.576812 0.503369
44 1 0.139264 0.629745 0.501239
12 1 0.271804 0.637218 0.501447
19 1 0.398226 0.549265 0.500953
77 1 0.475379 0.629595 0.500219
51 1 0.652358 0.568152 0.498459
76 1 0.657064 0.649023 0.5006
3 1 0.785519 0.573712 0.497116
22 1 0.926696 0.590528 0.50057
18 1 0.0108903 0.694677 0.504927
32 1 0.148915 0.741897 0.496142
74 1 0.384272 0.675566 0.499502
71 1 0.3346 0.710026 0.49922
5 1 0.421827 0.776499 0.500803
2 1 0.561495 0.69802 0.503605
13 1 0.743818 0.711624 0.507659
21 1 0.0838771 0.870925 0.49771
20 1 0.265585 0.790739 0.500437
59 1 0.3913 0.891544 0.496768
16 1 0.517173 0.899683 0.4963
37 1 0.634654 0.80973 0.502874
80 1 0.71963 0.823051 0.498083
28 1 0.827503 0.834064 0.500442
60 1 0.924538 0.859653 0.498456
58 1 0.986236 0.812267 0.502064
39 1 0.992995 0.954978 0.502014
9 1 0.136404 0.0057724 0.504206
43 1 0.18517 0.887033 0.500098
6 1 0.278711 0.951122 0.494684
73 1 0.430119 0.960397 0.499703
69 1 0.539686 0.0121195 0.503238
67 1 0.591255 0.968772 0.502642
4 1 0.685991 0.928755 0.501031
23 1 0.873818 0.949973 0.504041
ITEM: TIMESTEP
2750
ITEM: NUMBER OF ATOMS
73
ITEM: BOX BOUNDS pp pp pp
-4.8084949356271300e+00 4.8084949356271300e+00
-4.8373373904272334e+00 4.8373373904272334e+00
-1.0000000000000001e-01 1.0000000000000001e-01
ITEM: ATOMS id type xs ys zs
8 1 0.233808 0.120649 0.502715
54 1 0.373428 0.0209045 0.49474
57 1 0.500397 0.166635 0.509751
40 1 0.591197 0.0770983 0.497861
29 1 0.719473 0.0644892 0.502133
72 1 0.794108 0.00912491 0.498013
48 1 0.841245 0.0760049 0.498876
42 1 0.932329 0.0530237 0.498032
61 1 0.110746 0.208996 0.501126
41 1 0.102831 0.121316 0.504735
47 1 0.173052 0.219683 0.502353
35 1 0.322695 0.231527 0.499083
25 1 0.382947 0.130107 0.500751
63 1 0.58146 0.172196 0.498922
75 1 0.670765 0.135799 0.494043
55 1 0.775006 0.161898 0.500436
15 1 0.886319 0.187454 0.503346
36 1 0.0156048 0.23682 0.49692
34 1 0.115687 0.317066 0.498876
38 1 0.2337 0.302369 0.499448
7 1 0.432729 0.276721 0.496418
17 1 0.667127 0.247481 0.501762
68 1 0.553542 0.233377 0.49896
66 1 0.772869 0.247655 0.503538
10 1 0.869223 0.321859 0.497075
1 1 0.0499579 0.44389 0.50386
50 1 0.176218 0.410281 0.50082
14 1 0.449094 0.426203 0.499794
27 1 0.557592 0.328086 0.493043
52 1 0.740316 0.329009 0.502927
30 1 0.771586 0.428773 0.497765
49 1 0.992129 0.345646 0.495444
65 1 0.00392491 0.54098 0.499198
33 1 0.158639 0.520529 0.4988
64 1 0.261491 0.387318 0.50308
24 1 0.264508 0.488261 0.49756
26 1 0.546497 0.560538 0.498363
11 1 0.626525 0.452061 0.504474
31 1 0.911306 0.464576 0.500393
53 1 0.0758658 0.577916 0.501959
44 1 0.139583 0.630074 0.502276
12 1 0.27194 0.637521 0.500278
19 1 0.397471 0.549627 0.50212
77 1 0.475045 0.629966 0.498902
51 1 0.652165 0.568111 0.500382
76 1 0.657311 0.648745 0.500876
3 1 0.78524 0.57461 0.496071
22 1 0.926259 0.591008 0.501754
18 1 0.0104307 0.694739 0.504221
32 1 0.147884 0.741302 0.495127
74 1 0.385177 0.675403 0.499745
71 1 0.335491 0.709714 0.498532
5 1 0.421433 0.776943 0.501063
2 1 0.561667 0.697601 0.5031
13 1 0.743301 0.712004 0.508579
21 1 0.083238 0.870697 0.499307
20 1 0.265455 0.789735 0.502186
59 1 0.392163 0.892214 0.496453
16 1 0.517181 0.900434 0.495536
37 1 0.634559 0.809879 0.502232
80 1 0.719628 0.823641 0.497945
28 1 0.82726 0.834449 0.500688
60 1 0.924543 0.859779 0.498834
58 1 0.986001 0.811709 0.500883
39 1 0.992853 0.955154 0.500306
9 1 0.136919 0.00399833 0.503427
43 1 0.18516 0.885443 0.500997
6 1 0.279245 0.950012 0.49526
73 1 0.430588 0.961751 0.501323
69 1 0.539185 0.0127386 0.501846
67 1 0.590638 0.96918 0.502644
4 1 0.684624 0.92899 0.502397
23 1 0.873592 0.950772 0.504315
ITEM: TIMESTEP
3000
ITEM: NUMBER OF ATOMS
73
ITEM: BOX BOUNDS pp pp pp
-4.8072897881782746e+00 4.8072897881782746e+00
-4.8387707883539370e+00 4.8387707883539370e+00
-1.0000000000000001e-01 1.0000000000000001e-01
ITEM: ATOMS id type xs ys zs
8 1 0.233691 0.119391 0.503975
54 1 0.373805 0.0204539 0.494673
57 1 0.499859 0.166954 0.509237
40 1 0.592133 0.0769419 0.497167
29 1 0.719863 0.0645171 0.501098
72 1 0.795048 0.00943512 0.498517
48 1 0.842049 0.0759758 0.50004
42 1 0.932433 0.0525898 0.497345
61 1 0.110894 0.209185 0.50052
41 1 0.102239 0.121996 0.502991
47 1 0.173183 0.219248 0.501712
35 1 0.322462 0.230388 0.499179
25 1 0.382491 0.129125 0.500551
63 1 0.580833 0.171673 0.49862
75 1 0.671813 0.135541 0.492703
55 1 0.77614 0.161737 0.501566
15 1 0.88784 0.186987 0.503368
36 1 0.0157399 0.23708 0.498754
34 1 0.116873 0.317168 0.498318
38 1 0.23468 0.301788 0.500355
7 1 0.432938 0.27717 0.496387
17 1 0.666845 0.246943 0.502196
68 1 0.553208 0.233038 0.500058
66 1 0.772266 0.247367 0.504152
10 1 0.869 0.320692 0.497788
1 1 0.050251 0.443622 0.502132
50 1 0.17684 0.410694 0.500472
14 1 0.45037 0.426402 0.499323
27 1 0.557711 0.327543 0.493948
52 1 0.740607 0.32852 0.501415
30 1 0.772631 0.428265 0.497338
49 1 0.99139 0.34541 0.495453
65 1 0.00330793 0.540325 0.497467
33 1 0.158255 0.520354 0.49992
64 1 0.261469 0.386805 0.503577
24 1 0.264279 0.488505 0.49629
26 1 0.545954 0.560653 0.497536
11 1 0.627137 0.45205 0.506468
31 1 0.910889 0.464258 0.50018
53 1 0.0754502 0.577316 0.50227
44 1 0.139077 0.630048 0.502529
12 1 0.27233 0.638287 0.502409
19 1 0.396986 0.549308 0.502497
77 1 0.475028 0.629406 0.499401
51 1 0.651281 0.568526 0.49951
76 1 0.656458 0.64872 0.503357
3 1 0.78556 0.574066 0.495824
22 1 0.926163 0.591554 0.501683
18 1 0.0114412 0.694663 0.50627
32 1 0.149428 0.741345 0.495352