LAMMPS (23 Jun 2022 - Update 4)
  using 1 OpenMP thread(s) per MPI task
# Compute elastic constant tensor for a crystal
#
# Written by Aidan Thompson (Sandia, athomps@sandia.gov)
#
#  This script uses the following three include files.
#
#   init.mod      (must be modified for different crystal structures)
# 	       	  Define units, deformation parameters and initial
#		  configuration of the atoms and simulation cell.
#
#
#   potential.mod    (must be modified for different pair styles)
# 		     Define pair style and other attributes
#		     not stored in restart file
#
#
#   displace.mod    (displace.mod should not need to be modified)
# 		    Perform positive and negative box displacements
# 		    in direction ${dir} and size ${up}.
# 		    It uses the resultant changes
#		    in stress to compute one
# 		    row of the elastic stiffness tensor
#
#		    Inputs variables:
#		    	   dir = the Voigt deformation component
#		    		    (1,2,3,4,5,6)
#		    Global constants:
#       	    	   up = the deformation magnitude (strain units)
#       		   cfac = conversion from LAMMPS pressure units to
#               	   output units for elastic constants
#
#
#  To run this on a different system, it should only be necessary to
#  modify the files init.mod and potential.mod. In order to calculate
#  the elastic constants correctly, care must be taken to specify
#  the correct units in init.mod (units, cfac and cunits). It is also
#  important to verify that the minimization of energy w.r.t atom
#  positions in the deformed cell is fully converged.
#  One indication of this is that the elastic constants are insensitive
#  to the choice of the variable ${up} in init.mod. Another is to check
#  the final max and two-norm forces reported in the log file. If you know
#  that minimization is not required, you can set maxiter = 0.0 in
#  init.mod.
#



variable dt equal 0.01
variable strain equal 0.05
variable srate equal 1e-4
variable M equal 1000 # averaging time for properties
variable strainsteps equal ${strain}/${dt}/${srate}
variable strainsteps equal 0.05/${dt}/${srate}
variable strainsteps equal 0.05/0.01/${srate}
variable strainsteps equal 0.05/0.01/0.0001


dimension 2
include init.mod
# NOTE: This script can be modified for different atomic structures,
# units, etc. See in.elastic for more info.
#

# Define the finite deformation size. Try several values of this
# variable to verify that results do not depend on it.
variable up equal 1.0e-1

# Define the amount of random jiggle for atoms
# This prevents atoms from staying on saddle points
variable atomjiggle equal 1.0e-6

# Uncomment one of these blocks, depending on what units
# you are using in LAMMPS and for output

# metal units, elastic constants in eV/A^3
#units		metal
#variable cfac equal 6.2414e-7
#variable cunits string eV/A^3

# Choose potential
# metal units, elastic constants in GPa
units		metal
atom_style	full
#pair_style      lj/cut 1.0
#pair_style      yukawa 1.0 2.0
#pair_modify     mix arithmetic
bond_style      harmonic
angle_style     harmonic
dihedral_style  zero
special_bonds   amber
variable cfac equal 1.0e-4
variable cunits string GPa
boundary	p p p

# Need to set mass to something, just to satisfy LAMMPS
#mass 1 1.0e-20
read_data network.lmp
Reading data file ...
  orthogonal box = (-4.82059 -4.82059 -0.1) to (4.82059 4.82059 0.1)
  1 by 1 by 1 MPI processor grid
WARNING: Atom style in data file differs from currently defined atom style (src/read_data.cpp:538)
  reading atoms ...
  73 atoms
WARNING: Bond style in data file differs from currently defined bond style (src/read_data.cpp:630)
  scanning bonds ...
  5 = max bonds/atom
  reading bonds ...
  161 bonds
Finding 1-2 1-3 1-4 neighbors ...
  special bond factors lj:    0        0        0.5     
  special bond factors coul:  0        0        0.8333333333333334
     8 = max # of 1-2 neighbors
    29 = max # of 1-3 neighbors
   147 = max # of 1-4 neighbors
    35 = max # of special neighbors
  special bonds CPU = 0.000 seconds
  read_data CPU = 0.003 seconds

# real units, elastic constants in GPa
#units		real
#variable cfac equal 1.01325e-4
#variable cunits string GPa

# Define minimization parameters
variable etol equal 0.0
variable ftol equal 5.0e-10
variable maxiter equal 100000
variable maxeval equal 20000
variable dmax equal 1.0e-2


include potential.mod
# NOTE: This script can be modified for different pair styles
# See in.elastic for more info.

# Setup neighbor style
neighbor 3.0 nsq
neigh_modify once no every 1 delay 0 check yes
comm_modify cutoff 2.0

# Setup minimization style
min_style	     cg
min_modify	     dmax ${dmax} line quadratic
min_modify	     dmax 0.01 line quadratic

timestep	0.001


# Setup output
thermo		500
thermo_style custom step temp pe ebond eangle edihed press pxx pyy pzz pxy pxz pyz lx ly lz vol
thermo_modify norm no


#change_box all triclinic
comm_modify mode single cutoff 10.0 vel yes
atom_modify sort 0 0



# Compute initial state

#dump rela all atom 1 traj_relax.lmpstrj
fix 3 all box/relax x 0 y 0 # xy 0  #MS comment: relax if the network is periodic
minimize ${etol} ${ftol} ${maxiter} ${maxeval}
minimize 0 ${ftol} ${maxiter} ${maxeval}
minimize 0 5e-10 ${maxiter} ${maxeval}
minimize 0 5e-10 100000 ${maxeval}
minimize 0 5e-10 100000 20000
Neighbor list info ...
  update every 1 steps, delay 0 steps, check yes
  max neighbors/atom: 2000, page size: 100000
  master list distance cutoff = 0
  ghost atom cutoff = 10
  0 neighbor lists, perpetual/occasional/extra = 0 0 0
WARNING: Inconsistent image flags (src/domain.cpp:819)
Per MPI rank memory allocation (min/avg/max) = 9.164 | 9.164 | 9.164 Mbytes
   Step          Temp          PotEng         E_bond        E_angle        E_dihed         Press           Pxx            Pyy            Pzz            Pxy            Pxz            Pyz             Lx             Ly             Lz           Volume    
         0   0              5.2624608e-11  5.2624608e-11  0              0             -0.42845454    -0.3434025     -0.51350659     0              0.032980688    0              0              9.64118        9.64118        0.2            92.952352    
       241   0              1.4356345e-14  1.4356345e-14  0              0              3.4977505e-07  2.9526872e-07  4.0428138e-07  0             -1.2560629e-05  0              0              9.6411796      9.6411799      0.2            92.952347    
Loop time of 0.0165772 on 1 procs for 241 steps with 73 atoms

96.2% CPU use with 1 MPI tasks x 1 OpenMP threads

Minimization stats:
  Stopping criterion = force tolerance
  Energy initial, next-to-last, final = 
    5.26246080967861e-11 1.43563713939496e-14 1.435634546694e-14
  Force two-norm initial, final = 4.587775e-05 4.182957e-10
  Force max component initial, final = 2.9791752e-05 1.1060884e-10
  Final line search alpha, max atom move = 1 1.1060884e-10
  Iterations, force evaluations = 241 482

MPI task timing breakdown:
Section |  min time  |  avg time  |  max time  |%varavg| %total
---------------------------------------------------------------
Pair    | 0          | 0          | 0          |   0.0 |  0.00
Bond    | 0.002346   | 0.002346   | 0.002346   |   0.0 | 14.15
Neigh   | 0          | 0          | 0          |   0.0 |  0.00
Comm    | 0.0049855  | 0.0049855  | 0.0049855  |   0.0 | 30.07
Output  | 0          | 0          | 0          |   0.0 |  0.00
Modify  | 0          | 0          | 0          |   0.0 |  0.00
Other   |            | 0.009246   |            |       | 55.77

Nlocal:             73 ave          73 max          73 min
Histogram: 1 0 0 0 0 0 0 0 0 0
Nghost:            617 ave         617 max         617 min
Histogram: 1 0 0 0 0 0 0 0 0 0
Neighs:              0 ave           0 max           0 min
Histogram: 1 0 0 0 0 0 0 0 0 0

Total # of neighbors = 0
Ave neighs/atom = 0
Ave special neighs/atom = 25.232877
Neighbor list builds = 0
Dangerous builds = 0
#dump rela all atom 1 traj_relax.lmpstrj
thermo 100
unfix 3

fix 2d all enforce2d



#dump dump0 all xyz 1000000 cfg0.xyz
#dump_modify dump0 format line "%d %20.10g %20.10g %20.10g"
#minimize ${etol} ${ftol} ${maxiter} ${maxeval}

#undump rela

#write_restart restart.equil

# These formulas define the derivatives w.r.t. strain components
# Constants uses $, variables use v_


timestep        ${dt}
timestep        0.01
variable nsteps equal round(${strainsteps})
variable nsteps equal round(50000)

fix             4 all nve
fix             5 all langevin 0.1 0.1 1 904297
#fix		6 all press/berendsen y  0.0 0.0 1 x 0.0 0.0 10
fix             6 all nph y 0.0 0.0 10 ptemp 0.1 # x 0.0 0.0 10

# For PLUMED2
# fix 22 all plumed plumedfile plumed.dat outfile plumed.out

#fix             6 all nph x 0.0 0.0 10
fix     	9 all deform 1 x erate -${srate} units box remap x
fix     	9 all deform 1 x erate -0.0001 units box remap x

#fix     8 all deform 1 xy erate ${srate} units box remap x



#fix    10 all ave/time

dump 1 all atom 250 deform_dump.lammpstrj


#To avoid flying ice cube phenomenon:
#fix 21 all momentum 100 linear 1 1 1 angular


run  ${nsteps}
run  50000
WARNING: One or more atoms are time integrated more than once (src/modify.cpp:292)
WARNING: Inconsistent image flags (src/domain.cpp:819)
Per MPI rank memory allocation (min/avg/max) = 8.039 | 8.039 | 8.039 Mbytes
   Step          Temp          PotEng         E_bond        E_angle        E_dihed         Press           Pxx            Pyy            Pzz            Pxy            Pxz            Pyz             Lx             Ly             Lz           Volume    
       241   0              1.4356345e-14  1.4356345e-14  0              0              3.4977505e-07  2.9526872e-07  4.0428138e-07  0             -1.2560629e-05  0              0              9.6411796      9.6411799      0.2            92.952347    
       300   0.15572343     0.00053321371  0.00053321371  0              0              246.99355      499.61606     -5.8585674      0              438.97466      0              0              9.6406108      9.6398357      0.2            92.933904    
       400   0.19151272     0.0010377114   0.0010377114   0              0             -384.62919     -706.26444     -63.215097      0              675.75986      0              0              9.6396466      9.6421293      0.2            92.946719    
       500   0.13980418     0.0013620319   0.0013620319   0              0             -82.354098     -28.041442     -136.90592      0              734.95499      0              0              9.6386825      9.6433152      0.2            92.948854    
       600   0.21437295     0.00098850277  0.00098850277  0              0              147.50589      361.54382     -66.723959      0             -728.75573      0              0              9.6377184      9.6391458      0.2            92.899373    
       700   0.22796902     0.0010462526   0.0010462526   0              0              151.30178      344.69438     -42.322084      0              179.84582      0              0              9.6367543      9.642192       0.2            92.919435    
       800   0.211658       0.0013043872   0.0013043872   0              0             -284.16451     -543.23738     -25.321718      0              137.35866      0              0              9.6357902      9.643684       0.2            92.924516    
       900   0.21901981     0.0012834624   0.0012834624   0              0              354.09407      660.67694      47.270876      0             -430.62393      0              0              9.6348261      9.6478111      0.2            92.954982    
      1000   0.20885185     0.001228676    0.001228676    0              0              678.69259      1080.5492      276.65156      0             -210.69261      0              0              9.6338619      9.6430079      0.2            92.899407    
      1100   0.22085848     0.0011426638   0.0011426638   0              0              647.61391      1046.8804      248.11435      0             -395.43636      0              0              9.6328978      9.6490773      0.2            92.948576    
      1200   0.15325515     0.0012719834   0.0012719834   0              0              639.52214      1151.594       127.2289       0             -693.99668      0              0              9.6319337      9.6485735      0.2            92.93442     
      1300   0.23938251     0.0010142674   0.0010142674   0              0              541.69013      1164.935      -81.77772       0             -1.5508168      0              0              9.6309696      9.6577455      0.2            93.013453    
      1400   0.18791153     0.0012907534   0.0012907534   0              0              417.16514      1348.2716     -514.12836      0             -762.22215      0              0              9.6300055      9.6562336      0.2            92.989582    
      1500   0.1741902      0.001242082    0.001242082    0              0             -41.027183      692.81013     -775.09566      0             -813.82053      0              0              9.6290413      9.6575207      0.2            92.992666    
      1600   0.25841669     0.0011414885   0.0011414885   0              0             -173.51725      156.17774     -503.39664      0             -128.46251      0              0              9.6280772      9.6650214      0.2            93.055572    
      1700   0.20436391     0.0011499637   0.0011499637   0              0              516.90126      828.13261      205.43129      0             -480.28681      0              0              9.6271131      9.6622575      0.2            93.019646    
      1800   0.19814612     0.0012042319   0.0012042319   0              0              973.04192      1157.4487      788.37575      0             -780.83761      0              0              9.626149       9.6580814      0.2            92.970131    
      1900   0.20569839     0.0012887415   0.0012887415   0              0              1531.0078      2040.5756      1021.273       0             -560.81234      0              0              9.6251849      9.6563785      0.2            92.944429    
      2000   0.21061996     0.0013409185   0.0013409185   0              0              1048.3008      1401.9363      694.47289      0             -7.5867745      0              0              9.6242208      9.6615418      0.2            92.984811    
      2100   0.23603489     0.0013884873   0.0013884873   0              0              132.69885      315.88836     -50.67745       0             -430.43889      0              0              9.6232566      9.6649026      0.2            93.007838    
      2200   0.22386606     0.0015073071   0.0015073071   0              0              301.50826      1591.3778     -988.53986      0             -490.18618      0              0              9.6222925      9.666454       0.2            93.013448    
      2300   0.22538439     0.0013710549   0.0013710549   0              0             -493.55155      432.43427     -1419.7776      0             -355.28778      0              0              9.6213284      9.669643       0.2            93.03481     
      2400   0.22406811     0.0010883034   0.0010883034   0              0             -100.168        612.43677     -812.9915       0              125.59037      0              0              9.6203643      9.6704905      0.2            93.033641    
      2500   0.23879905     0.0012802575   0.0012802575   0              0              889.57413      1395.6962      383.23759      0             -166.69636      0              0              9.6194002      9.665015       0.2            92.971646    
      2600   0.22711953     0.0013871417   0.0013871417   0              0              692.08454     -54.948128      1438.8699      0             -620.33876      0              0              9.618436       9.6668894      0.2            92.980358    
      2700   0.19386562     0.0015990345   0.0015990345   0              0              1406.1167      1330.4046      1481.6017      0             -298.64663      0              0              9.6174719      9.6639996      0.2            92.943245    
      2800   0.23842385     0.0013706332   0.0013706332   0              0              911.53442      1111.016       711.82575      0             -278.60947      0              0              9.6165078      9.667797       0.2            92.970445    
      2900   0.20549426     0.0014176218   0.0014176218   0              0             -117.29204      387.41367     -622.19895      0             -600.45929      0              0              9.6155437      9.6753493      0.2            93.033744    
      3000   0.21561564     0.0013078204   0.0013078204   0              0             -330.57355      801.50184     -1462.8394      0             -530.56495      0              0              9.6145796      9.6775416      0.2            93.045494    
      3100   0.1690368      0.0012867648   0.0012867648   0              0             -653.87079     -74.173677     -1233.7609      0             -118.60398      0              0              9.6136155      9.6751505      0.2            93.013176    
      3200   0.18269233     0.0012858617   0.0012858617   0              0             -21.521351      118.27399     -161.55649      0              204.15877      0              0              9.6126513      9.662897       0.2            92.88606     
      3300   0.1747918      0.001545795    0.001545795    0              0              778.57349      629.16183      927.75936      0             -571.71078      0              0              9.6116872      9.6674899      0.2            92.920889    
      3400   0.17357268     0.0013573239   0.0013573239   0              0              1166.6176      1010.4693      1322.5162      0              199.20206      0              0              9.6107231      9.6654039      0.2            92.891521    
      3500   0.19855607     0.0013870344   0.0013870344   0              0              664.96642      663.77002      665.95688      0             -541.49883      0              0              9.609759       9.6788607      0.2            93.011519    
      3600   0.21636037     0.0014210163   0.0014210163   0              0             -297.47979     -355.80408     -239.37638      0             -228.05619      0              0              9.6087949      9.6767909      0.2            92.982299    
      3700   0.2268482      0.0014122829   0.0014122829   0              0             -598.72517     -186.57762     -1011.0808      0             -735.40128      0              0              9.6078308      9.6782723      0.2            92.987202    
      3800   0.22499621     0.0014711649   0.0014711649   0              0              109.9152       1118.8616     -899.2508       0             -35.111065      0              0              9.6068666      9.6758143      0.2            92.954258    
      3900   0.19977295     0.0010258406   0.0010258406   0              0             -136.16162     -46.831259     -225.70111      0              497.05345      0              0              9.6059025      9.6755106      0.2            92.942011    
      4000   0.23510918     0.0010234979   0.0010234979   0              0              1577.6801      2627.4193      527.74746      0             -194.50493      0              0              9.6049384      9.6679619      0.2            92.860179    
      4100   0.20721107     0.0013058055   0.0013058055   0              0              1126.3744      1451.0967      801.45572      0              169.15385      0              0              9.6039743      9.6658544      0.2            92.830617    
      4200   0.18355238     0.0012738931   0.0012738931   0              0              785.90953      1000.9429      570.64485      0             -258.43722      0              0              9.6030102      9.6614167      0.2            92.778683    
      4300   0.1847397      0.0010928722   0.0010928722   0              0              611.74602      1389.5625     -166.31691      0             -114.38007      0              0              9.602046       9.6697801      0.2            92.849674    
      4400   0.21389382     0.0011547574   0.0011547574   0              0              479.86415      1694.2893     -734.72981      0             -270.28705      0              0              9.6010819      9.6740812      0.2            92.881646    
      4500   0.1805956      0.0013935087   0.0013935087   0              0             -342.44093      4.610913      -689.7318       0              397.91827      0              0              9.6001178      9.6744332      0.2            92.875699    
      4600   0.18461326     0.00097431994  0.00097431994  0              0              408.95046      1104.7302     -287.03314      0             -385.32155      0              0              9.5991537      9.6687564      0.2            92.811879    
      4700   0.1893022      0.0015025556   0.0015025556   0              0              764.9166       1101.9019      427.70268      0             -599.32219      0              0              9.5981896      9.6598775      0.2            92.717335    
      4800   0.21245139     0.001299707    0.001299707    0              0              1279.0811      1772.1233      785.82395      0             -13.101182      0              0              9.5972255      9.6608617      0.2            92.717468    
      4900   0.18184002     0.0013058466   0.0013058466   0              0              554.18578      435.97866      672.17576      0             -414.77408      0              0              9.5962613      9.6652214      0.2            92.74999     
      5000   0.21655672     0.0012466483   0.0012466483   0              0              768.39994      1424.2267      112.3371       0             -776.13773      0              0              9.5952972      9.6629676      0.2            92.719046    
      5100   0.19802864     0.0011511207   0.0011511207   0              0             -380.39563     -204.49961     -556.48805      0             -413.43342      0              0              9.5943331      9.662837       0.2            92.708477    
      5200   0.21170127     0.0012632751   0.0012632751   0              0              479.82194      1620.6567     -661.27755      0             -194.13367      0              0              9.593369       9.6625874      0.2            92.696767    
      5300   0.2311815      0.001306281    0.001306281    0              0              114.22333      584.81719     -356.56862      0              238.48786      0              0              9.5924049      9.6628616      0.2            92.69008     
      5400   0.21303364     0.0014120558   0.0014120558   0              0              924.5941       1712.1697      136.80077      0             -281.73429      0              0              9.5914407      9.6597139      0.2            92.650573    
      5500   0.215711       0.0012504991   0.0012504991   0              0              1108.7885      1766.622       450.77929      0             -498.78608      0              0              9.5904766      9.6594421      0.2            92.638654    
      5600   0.19015979     0.0013477471   0.0013477471   0              0              681.69469      836.92374      526.225        0              260.63879      0              0              9.5895125      9.6574686      0.2            92.610416    
      5700   0.21856949     0.0016323058   0.0016323058   0              0              326.08751      618.90954      33.023187      0             -257.49347      0              0              9.5885484      9.6548063      0.2            92.575577    
      5800   0.20333373     0.0013028036   0.0013028036   0              0              646.14598      1729.4696     -437.4247       0             -502.60723      0              0              9.5875843      9.6596983      0.2            92.613172    
      5900   0.20925861     0.0013000071   0.0013000071   0              0              291.11584      1296.8309     -714.81772      0              83.476736      0              0              9.5866202      9.6684981      0.2            92.688219    
      6000   0.22395552     0.0011903459   0.0011903459   0              0              836.16979      2036.2803     -364.17201      0             -46.069459      0              0              9.585656       9.6608394      0.2            92.605484    
      6100   0.19154077     0.0013429735   0.0013429735   0              0              1185.808       2086.204       285.22143      0             -143.63675      0              0              9.5846919      9.6584704      0.2            92.573463    
      6200   0.18150146     0.0013520652   0.0013520652   0              0              1495.7423      2317.2357      674.05918      0             -171.01334      0              0              9.5837278      9.6598863      0.2            92.577721    
      6300   0.18130652     0.0013297597   0.0013297597   0              0              1144.2221      1747.8474      540.40119      0              303.74833      0              0              9.5827637      9.6623602      0.2            92.592115    
      6400   0.17312119     0.0014324835   0.0014324835   0              0              852.2626       1778.6124     -74.347428      0              262.93078      0              0              9.5817996      9.6706575      0.2            92.662302    
      6500   0.18986406     0.0018643854   0.0018643854   0              0              928.39919      2442.748      -586.1479       0             -450.5511       0              0              9.5808354      9.6749924      0.2            92.69451     
      6600   0.19935556     0.0014925224   0.0014925224   0              0              260.82509      1239.6619     -718.23917      0             -158.46722      0              0              9.5798713      9.669063       0.2            92.628379    
      6700   0.23373214     0.0018137013   0.0018137013   0              0              1111.1558      2330.6054     -108.50465      0             -673.64658      0              0              9.5789072      9.6691037      0.2            92.619447    
      6800   0.19939515     0.001592496    0.001592496    0              0              1615.7278      2551.4609      679.78022      0             -38.48379       0              0              9.5779431      9.6674182      0.2            92.593981    
      6900   0.23470096     0.0012842857   0.0012842857   0              0              1689.5209      2483.1213      895.68685      0             -363.63088      0              0              9.576979       9.6657548      0.2            92.56873     
      7000   0.20626129     0.0012022622   0.0012022622   0              0              1136.999       1901.8168      371.99018      0             -18.610022      0              0              9.5760149      9.6717077      0.2            92.616416    
      7100   0.18904758     0.0014848039   0.0014848039   0              0             -62.127154      358.5855      -483.04894      0             -415.12377      0              0              9.5750507      9.6824967      0.2            92.710397    
      7200   0.21785703     0.0013488067   0.0013488067   0              0              245.65129      1529.6304     -1038.5381      0             -346.83878      0              0              9.5740866      9.6888335      0.2            92.761731    
      7300   0.22015481     0.0017477978   0.0017477978   0              0             -501.34511     -424.91039     -577.98257      0             -250.99065      0              0              9.5731225      9.6803949      0.2            92.671606    
      7400   0.14737765     0.0015417951   0.0015417951   0              0              152.92906      43.018529      262.59172      0             -299.14996      0              0              9.5721584      9.678211       0.2            92.641369    
      7500   0.18806436     0.0013055568   0.0013055568   0              0              1437.3721      2099.3059      775.2089       0              137.94853      0              0              9.5711943      9.6734281      0.2            92.586259    
      7600   0.1920868      0.0012978086   0.0012978086   0              0              1230.7424      1910.134       551.14945      0             -801.74986      0              0              9.5702302      9.6832324      0.2            92.670763    
      7700   0.27111155     0.0016952062   0.0016952062   0              0              966.73856      1879.9164      53.362741      0              450.96399      0              0              9.569266       9.6869063      0.2            92.696583    
      7800   0.22798884     0.0014364894   0.0014364894   0              0              411.66503      1348.482      -525.34236      0             -784.26551      0              0              9.5683019      9.6880355      0.2            92.698049    
      7900   0.20048906     0.0010995786   0.0010995786   0              0              507.47469      1581.9121     -567.17245      0              363.10458      0              0              9.5673378      9.6897872      0.2            92.705467    
      8000   0.21939736     0.0014427214   0.0014427214   0              0              1022.0507      2098.9577     -55.053514      0             -160.41972      0              0              9.5663737      9.6923307      0.2            92.720458    
      8100   0.18051707     0.0016824397   0.0016824397   0              0              1220.5092      2069.5987      371.23544      0              598.48043      0              0              9.5654096      9.688761       0.2            92.676967    
      8200   0.18665836     0.0014738289   0.0014738289   0              0              1400.0286      2359.0226      440.78503      0              166.15847      0              0              9.5644454      9.6901337      0.2            92.680755    
      8300   0.24978085     0.0016724373   0.0016724373   0              0              787.53301      1463.2599      111.60722      0             -36.027112      0              0              9.5634813      9.6942223      0.2            92.710514    
      8400   0.2106171      0.0014750415   0.0014750415   0              0              439.3681       1378.1838     -499.66689      0              29.130331      0              0              9.5625172      9.6930489      0.2            92.689947    
      8500   0.21130693     0.0014000077   0.0014000077   0              0             -103.13843      387.01693     -593.50588      0              108.39295      0              0              9.5615531      9.693526       0.2            92.685163    
      8600   0.2238415      0.0013457525   0.0013457525   0              0              332.88299      775.83362     -110.27146      0             -123.74574      0              0              9.560589       9.6949865      0.2            92.689781    
      8700   0.24509149     0.0016335051   0.0016335051   0              0              1149.0448      1663.2097      634.66597      0              15.394803      0              0              9.5596249      9.6851342      0.2            92.58625     
      8800   0.25193369     0.0012932643   0.0012932643   0              0              1561.9288      2316.012       807.62385      0              804.76218      0              0              9.5586607      9.6802164      0.2            92.529905    
      8900   0.19516476     0.0014306915   0.0014306915   0              0              664.34947      1089.0161      239.44945      0              541.88771      0              0              9.5576966      9.6910456      0.2            92.624074    
      9000   0.20378676     0.0014539242   0.0014539242   0              0              188.70667      942.72391     -565.51536      0              332.06455      0              0              9.5567325      9.6920971      0.2            92.624779    
      9100   0.20041776     0.0016337802   0.0016337802   0              0             -155.7979       495.99393     -807.82043      0              547.60493      0              0              9.5557684      9.6853754      0.2            92.551204    
      9200   0.23873546     0.0014728519   0.0014728519   0              0              385.08115      1072.3402     -302.39071      0              181.72314      0              0              9.5548043      9.6867638      0.2            92.555132    
      9300   0.18837027     0.0016739569   0.0016739569   0              0              1391.5741      2137.4511      645.50236      0              641.15821      0              0              9.5538401      9.687926       0.2            92.556897    
      9400   0.19538282     0.0013828245   0.0013828245   0              0              1537.558       2267.4185      807.49463      0              338.15857      0              0              9.552876       9.6889415      0.2            92.557257    
      9500   0.23478299     0.0016495275   0.0016495275   0              0              1044.7938      1901.5826      187.81849      0              1062.0263      0              0              9.5519119      9.6926819      0.2            92.583644    
      9600   0.19325498     0.0014391374   0.0014391374   0              0              256.91639      1159.0997     -645.50888      0              44.731744      0              0              9.5509478      9.6990592      0.2            92.635208    
      9700   0.19495131     0.0013929757   0.0013929757   0              0              42.808825      1034.6387     -949.2133       0              182.03162      0              0              9.5499837      9.6976188      0.2            92.612101    
      9800   0.18223461     0.0018950065   0.0018950065   0              0              638.19347      1458.7146     -182.53868      0              573.59862      0              0              9.5490196      9.6894791      0.2            92.525026    
      9900   0.20783546     0.0018930111   0.0018930111   0              0              1914.7126      3055.636       773.61801      0              448.39585      0              0              9.5480554      9.6877053      0.2            92.498747    
     10000   0.23074718     0.0014339117   0.0014339117   0              0              1754.1389      2449.4988      1058.5351      0              577.93828      0              0              9.5470913      9.6908506      0.2            92.519436    
     10100   0.2059177      0.0018233933   0.0018233933   0              0              1213.7113      2132.3296      294.87154      0              551.84889      0              0              9.5461272      9.6895207      0.2            92.497397    
     10200   0.20368694     0.0017055486   0.0017055486   0              0             -13.654853      1105.1594     -1132.6961      0             -165.52973      0              0              9.5451631      9.6939285      0.2            92.530128    
     10300   0.20040197     0.0014396232   0.0014396232   0              0             -254.00633      925.43916     -1433.6574      0              657.35872      0              0              9.544199       9.7031133      0.2            92.608443    
     10400   0.24897606     0.001494015    0.001494015    0              0              691.76637      1553.8182     -170.48488      0              765.59274      0              0              9.5432348      9.6968828      0.2            92.53963     
     10500   0.20418917     0.0012348822   0.0012348822   0              0              1649.6687      1967.9352      1331.179       0              1159.4138      0              0              9.5422707      9.6871964      0.2            92.437851    
     10600   0.19557605     0.0015841734   0.0015841734   0              0              1212.4233      1150.6069      1274.004       0              15.211245      0              0              9.5413066      9.6920206      0.2            92.47454     
     10700   0.18089914     0.001543968    0.001543968    0              0              439.53871      1108.2106     -229.33153      0              161.35445      0              0              9.5403425      9.7017326      0.2            92.557852    
     10800   0.20901641     0.0015524251   0.0015524251   0              0             -305.59898      729.34451     -1340.7455      0              131.32711      0              0              9.5393784      9.7032379      0.2            92.562858    
     10900   0.21212963     0.0015467616   0.0015467616   0              0              117.08351      968.15597     -734.16836      0             -221.39029      0              0              9.5384143      9.7012855      0.2            92.53488     
     11000   0.23616875     0.001454182    0.001454182    0              0              993.75789      1317.4796      669.81357      0             -304.6326       0              0              9.5374501      9.6960849      0.2            92.475926    
     11100   0.20494497     0.0015073321   0.0015073321   0              0              1291.4115      1301.6141      1280.9865      0             -663.06889      0              0              9.536486       9.6961339      0.2            92.467046    
     11200   0.23121292     0.0015090978   0.0015090978   0              0              764.45028      1360.2556      168.43112      0              162.3294       0              0              9.5355219      9.6992172      0.2            92.487098    
     11300   0.26354781     0.0012735763   0.0012735763   0              0             -84.985566      669.4267      -839.64799      0              262.60677      0              0              9.5345578      9.6987774      0.2            92.473553    
     11400   0.22715241     0.0014811971   0.0014811971   0              0              306.36429      1455.7196     -843.20838      0              440.53166      0              0              9.5335937      9.7002199      0.2            92.477955    
     11500   0.25269237     0.0012179675   0.0012179675   0              0              687.44449      1260.4477      114.23822      0              395.71645      0              0              9.5326295      9.700239       0.2            92.468785    
     11600   0.180315       0.0012194384   0.0012194384   0              0              1271.2775      1880.4621      661.92052      0             -966.46388      0              0              9.5316654      9.6994388      0.2            92.451806    
     11700   0.2351863      0.0015778514   0.0015778514   0              0              670.76788      961.65777      379.65728      0             -19.486761      0              0              9.5307013      9.6908415      0.2            92.360516    
     11800   0.22311209     0.0015290803   0.0015290803   0              0              154.52978      658.40356     -349.56719      0              572.02739      0              0              9.5297372      9.697008       0.2            92.409938    
     11900   0.20145276     0.0013099372   0.0013099372   0              0             -342.7434      -177.91893     -507.8018       0              342.76517      0              0              9.5287731      9.7018442      0.2            92.446672    
     12000   0.19246218     0.0013245715   0.0013245715   0              0              401.33963      902.50946     -100.02084      0              160.45034      0              0              9.527809       9.70181        0.2            92.436993    
     12100   0.22609167     0.0014149382   0.0014149382   0              0              1007.9764      1588.0025      427.72551      0             -409.32066      0              0              9.5268448      9.6990029      0.2            92.400895    
     12200   0.22109975     0.0014140228   0.0014140228   0              0              1199.8083      2058.9177      340.5128       0              403.3567       0              0              9.5258807      9.6978098      0.2            92.38018     
     12300   0.18287342     0.0012877716   0.0012877716   0              0              219.55266      534.44461     -95.511478      0              591.84448      0              0              9.5249166      9.7020631      0.2            92.411342    
     12400   0.20652893     0.0014043299   0.0014043299   0              0              686.7735       1611.4145     -238.11074      0              322.57653      0              0              9.5239525      9.6978406      0.2            92.361773    
     12500   0.20137809     0.0011052576   0.0011052576   0              0              397.07882      1024.5117     -230.58461      0              169.06215      0              0              9.5229884      9.6995479      0.2            92.368681    
     12600   0.22039271     0.0014580643   0.0014580643   0              0              1167.0834      2328.1845      5.7345425      0              38.556283      0              0              9.5220243      9.6944882      0.2            92.311151    
     12700   0.21069716     0.0013868785   0.0013868785   0              0              793.25842      1420.1155      166.19804      0             -213.86834      0              0              9.5210601      9.6943793      0.2            92.300768    
     12800   0.18085123     0.0011189085   0.0011189085   0              0              437.87077      877.35002     -1.8299398      0             -144.84516      0              0              9.520096       9.6965183      0.2            92.311785    
     12900   0.15395875     0.0011774575   0.0011774575   0              0              396.2474       883.95652     -91.675949      0             -196.66167      0              0              9.5191319      9.6927399      0.2            92.26647     
     13000   0.19166091     0.0014245555   0.0014245555   0              0              582.06099      1256.9909     -93.08414       0              73.993483      0              0              9.5181678      9.6963046      0.2            92.291054    
     13100   0.22325745     0.0012517827   0.0012517827   0              0              854.6694       1655.1551      53.975506      0             -283.59341      0              0              9.5172037      9.6951387      0.2            92.270609    
     13200   0.16305924     0.0012682718   0.0012682718   0              0              1310.8797      2562.5591      59.007954      0             -728.82226      0              0              9.5162395      9.6954863      0.2            92.26457     
     13300   0.18549697     0.001329688    0.001329688    0              0              712.49432      1383.3997      41.39205       0             -497.14885      0              0              9.5152754      9.6985174      0.2            92.284064    
     13400   0.2103041      0.0011459561   0.0011459561   0              0              498.80917      889.61763      107.80562      0             -778.03165      0              0              9.5143113      9.6988637      0.2            92.278009    
     13500   0.22707674     0.0011998147   0.0011998147   0              0              365.63128      748.32231     -17.269871      0             -351.76515      0              0              9.5133472      9.6915492      0.2            92.199072    
     13600   0.22115596     0.0014341986   0.0014341986   0              0              960.8015       2027.7553     -106.37815      0             -699.97211      0              0              9.5123831      9.6922278      0.2            92.196184    
     13700   0.20513343     0.0012078379   0.0012078379   0              0              286.26651      712.05186     -139.72895      0              80.450146      0              0              9.511419       9.6954992      0.2            92.217955    
     13800   0.20949346     0.0012848246   0.0012848246   0              0              284.96943      512.04764      57.683037      0             -206.1473       0              0              9.5104548      9.6978878      0.2            92.231324    
     13900   0.18014148     0.001255604    0.001255604    0              0              18.526501     -274.42726      311.27451      0             -801.5414       0              0              9.5094907      9.6906351      0.2            92.153005    
     14000   0.20789953     0.0013171413   0.0013171413   0              0              848.43669      1517.0967      179.55203      0             -937.05146      0              0              9.5085266      9.6934394      0.2            92.170327    
     14100   0.20252036     0.001180559    0.001180559    0              0              463.04501      1054.7748     -128.92666      0             -93.296903      0              0              9.5075625      9.6988675      0.2            92.212588    
     14200   0.17267841     0.0013679191   0.0013679191   0              0             -103.17934      1.0087261     -207.62101      0             -564.09088      0              0              9.5065984      9.6999042      0.2            92.213093    
     14300   0.21576591     0.0014676249   0.0014676249   0              0              397.16112      826.22418     -32.084217      0             -1258.1969      0              0              9.5056342      9.6955346      0.2            92.162205    
     14400   0.22883032     0.0012465446   0.0012465446   0              0              530.7766       796.59493      264.74423      0             -440.31967      0              0              9.5046701      9.6947237      0.2            92.145151    
     14500   0.21492935     0.001328024    0.001328024    0              0              626.49815      1019.8108      232.97912      0             -907.08564      0              0              9.503706       9.6999663      0.2            92.185628    
     14600   0.17118397     0.0013320817   0.0013320817   0              0              101.09982      194.2505       7.7448033      0             -1288.8742      0              0              9.5027419      9.6982861      0.2            92.160309    
     14700   0.1975774      0.0012712838   0.0012712838   0              0              400.30228      880.34239     -79.95366       0             -1046.0675      0              0              9.5017778      9.698916       0.2            92.156944    
     14800   0.23013727     0.0015537592   0.0015537592   0              0              478.90844      943.20578      14.37937       0             -369.311        0              0              9.5008137      9.6957693      0.2            92.117697    
     14900   0.22550088     0.0016744238   0.0016744238   0              0              117.53845      214.63697      20.186879      0             -487.68958      0              0              9.4998495      9.6995942      0.2            92.144685    
     15000   0.17524386     0.0014092112   0.0014092112   0              0              854.25891      1589.2969      119.0175       0             -27.848758      0              0              9.4988854      9.6939467      0.2            92.081689    
     15100   0.2241462      0.0013843902   0.0013843902   0              0              610.90505      1195.933       25.6872        0             -492.13264      0              0              9.4979213      9.6922464      0.2            92.056194    
     15200   0.24070653     0.0013260124   0.0013260124   0              0             -246.52371     -421.87899     -71.342691      0             -479.86559      0              0              9.4969572      9.6966338      0.2            92.088516    
     15300   0.19192471     0.0015470303   0.0015470303   0              0              779.6404       1438.3604      120.71324      0             -555.94564      0              0              9.4959931      9.6909222      0.2            92.02493     
     15400   0.20081131     0.0014740306   0.0014740306   0              0              321.06775      546.54359      95.392452      0             -51.300173      0              0              9.4950289      9.6948084      0.2            92.052486    
     15500   0.21823023     0.0014109996   0.0014109996   0              0             -106.97468     -126.67382     -87.470661      0             -208.8065       0              0              9.4940648      9.6885505      0.2            91.983727    
     15600   0.23261134     0.0015731707   0.0015731707   0              0              534.03157      1232.3276     -164.4678       0             -329.97909      0              0              9.4931007      9.6893258      0.2            91.981745    
     15700   0.17808602     0.0016375759   0.0016375759   0              0              421.24179      794.60864      47.66987       0             -784.05519      0              0              9.4921366      9.6831472      0.2            91.913756    
     15800   0.21312565     0.0015446187   0.0015446187   0              0              668.52365      1032.097       304.74632      0             -856.56043      0              0              9.4911725      9.6885754      0.2            91.95594     
     15900   0.18962325     0.0014397645   0.0014397645   0              0              531.3999       957.81535      104.72742      0             -118.83949      0              0              9.4902084      9.6857293      0.2            91.919589    
     16000   0.19959936     0.0011380922   0.0011380922   0              0              644.57126      1530.4196     -241.51455      0             -687.46614      0              0              9.4892442      9.6878663      0.2            91.930529    
     16100   0.22324231     0.0012894305   0.0012894305   0              0              347.5702       1138.119      -443.20487      0             -272.93622      0              0              9.4882801      9.6913065      0.2            91.953831    
     16200   0.22567727     0.0013893572   0.0013893572   0              0              156.07792      236.77242      75.207932      0             -1278.0584      0              0              9.487316       9.6880999      0.2            91.914066    
     16300   0.18404188     0.0014712184   0.0014712184   0              0              936.10386      1315.1277      556.8634       0             -807.4953       0              0              9.4863519      9.6808848      0.2            91.83628     
     16400   0.222029       0.0015597634   0.0015597634   0              0              512.6347       836.94989      188.07875      0             -72.386459      0              0              9.4853878      9.6860902      0.2            91.876321    
     16500   0.2203808      0.0013248275   0.0013248275   0              0              822.68384      2151.1037     -506.00028      0             -371.98293      0              0              9.4844237      9.6984223      0.2            91.983946    
     16600   0.21727282     0.0014158024   0.0014158024   0              0              302.52476      932.73264     -327.96088      0             -570.53239      0              0              9.4834595      9.6977071      0.2            91.967812    
     16700   0.21196712     0.0016664181   0.0016664181   0              0              1057.3265      1713.4637      400.98742      0             -281.05565      0              0              9.4824954      9.6941803      0.2            91.92502     
     16800   0.19407655     0.0012486764   0.0012486764   0              0              887.37685      1278.3173      496.24706      0              79.099076      0              0              9.4815313      9.7015983      0.2            91.986008    
     16900   0.22289018     0.0011676821   0.0011676821   0              0              681.81093      1506.2856     -142.86013      0             -373.30441      0              0              9.4805672      9.7098089      0.2            92.054496    
     17000   0.24888535     0.0013362695   0.0013362695   0              0              421.24293      1595.1115     -752.83502      0             -548.70181      0              0              9.4796031      9.71082        0.2            92.054719    
     17100   0.20439804     0.0014728632   0.0014728632   0              0              683.08522      1665.1039     -299.17208      0              2.6544491      0              0              9.4786389      9.7051295      0.2            91.991419    
     17200   0.21787806     0.0011345528   0.0011345528   0              0              1168.7929      1640.8555      696.48586      0             -122.78584      0              0              9.4776748      9.7004323      0.2            91.937543    
     17300   0.2246502      0.0013443529   0.0013443529   0              0              1006.3633      1357.2849      655.2208       0             -252.83083      0              0              9.4767107      9.7071039      0.2            91.991415    
     17400   0.22292083     0.0015427949   0.0015427949   0              0              604.36697      1508.3978     -299.88641      0             -582.46385      0              0              9.4757466      9.7180504      0.2            92.085783    
     17500   0.25421126     0.0011915128   0.0011915128   0              0             -86.967885      796.20196     -970.34914      0             -620.922        0              0              9.4747825      9.7208483      0.2            92.102923    
     17600   0.23487646     0.0012057418   0.0012057418   0              0              774.22258      1728.3859     -180.16574      0             -1025.1299      0              0              9.4738184      9.7181666      0.2            92.068145    
     17700   0.19874175     0.0015319064   0.0015319064   0              0              1797.6532      2479.1138      1115.9822      0             -565.26199      0              0              9.4728542      9.7082652      0.2            91.964981    
     17800   0.20584788     0.0015778577   0.0015778577   0              0              1648.2407      2509.3039      786.97347      0             -789.60668      0              0              9.4718901      9.7136143      0.2            92.006288    
     17900   0.22039497     0.0016235127   0.0016235127   0              0              713.79518      2164.7552     -737.4089       0             -315.68565      0              0              9.470926       9.7247986      0.2            92.102848    
     18000   0.19865062     0.0015808255   0.0015808255   0              0              509.77101      2260.4749     -1241.1695      0             -92.614947      0              0              9.4699619      9.7247282      0.2            92.092806    
     18100   0.27896238     0.0013635401   0.0013635401   0              0              673.9881       1195.9861      151.77916      0             -96.269668      0              0              9.4689978      9.7184432      0.2            92.023917    
     18200   0.21101279     0.0013264208   0.0013264208   0              0              1380.2774      1427.9996      1332.2853      0             -598.71231      0              0              9.4680336      9.7158356      0.2            91.989858    
     18300   0.18315821     0.0015076101   0.0015076101   0              0              452.93752      600.99207      304.66557      0              335.74258      0              0              9.4670695      9.7175916      0.2            91.997116    
     18400   0.18619755     0.0014883906   0.0014883906   0              0             -150.92745      738.18403     -1040.2904      0             -1012.4904      0              0              9.4661054      9.7180367      0.2            91.99196     
     18500   0.2074279      0.0015050743   0.0015050743   0              0             -7.8468968      706.49982     -722.43073      0             -432.29847      0              0              9.4651413      9.7237366      0.2            92.03654     
     18600   0.16200256     0.001484449    0.001484449    0              0              576.47705      342.69615      810.03682      0             -334.23827      0              0              9.4641772      9.7152415      0.2            91.946767    
     18700   0.17071842     0.0014157609   0.0014157609   0              0              1042.8998      1178.1708      907.41306      0             -593.89232      0              0              9.4632131      9.7137776      0.2            91.923547    
     18800   0.20029281     0.0014326191   0.0014326191   0              0              749.71142      2049.1524     -549.95695      0              268.6728       0              0              9.4622489      9.7269736      0.2            92.039046    
     18900   0.20908914     0.0010708045   0.0010708045   0              0             -387.50701      259.61773     -1034.8466      0             -526.32515      0              0              9.4612848      9.7274125      0.2            92.033821    
     19000   0.22211807     0.0012357872   0.0012357872   0              0              806.41356      1544.0965      68.547686      0             -186.5564       0              0              9.4603207      9.7252412      0.2            92.003901    
     19100   0.21646464     0.001719685    0.001719685    0              0              1628.8137      2387.298       870.12548      0             -818.57962      0              0              9.4593566      9.7174722      0.2            91.921035    
     19200   0.23871941     0.0014111774   0.0014111774   0              0              841.87714      1417.4705      266.03509      0              465.42741      0              0              9.4583925      9.7188108      0.2            91.924327    
     19300   0.23056705     0.0017403625   0.0017403625   0              0              344.42535      1253.3498     -564.74382      0             -166.31711      0              0              9.4574283      9.7215394      0.2            91.940762    
     19400   0.23538258     0.0013234067   0.0013234067   0              0             -15.090223      389.41702     -419.83532      0              58.636724      0              0              9.4564642      9.7179393      0.2            91.897345    
     19500   0.20120353     0.0014421748   0.0014421748   0              0              714.03056      1107.7522      320.08617      0             -674.9413       0              0              9.4555001      9.71822        0.2            91.890631    
     19600   0.22091119     0.0012728919   0.0012728919   0              0              1273.3693      2076.0106      470.53891      0              262.46054      0              0              9.454536       9.7161997      0.2            91.862159    
     19700   0.19502941     0.0014310652   0.0014310652   0              0              902.09356      2107.7571     -303.76178      0             -559.57081      0              0              9.4535719      9.721125       0.2            91.899354    
     19800   0.18786926     0.0014647538   0.0014647538   0              0              385.82354      1209.5615     -438.10475      0              127.27714      0              0              9.4526078      9.7307304      0.2            91.980778    
     19900   0.21643536     0.001290399    0.001290399    0              0              865.16757      1545.2253      184.90288      0             -836.62463      0              0              9.4516436      9.7278071      0.2            91.943766    
     20000   0.18591483     0.0013902477   0.0013902477   0              0              1134.9781      2011.2204      258.55901      0             -543.00094      0              0              9.4506795      9.7302002      0.2            91.957004    
     20100   0.22735858     0.0014211434   0.0014211434   0              0              782.93615      1610.4339     -44.808996      0             -919.42998      0              0              9.4497154      9.73349        0.2            91.97871     
     20200   0.27620038     0.001644266    0.001644266    0              0              395.33961      1046.9391     -256.46191      0             -1366.3466      0              0              9.4487513      9.7420332      0.2            92.050048    
     20300   0.23198955     0.0018490345   0.0018490345   0              0              87.991713      169.56967      6.2295295      0             -1168.7378      0              0              9.4477872      9.7389166      0.2            92.011211    
     20400   0.22586049     0.001769794    0.001769794    0              0              1218.2803      2435.0993      1.2400484      0             -768.17621      0              0              9.4468231      9.7350867      0.2            91.965641    
     20500   0.22290282     0.0014503775   0.0014503775   0              0              713.49099      1471.5655     -44.809648      0             -301.91542      0              0              9.4458589      9.7356082      0.2            91.961182    
     20600   0.19922498     0.001289774    0.001289774    0              0              1178.6173      2157.0864      199.91342      0             -358.09634      0              0              9.4448948      9.733506       0.2            91.93194     
     20700   0.20754954     0.0014050851   0.0014050851   0              0              963.91273      1966.704      -39.078005      0             -606.22072      0              0              9.4439307      9.7329134      0.2            91.91696     
     20800   0.19081105     0.0013078183   0.0013078183   0              0              726.87851      1586.4273     -132.90787      0             -641.09821      0              0              9.4429666      9.7356299      0.2            91.933228    
     20900   0.15669544     0.0012726024   0.0012726024   0              0              706.56262      1393.9221      18.981551      0             -20.663728      0              0              9.4420025      9.7360464      0.2            91.927774    
     21000   0.21004253     0.0012846821   0.0012846821   0              0              481.02713      766.59954      195.25492      0             -377.3527       0              0              9.4410383      9.7332847      0.2            91.892314    
     21100   0.20909749     0.0015428258   0.0015428258   0              0              582.30595      1275.7751     -111.41002      0             -694.75218      0              0              9.4400742      9.7360458      0.2            91.908995    
     21200   0.20637707     0.0013594609   0.0013594609   0              0              631.67834      1489.6358     -226.47816      0             -381.7498       0              0              9.4391101      9.7331918      0.2            91.87267     
     21300   0.1576391      0.0014947413   0.0014947413   0              0              1393.3043      2694.3938      91.968808      0              127.00458      0              0              9.438146       9.7279191      0.2            91.81352     
     21400   0.15603005     0.001513643    0.001513643    0              0              1363.0861      2286.687       439.2537       0             -168.87365      0              0              9.4371819      9.7237936      0.2            91.765209    
     21500   0.18811306     0.0012265769   0.0012265769   0              0              642.42165      1537.6593     -253.03505      0             -69.895082      0              0              9.4362178      9.7252356      0.2            91.769441    
     21600   0.18803147     0.0014822835   0.0014822835   0              0              521.56414      1568.6251     -525.70753      0             -1410.7845      0              0              9.4352536      9.7330966      0.2            91.834235    
     21700   0.16086989     0.0017551434   0.0017551434   0              0              960.49417      1738.1909      182.56762      0             -1239.2067      0              0              9.4342895      9.7259956      0.2            91.757859    
     21800   0.21162096     0.0016075057   0.0016075057   0              0              2433.4996      4174.5829      692.20007      0             -546.19912      0              0              9.4333254      9.7187205      0.2            91.679853    
     21900   0.18171296     0.0014835971   0.0014835971   0              0              599.22126      1364.4155     -166.19481      0             -1186.2105      0              0              9.4323613      9.7263271      0.2            91.742231    
     22000   0.22815476     0.001526166    0.001526166    0              0              525.34678      1697.68       -647.18584      0             -471.07965      0              0              9.4313972      9.7243192      0.2            91.713916    
     22100   0.17916953     0.0014390147   0.0014390147   0              0              486.99249      994.6031      -20.834471      0             -764.43164      0              0              9.430433       9.7252324      0.2            91.713153    
     22200   0.2019211      0.0014389545   0.0014389545   0              0              918.77802      1236.3008      601.04195      0             -804.89838      0              0              9.4294689      9.7264707      0.2            91.715453    
     22300   0.18060847     0.0016966034   0.0016966034   0              0              717.5767       1255.548       179.38674      0             -1400.3868      0              0              9.4285048      9.7288292      0.2            91.728313    
     22400   0.24154607     0.001546863    0.001546863    0              0              618.04452      1976.4222     -740.52691      0             -982.99122      0              0              9.4275407      9.7267666      0.2            91.699488    
     22500   0.18979396     0.0018220956   0.0018220956   0              0              1056.3754      2387.4754     -274.92639      0             -1050.9069      0              0              9.4265766      9.7251173      0.2            91.674563    
     22600   0.18826536     0.0018758695   0.0018758695   0              0              1357.0204      1901.7441      812.0227       0              170.33536      0              0              9.4256125      9.7225809      0.2            91.64128     
     22700   0.21273528     0.0015053615   0.0015053615   0              0              1020.9961      1687.4259      354.38647      0             -629.63722      0              0              9.4246483      9.7291158      0.2            91.693495    
     22800   0.21208712     0.0018647131   0.0018647131   0              0              191.4099       1157.8306     -775.22753      0             -1140.1181      0              0              9.4236842      9.735776       0.2            91.746879    
     22900   0.22111916     0.0016378367   0.0016378367   0              0              1148.8449      2777.6096     -480.13838      0             -787.69817      0              0              9.4227201      9.7312705      0.2            91.695038    
     23000   0.23430189     0.001351214    0.001351214    0              0             -196.38576     -953.38473      560.36296      0             -381.36321      0              0              9.421756       9.7306086      0.2            91.67942     
     23100   0.21554052     0.0015021581   0.0015021581   0              0              654.40242      761.05377      547.51793      0             -1385.219       0              0              9.4207919      9.7308459      0.2            91.672273    
     23200   0.2224596      0.0016790731   0.0016790731   0              0              748.96612      2147.7524     -650.04495      0             -132.54077      0              0              9.4198277      9.7359154      0.2            91.710646    
     23300   0.20703461     0.0014975844   0.0014975844   0              0              493.67969      1727.9478     -740.85218      0             -422.16398      0              0              9.4188636      9.7361497      0.2            91.703466    
     23400   0.17733356     0.0014709187   0.0014709187   0              0              1017.2421      1318.7895      715.50105      0             -189.2296       0              0              9.4178995      9.7329356      0.2            91.663809    
     23500   0.22652175     0.0015389595   0.0015389595   0              0              1478.7008      2069.6864      887.47238      0             -365.40415      0              0              9.4169354      9.734908       0.2            91.673       
     23600   0.19463759     0.0015957004   0.0015957004   0              0              258.64784      1371.7337     -854.66619      0             -421.14422      0              0              9.4159713      9.7399644      0.2            91.711225    
     23700   0.21462687     0.0016588624   0.0016588624   0              0              352.51014      1928.9831     -1224.1784      0             -16.422667      0              0              9.4150072      9.7446688      0.2            91.746127    
     23800   0.22874279     0.0015479487   0.0015479487   0              0              1421.527       1881.0912      961.76563      0             -598.23138      0              0              9.414043       9.7374385      0.2            91.668666    
     23900   0.23756497     0.0014412339   0.0014412339   0              0              1656.5686      1849.8115      1463.0934      0             -252.18658      0              0              9.4130789      9.7368596      0.2            91.653828    
     24000   0.2218425      0.0016298766   0.0016298766   0              0             -509.73261      160.95488     -1180.7         0             -211.72638      0              0              9.4121148      9.7436072      0.2            91.70795     
     24100   0.2173525      0.0013313134   0.0013313134   0              0             -763.15115      9.2434803     -1535.7578      0             -419.31286      0              0              9.4111507      9.7461375      0.2            91.722368    
     24200   0.22874115     0.0011788532   0.0011788532   0              0              1558.9582      1756.221       1361.4452      0             -408.36519      0              0              9.4101866      9.7322736      0.2            91.58251     
     24300   0.19326397     0.0016788222   0.0016788222   0              0              1677.2102      1564.739       1789.4544      0              589.71648      0              0              9.4092225      9.7258533      0.2            91.512717    
     24400   0.17016184     0.0013837414   0.0013837414   0              0             -357.48891      698.05282     -1413.2334      0             -431.17573      0              0              9.4082583      9.7475334      0.2            91.707312    
     24500   0.20750316     0.0015482337   0.0015482337   0              0             -685.80565      523.86266     -1895.7014      0              208.46221      0              0              9.4072942      9.7492084      0.2            91.713672    
     24600   0.19185934     0.0012761239   0.0012761239   0              0              1155.8636      1011.5749      1299.9664      0             -377.71369      0              0              9.4063301      9.7322152      0.2            91.544429    
     24700   0.2168503      0.0013932042   0.0013932042   0              0              1450.9602      1347.9854      1553.7137      0             -743.37136      0              0              9.405366       9.7374604      0.2            91.584379    
     24800   0.18335138     0.0016494512   0.0016494512   0              0              281.99268      1725.8579     -1162.0679      0             -513.81997      0              0              9.4044019      9.7472278      0.2            91.666847    
     24900   0.19796763     0.0015892095   0.0015892095   0              0             -342.35272      415.68455     -1100.6076      0             -899.7554       0              0              9.4034377      9.7459016      0.2            91.644979    
     25000   0.1982109      0.0014951932   0.0014951932   0              0              1115.4158      1314.196       916.41693      0             -1503.4966      0              0              9.4024736      9.7377343      0.2            91.55879     
     25100   0.21491795     0.001463494    0.001463494    0              0              1002.7299      1278.8016      726.42621      0             -147.16402      0              0              9.4015095      9.7346762      0.2            91.520651    
     25200   0.185152       0.0015003868   0.0015003868   0              0              34.014016      762.59714     -694.76548      0             -945.02103      0              0              9.4005454      9.7419109      0.2            91.579275    
     25300   0.18821588     0.001506081    0.001506081    0              0              289.56945      1177.5344     -598.60135      0             -684.01191      0              0              9.3995813      9.7410118      0.2            91.561432    
     25400   0.16636716     0.0013899408   0.0013899408   0              0              969.79827      1327.3415      612.04637      0             -249.90504      0              0              9.3986172      9.7382197      0.2            91.525799    
     25500   0.17626767     0.0015913668   0.0015913668   0              0              1175.4514      1876.8648      473.79696      0             -906.73672      0              0              9.397653       9.741465       0.2            91.546908    
     25600   0.21815035     0.0016015886   0.0016015886   0              0             -166.77713      373.24277     -707.01418      0             -470.19614      0              0              9.3966889      9.7375522      0.2            91.500748    
     25700   0.18988453     0.0015061184   0.0015061184   0              0             -271.20033     -134.38363     -408.25259      0             -169.32408      0              0              9.3957248      9.7447351      0.2            91.55885     
     25800   0.25598205     0.0017512534   0.0017512534   0              0              43.366373     -581.20744      667.74522      0             -880.34401      0              0              9.3947607      9.7418492      0.2            91.522342    
     25900   0.22591281     0.0017309748   0.0017309748   0              0              794.98104      1162.3049      427.44048      0             -792.99289      0              0              9.3937966      9.7378303      0.2            91.475197    
     26000   0.24521416     0.0016036878   0.0016036878   0              0             -248.1682       194.54979     -691.13625      0             -166.09919      0              0              9.3928324      9.7407641      0.2            91.493365    
     26100   0.23231265     0.0014126197   0.0014126197   0              0              470.64772      1348.0692     -407.01338      0              173.75295      0              0              9.3918683      9.7366581      0.2            91.445411    
     26200   0.17998251     0.00146508     0.00146508     0              0              1582.2033      2624.3454      539.87426      0             -544.46115      0              0              9.3909042      9.7381414      0.2            91.449953    
     26300   0.17925816     0.0015596899   0.0015596899   0              0              1117.758       2078.0389      157.20157      0              74.984136      0              0              9.3899401      9.7303539      0.2            91.36744     
     26400   0.24846689     0.0014710172   0.0014710172   0              0              249.44899      1026.1477     -527.49176      0              77.7499        0              0              9.388976       9.7345967      0.2            91.397895    
     26500   0.21399572     0.0013170292   0.0013170292   0              0              104.00756      315.20681     -107.46128      0              600.65072      0              0              9.3880119      9.7340481      0.2            91.383359    
     26600   0.20426553     0.0015208104   0.0015208104   0              0              949.90659      1484.4775      415.11083      0              225.64563      0              0              9.3870477      9.7313234      0.2            91.348398    
     26700   0.22369237     0.0013662874   0.0013662874   0              0              713.92519      1389.2547      38.389089      0             -814.4089       0              0              9.3860836      9.7346805      0.2            91.370525    
     26800   0.19427396     0.0012055075   0.0012055075   0              0              251.8834       823.51686     -319.93621      0             -321.19022      0              0              9.3851195      9.7347243      0.2            91.36155     
     26900   0.15978955     0.001470063    0.001470063    0              0              720.63939      1310.0112      131.04284      0             -84.624994      0              0              9.3841554      9.7284873      0.2            91.293636    
     27000   0.20262045     0.001575423    0.001575423    0              0              596.76229      790.63154      402.66274      0             -735.30867      0              0              9.3831913      9.729766       0.2            91.296256    
     27100   0.22507098     0.0015186687   0.0015186687   0              0              291.69866      1032.6182     -449.42794      0             -1164.735       0              0              9.3822271      9.7392098      0.2            91.375479    
     27200   0.18358939     0.0013644848   0.0013644848   0              0              327.66503      973.83055     -318.67511      0             -322.65143      0              0              9.381263       9.7307443      0.2            91.286672    
     27300   0.24165958     0.0014468479   0.0014468479   0              0              743.49996      935.08906      551.66547      0             -790.70351      0              0              9.3802989      9.7273994      0.2            91.245914    
     27400   0.21289598     0.0015458071   0.0015458071   0              0              329.72985      547.28556      111.97373      0             -765.15086      0              0              9.3793348      9.7295826      0.2            91.257013    
     27500   0.19351049     0.0015428389   0.0015428389   0              0             -11.139051      443.76852     -466.23916      0             -70.386516      0              0              9.3783707      9.7326561      0.2            91.276457    
     27600   0.19644772     0.0013116194   0.0013116194   0              0              228.59686      523.85565     -66.862367      0             -129.82934      0              0              9.3774066      9.7298186      0.2            91.240465    
     27700   0.16351681     0.0015262395   0.0015262395   0              0              668.64982      1005.7271      331.30953      0             -508.55358      0              0              9.3764424      9.7304507      0.2            91.237011    
     27800   0.21867105     0.0013973301   0.0013973301   0              0              992.1594       1861.748       122.31609      0             -123.0761       0              0              9.3754783      9.7267781      0.2            91.193198    
     27900   0.19666169     0.0014519036   0.0014519036   0              0              285.6382       937.44722     -366.35506      0             -781.28414      0              0              9.3745142      9.7291314      0.2            91.20588     
     28000   0.21192443     0.0013893694   0.0013893694   0              0              896.11543      1908.6108     -116.55043      0             -672.39713      0              0              9.3735501      9.7245518      0.2            91.153574    
[...]
     43000   0.21504816     0.0015651354   0.0015651354   0              0              88.624873      808.70248     -631.66029      0              279.54553      0              0              9.2289324      9.7454412      0.2            89.940018    
     43100   0.21335738     0.0016068813   0.0016068813   0              0              415.36163      1263.6024     -433.10605      0              634.92814      0              0              9.2279683      9.742277       0.2            89.901423    
     43200   0.22824711     0.0015253358   0.0015253358   0              0              1085.1558      1158.0193      1012.0956      0             -82.809084      0              0              9.2270042      9.7342126      0.2            89.81762     
     43300   0.20420233     0.0015514256   0.0015514256   0              0              1056.8529      2389.9224     -276.46135      0             -299.21771      0              0              9.22604        9.7393946      0.2            89.856045    
     43400   0.21896737     0.0015636333   0.0015636333   0              0              801.33106      2257.5362     -655.12841      0              214.52714      0              0              9.2250759      9.7409209      0.2            89.860735    
     43500   0.20437251     0.0015680762   0.0015680762   0              0              1070.6969      1275.9581      865.22463      0             -136.46213      0              0              9.2241118      9.73545        0.2            89.80088     
     43600   0.17012852     0.0013365181   0.0013365181   0              0              865.67381      1843.4218     -112.31174      0             -738.50842      0              0              9.2231477      9.7395424      0.2            89.829238    
     43700   0.19545362     0.0014223937   0.0014223937   0              0              268.38713      1150.3594     -613.82564      0             -591.71406      0              0              9.2221836      9.7370811      0.2            89.79715     
     43800   0.24681442     0.0013078947   0.0013078947   0              0              1053.9115      1447.1642      660.41595      0             -1443.273       0              0              9.2212194      9.732253       0.2            89.743241    
     43900   0.18460568     0.0013929416   0.0013929416   0              0              818.87136      1517.1329      120.39359      0             -312.54871      0              0              9.2202553      9.7350919      0.2            89.760033    
     44000   0.23078322     0.0014862298   0.0014862298   0              0             -13.097914      736.17419     -762.59361      0             -23.454706      0              0              9.2192912      9.7398596      0.2            89.794602    
     44100   0.20345931     0.0016079848   0.0016079848   0              0              434.81584      295.54641      573.8745       0             -902.20456      0              0              9.2183271      9.736656       0.2            89.75568     
     44200   0.2211641      0.0015674871   0.0015674871   0              0              456.74779      801.81147      111.45318      0             -462.18107      0              0              9.217363       9.7340661      0.2            89.72242     
     44300   0.20891559     0.0014380824   0.0014380824   0              0              247.4305       1083.5526     -588.89685      0             -759.8214       0              0              9.2163989      9.7443849      0.2            89.808138    
     44400   0.23038995     0.0012676663   0.0012676663   0              0              1126.4978      1771.5707      481.17405      0             -754.70775      0              0              9.2154347      9.7428857      0.2            89.784928    
     44500   0.22365608     0.001228204    0.001228204    0              0              467.06188      752.36639      181.53703      0             -366.75873      0              0              9.2144706      9.7410809      0.2            89.758903    
     44600   0.22531124     0.0012062726   0.0012062726   0              0             -405.41896     -248.36791     -562.67662      0             -1044.8487      0              0              9.2135065      9.7487166      0.2            89.819863    
     44700   0.18776661     0.0011746663   0.0011746663   0              0              17.027721     -311.3393       345.16757      0             -238.87041      0              0              9.2125424      9.7439292      0.2            89.766361    
     44800   0.22501286     0.0013752826   0.0013752826   0              0              965.17189      1773.5861      156.54663      0             -292.70448      0              0              9.2115783      9.7399797      0.2            89.720585    
     44900   0.1898497      0.0015026175   0.0015026175   0              0              345.86433      1179.298      -487.76785      0              150.62913      0              0              9.2106142      9.7426631      0.2            89.735911    
     45000   0.21772268     0.0012910183   0.0012910183   0              0              291.41574      592.28298     -9.6491416      0             -573.04309      0              0              9.20965        9.7413014      0.2            89.713977    
     45100   0.17190954     0.0014069564   0.0014069564   0              0              925.83423      1491.5059      359.90683      0             -758.35991      0              0              9.2086859      9.7425717      0.2            89.716283    
     45200   0.19136405     0.0016673417   0.0016673417   0              0              248.85061      884.18215     -386.6994       0             -548.05482      0              0              9.2077218      9.7464658      0.2            89.742745    
     45300   0.20082111     0.0012927454   0.0012927454   0              0              783.40643      1617.8513     -51.286767      0             -370.15395      0              0              9.2067577      9.7382571      0.2            89.657774    
     45400   0.22127387     0.0013026687   0.0013026687   0              0              889.6691       1387.0203      392.0602       0              100.75368      0              0              9.2057936      9.7324231      0.2            89.594678    
     45500   0.21726906     0.00096949422  0.00096949422  0              0              405.99526      1013.7582     -201.98408      0              368.64964      0              0              9.2048294      9.7331208      0.2            89.591717    
     45600   0.1672256      0.0014206457   0.0014206457   0              0              520.63018      1187.9364     -146.91264      0             -509.55821      0              0              9.2038653      9.7353737      0.2            89.603068    
     45700   0.18543623     0.0012314638   0.0012314638   0              0              648.46936      1092.7955      203.92147      0              454.42563      0              0              9.2029012      9.7326646      0.2            89.56875     
     45800   0.17559193     0.0012517891   0.0012517891   0              0              570.189        1216.4526     -76.319916      0              44.718988      0              0              9.2019371      9.7444972      0.2            89.66825     
     45900   0.22099909     0.0013577772   0.0013577772   0              0              298.64439      755.15864     -158.11539      0             -244.74184      0              0              9.200973       9.7467924      0.2            89.679973    
     46000   0.23780744     0.0012881051   0.0012881051   0              0              619.65276      997.5061       241.57985      0              125.15883      0              0              9.2000089      9.7449569      0.2            89.653689    
     46100   0.17944635     0.001405217    0.001405217    0              0              145.81379      633.59298     -342.20567      0             -65.256337      0              0              9.1990447      9.7482455      0.2            89.674546    
     46200   0.23353612     0.0014643596   0.0014643596   0              0             -0.62166395    -122.26178      120.75979      0              319.70658      0              0              9.1980806      9.7436988      0.2            89.623327    
     46300   0.20365859     0.0014836434   0.0014836434   0              0              612.40618      967.15491      257.40884      0              35.386739      0              0              9.1971165      9.7448063      0.2            89.624119    
     46400   0.23084158     0.0013081283   0.0013081283   0              0              143.34423      839.34141     -552.88028      0             -506.56505      0              0              9.1961524      9.7497787      0.2            89.66045     
     46500   0.1935357      0.0015038393   0.0015038393   0              0             -149.57371     -545.96088      246.58048      0             -123.4819       0              0              9.1951883      9.7401189      0.2            89.562227    
     46600   0.156933       0.0010544137   0.0010544137   0              0              541.13036      774.21288      307.82188      0             -64.936494      0              0              9.1942241      9.7402445      0.2            89.553991    
     46700   0.19655081     0.0012353649   0.0012353649   0              0              159.99277      795.06866     -475.29759      0              703.18844      0              0              9.19326        9.741042       0.2            89.551932    
     46800   0.18442785     0.0012229553   0.0012229553   0              0              358.05689      530.61311      185.27767      0              103.74859      0              0              9.1922959      9.7402477      0.2            89.535239    
     46900   0.17864178     0.0012869859   0.0012869859   0              0              338.4787       261.36187      415.40171      0             -343.81659      0              0              9.1913318      9.7351678      0.2            89.479158    
     47000   0.20809339     0.0013351868   0.0013351868   0              0             -600.30166     -677.42742     -523.35806      0             -630.06826      0              0              9.1903677      9.7365588      0.2            89.482556    
     47100   0.23551345     0.0013954962   0.0013954962   0              0              357.79587      497.78586      217.60026      0             -663.81679      0              0              9.1894036      9.7325176      0.2            89.436032    
     47200   0.21568563     0.0010571389   0.0010571389   0              0              364.28724      244.53029      483.82247      0             -147.86004      0              0              9.1884394      9.7297803      0.2            89.401497    
     47300   0.17842439     0.0012023032   0.0012023032   0              0             -559.80422     -469.64509     -650.17541      0             -242.61094      0              0              9.1874753      9.735011       0.2            89.440173    
     47400   0.18182912     0.0012565141   0.0012565141   0              0              205.88909      328.62309      82.928064      0              446.54489      0              0              9.1865112      9.7302649      0.2            89.387188    
     47500   0.24810247     0.0011599097   0.0011599097   0              0              718.21792      1027.4458      408.80891      0             -79.505427      0              0              9.1855471      9.7303819      0.2            89.378881    
     47600   0.23145456     0.0012908167   0.0012908167   0              0              185.09869      938.46393     -568.53005      0             -298.68437      0              0              9.184583       9.7445196      0.2            89.499348    
     47700   0.22698539     0.001235356    0.001235356    0              0              249.63822      345.24759      153.81307      0             -360.47845      0              0              9.1836188      9.7392667      0.2            89.441713    
     47800   0.18516591     0.0014538879   0.0014538879   0              0              1145.7532      1726.2676      564.99741      0              704.26521      0              0              9.1826547      9.7320475      0.2            89.366032    
     47900   0.19029098     0.0011975193   0.0011975193   0              0              197.86875      1054.2297     -658.70225      0              107.2951       0              0              9.1816906      9.7399763      0.2            89.429449    
     48000   0.20394001     0.001202112    0.001202112    0              0              30.989161      38.680612      23.096391      0             -756.44274      0              0              9.1807265      9.7400936      0.2            89.421136    
     48100   0.18295141     0.001460769    0.001460769    0              0              658.59847      628.31487      688.66249      0             -955.95949      0              0              9.1797624      9.7320785      0.2            89.338168    
     48200   0.19039783     0.0011973984   0.0011973984   0              0              235.89515      1376.3878     -904.87053      0             -721.31991      0              0              9.1787983      9.7330116      0.2            89.33735     
     48300   0.23604946     0.001245712    0.001245712    0              0              475.10249      876.95199      72.997713      0             -1009.2405      0              0              9.1778341      9.7298752      0.2            89.299181    
     48400   0.21494872     0.001411087    0.001411087    0              0              1096.0939      1163.906       1028.0713      0              379.48355      0              0              9.17687        9.7277428      0.2            89.270231    
     48500   0.230024       0.0013437825   0.0013437825   0              0              124.56423      1425.7512     -1176.8165      0             -563.40947      0              0              9.1759059      9.7404528      0.2            89.377478    
     48600   0.16901658     0.0011082133   0.0011082133   0              0              632.92896      1214.9212      50.729353      0             -1210.6557      0              0              9.1749418      9.7350441      0.2            89.318463    
     48700   0.21298813     0.0012985923   0.0012985923   0              0              1442.9375      1465.2009      1420.4077      0             -246.09336      0              0              9.1739777      9.7322114      0.2            89.28309     
     48800   0.21915695     0.0010303138   0.0010303138   0              0             -598.55117      360.41916     -1557.7056      0             -608.15221      0              0              9.1730136      9.7389832      0.2            89.335825    
     48900   0.178961       0.0012059584   0.0012059584   0              0              582.70382      939.6927       225.47617      0             -184.30335      0              0              9.1720494      9.7288774      0.2            89.233745    
     49000   0.20492714     0.0015172595   0.0015172595   0              0              1183.4267      917.72616      1448.8799      0              696.99341      0              0              9.1710853      9.7189875      0.2            89.133664    
     49100   0.20584078     0.0014409187   0.0014409187   0              0             -1012.1082     -311.03139     -1713.3972      0             -619.46503      0              0              9.1701212      9.7373516      0.2            89.292694    
     49200   0.19485078     0.0012591416   0.0012591416   0              0              576.21044      944.82053      207.36178      0              190.54608      0              0              9.1691571      9.7339538      0.2            89.252151    
     49300   0.22950914     0.0010215607   0.0010215607   0              0              924.22327      424.10178      1424.1377      0             -362.98531      0              0              9.168193       9.7305228      0.2            89.211311    
     49400   0.1900753      0.0013436087   0.0013436087   0              0             -876.50821     -191.80354     -1561.4908      0             -537.03148      0              0              9.1672288      9.745669       0.2            89.340778    
     49500   0.18939849     0.0010625607   0.0010625607   0              0              233.79461      244.1291       223.23498      0             -571.02156      0              0              9.1662647      9.7406481      0.2            89.285359    
     49600   0.22566766     0.0012898857   0.0012898857   0              0              1329.962       1410.976       1248.7078      0             -844.21156      0              0              9.1653006      9.7343646      0.2            89.218378    
     49700   0.19353574     0.0011089814   0.0011089814   0              0             -399.79896      509.26479     -1309.1328      0             -409.3237       0              0              9.1643365      9.7381981      0.2            89.244124    
     49800   0.20038935     0.0010493605   0.0010493605   0              0              107.31699      14.439547      199.97956      0              23.732501      0              0              9.1633724      9.7335673      0.2            89.192301    
     49900   0.23429843     0.0012119551   0.0012119551   0              0              214.2798      -476.32946      904.66068      0             -144.75882      0              0              9.1624083      9.7300337      0.2            89.150541    
     50000   0.24253521     0.0013945556   0.0013945556   0              0             -403.44128      201.68288     -1008.8071      0             -1295.7852      0              0              9.1614441      9.7410406      0.2            89.241999    
     50100   0.2369694      0.0013404742   0.0013404742   0              0              580.79707      1100.2315      61.16677       0             -1171.8885      0              0              9.16048        9.733957       0.2            89.167719    
     50200   0.19537141     0.0011134918   0.0011134918   0              0              667.70257      492.41413      842.75454      0             -390.42486      0              0              9.1595159      9.7317037      0.2            89.137695    
     50241   0.18505802     0.0013284084   0.0013284084   0              0              896.49966      987.4696       805.30656      0              281.85506      0              0              9.1591206      9.7316034      0.2            89.132929    
Loop time of 1.28496 on 1 procs for 50000 steps with 73 atoms

Performance: 33619.721 ns/day, 0.001 hours/ns, 38911.715 timesteps/s
99.4% CPU use with 1 MPI tasks x 1 OpenMP threads

MPI task timing breakdown:
Section |  min time  |  avg time  |  max time  |%varavg| %total
---------------------------------------------------------------
Pair    | 0          | 0          | 0          |   0.0 |  0.00
Bond    | 0.19459    | 0.19459    | 0.19459    |   0.0 | 15.14
Neigh   | 0          | 0          | 0          |   0.0 |  0.00
Comm    | 0.43597    | 0.43597    | 0.43597    |   0.0 | 33.93
Output  | 0.0075249  | 0.0075249  | 0.0075249  |   0.0 |  0.59
Modify  | 0.61478    | 0.61478    | 0.61478    |   0.0 | 47.84
Other   |            | 0.0321     |            |       |  2.50

Nlocal:             73 ave          73 max          73 min
Histogram: 1 0 0 0 0 0 0 0 0 0
Nghost:            617 ave         617 max         617 min
Histogram: 1 0 0 0 0 0 0 0 0 0
Neighs:              0 ave           0 max           0 min
Histogram: 1 0 0 0 0 0 0 0 0 0

Total # of neighbors = 0
Ave neighs/atom = 0
Ave special neighs/atom = 25.232877
Neighbor list builds = 0
Dangerous builds = 0


Total wall time: 0:00:01
