LAMMPS data file via write_data, version 23 Jun 2022, timestep = 10000

80 atoms
4 atom types

-4.789278158112246 4.789278158112246 xlo xhi
-4.789278158112246 4.789278158112246 ylo yhi
-0.1 0.1 zlo zhi

Atoms # sphere

30 2 1.3 0.4551661356395083 -3.771224002519566 -3.744393418202372 0 0 1 0
55 3 1 1 -2.6134084501281496 -3.7733128058990846 0 0 0 0
49 3 1 1 -1.6806257133192943 -3.9064943590854653 0 0 0 0
61 4 0.7 2.915451895043732 -1.1135085584300373 -3.613590810578245 0 0 1 0
66 4 0.7 2.915451895043732 0.22357078326036106 -4.25862336895166 0 0 0 0
67 4 0.7 2.915451895043732 0.2252575706075799 4.7041058739211845 0 0 -1 0
73 4 0.7 2.915451895043732 0.7125140957615184 -4.314110659775919 0 0 1 0
69 4 0.7 2.915451895043732 2.3115659671112336 -4.364683086612983 0 -1 0 0
78 4 0.7 2.915451895043732 2.6037246107636154 -3.859439570054381 0 0 0 0
16 1 1.6 0.2441406249999999 3.5357343210767738 -4.534632141272133 0 0 0 0
32 2 1.3 0.4551661356395083 4.692447841888887 -3.819378328282498 0 -1 0 0
75 4 0.7 2.915451895043732 -4.472343652130873 -2.9504021222550265 0 0 0 0
1 1 1.6 0.2441406249999999 -3.2022079689067375 -2.5673969199608018 0 0 0 0
51 3 1 1 -2.2067856528052228 -3.0577606305588896 0 0 0 0
62 4 0.7 2.915451895043732 -2.0250373733438902 -2.2633407962781487 0 1 0 0
63 4 0.7 2.915451895043732 -1.4177798599941953 -3.1653433926567733 0 0 1 0
14 1 1.6 0.2441406249999999 -0.21521767758170718 -3.204866310634255 0 0 0 0
64 4 0.7 2.915451895043732 0.7706875237615503 -3.5373124614713185 0 0 0 0
70 4 0.7 2.915451895043732 0.9960139190561339 -2.945626635071821 0 1 0 0
34 2 1.3 0.4551661356395083 1.6005671057355002 -3.7858217374894227 0 0 0 0
28 2 1.3 0.4551661356395083 2.6687750671985864 -3.084905817847656 0 0 0 0
58 3 1 1 3.713338159188078 -3.256759305047484 0 -1 0 0
42 3 1 1 -4.352902070149174 -2.1087114256577006 0 1 0 0
48 3 1 1 -1.1708281802374736 -2.4557045505346298 0 0 0 0
80 4 0.7 2.915451895043732 -0.9893173304708247 -1.6978314645219066 0 0 1 0
76 4 0.7 2.915451895043732 -0.5390599024845821 -2.0959509264174665 0 0 1 0
13 1 1.6 0.2441406249999999 0.5654881574246549 -1.9869436675597978 0 0 0 0
27 2 1.3 0.4551661356395083 1.9531312764246849 -2.099581095877482 0 0 0 0
6 1 1.6 0.2441406249999999 3.3172912449518748 -2.0088114883283557 0 0 0 0
53 3 1 1 4.288430441145929 -2.669636419273608 0 0 1 0
12 1 1.6 0.2441406249999999 -3.485594345672032 -1.1058232212170305 0 0 0 0
3 1 1.6 0.2441406249999999 -2.1288859300977743 -1.4339426468108147 0 0 1 0
72 4 0.7 2.915451895043732 -1.0111624553151262 -1.1483884075290338 0 0 0 0
46 3 1 1 -0.2782012397379905 -1.098100497120591 0 0 0 0
23 2 1.3 0.4551661356395083 1.459685666361679 -1.0426462277202422 0 0 0 0
54 3 1 1 2.5381143019088395 -0.7987164917849539 0 0 0 0
15 1 1.6 0.2441406249999999 4.584703911951458 -1.3164542556875336 0 0 0 0
33 2 1.3 0.4551661356395083 -4.374403632939483 -0.16011666410917869 0 0 0 0
65 4 0.7 2.915451895043732 -3.545860576543709 0.18119574987020393 0 0 0 0
31 2 1.3 0.4551661356395083 -2.5878088888533526 -0.22063195896978094 0 0 0 0
19 1 1.6 0.2441406249999999 -1.171850886428019 -0.18690915706636613 0 0 0 0
8 1 1.6 0.2441406249999999 0.24181586450917347 -0.11228482199943102 0 0 0 0
2 1 1.6 0.2441406249999999 1.6316116032283094 0.3809334652946035 0 0 0 0
22 2 1.3 0.4551661356395083 3.514242788057542 -0.4266334132334464 0 0 0 0
57 3 1 1 2.9073395489576477 0.4952106628658175 0 -1 0 0
60 3 1 1 4.44607867605604 0.44071015177748407 0 0 0 0
39 2 1.3 0.4551661356395083 -4.17024488834898 1.1559656217422578 0 0 1 0
52 3 1 1 -2.93962472767521 0.7351878824926406 0 0 0 0
40 2 1.3 0.4551661356395083 -1.9417633570682424 0.8440450700317914 0 0 0 0
17 1 1.6 0.2441406249999999 -0.5975748463682287 1.0835238016169981 0 0 0 0
56 3 1 1 1.5997178519536313 1.5351367233133528 0 0 -1 0
68 4 0.7 2.915451895043732 2.4510851585470146 1.196427362034071 0 -1 0 0
79 4 0.7 2.915451895043732 3.652959632028386 0.5616303048042877 0 0 0 0
41 3 1 1 4.2282130850269475 1.2313317674162976 0 0 0 0
26 2 1.3 0.4551661356395083 -2.5809441040834304 1.7458851679256622 0 0 0 0
4 1 1.6 0.2441406249999999 -3.733838025239763 2.412603979134073 0 0 0 0
35 2 1.3 0.4551661356395083 -1.5321952915493022 2.0977221945319693 0 0 0 0
24 2 1.3 0.4551661356395083 -0.3130481305603938 2.385261508734761 0 0 0 0
36 2 1.3 0.4551661356395083 0.5495539956721345 1.1881578530428332 0 0 -1 0
29 2 1.3 0.4551661356395083 2.584002159881754 2.129517229054218 0 -1 0 0
59 3 1 1 3.287961245660254 1.3171359690081665 0 0 0 0
43 3 1 1 4.737270688744584 2.0215635682692437 0 -1 0 0
37 2 1.3 0.4551661356395083 4.748832087578858 3.124338514518545 0 -1 0 0
18 1 1.6 0.2441406249999999 -3.0164937017248032 3.642997264178847 0 0 0 0
77 4 0.7 2.915451895043732 -2.3288904170344398 2.7370963288178487 0 0 0 0
9 1 1.6 0.2441406249999999 -1.3497057211041046 3.579842212846847 0 0 0 0
20 1 1.6 0.2441406249999999 0.16348641150650778 3.723156835979319 0 0 -1 0
10 1 1.6 0.2441406249999999 0.9325850886954647 2.5166425843945586 0 0 0 0
38 2 1.3 0.4551661356395083 1.9965654878221617 3.3241923289769986 0 0 0 0
74 4 0.7 2.915451895043732 2.838703547898139 3.0869391700753983 0 0 0 0
21 2 1.3 0.4551661356395083 3.813210665992484 2.3177191368544268 0 0 0 0
45 3 1 1 3.595255224509737 3.3043064355871934 0 0 0 0
7 1 1.6 0.2441406249999999 -4.408297879373485 4.414638929043321 0 0 0 0
44 3 1 1 -3.189457812340125 -4.722481114497961 0 0 1 0
25 2 1.3 0.4551661356395083 -2.051349165646017 4.661942161358942 0 0 0 0
11 1 1.6 0.2441406249999999 -0.7599038852319362 -4.634114841840466 0 0 1 0
5 1 1.6 0.2441406249999999 1.2936557938104976 4.45113364342404 0 0 -1 0
50 3 1 1 2.5335563569460824 4.308747943262119 0 0 -1 0
71 4 0.7 2.915451895043732 3.062134825575489 3.8237826717917294 0 0 -1 0
47 3 1 1 4.084620081650417 4.056781989089345 0 -1 0 0

Velocities

30 -0.04102512892406934 -0.29122490603927886 0 0 0 0
55 -0.013987049152028539 0.060392876462469075 0 0 0 0
49 0.049340513731456634 0.03150228016285736 0 0 0 0
61 0.2320330409889541 0.008483467889223103 0 0 0 0
66 0.10726214357243882 -0.06104890935552627 0 0 0 0
67 0.11586685038727208 0.09275921513097374 0 0 0 0
73 -0.01517042907893697 -0.06167066452561532 0 0 0 0
69 -0.024191456389701355 0.03218050013490377 0 0 0 0
78 0.3645699252669877 0.0486679164193959 0 0 0 0
16 -0.07422544080583293 0.036528769116348905 0 0 0 0
32 0.10619793963900405 0.03898779664771961 0 0 0 0
75 -0.00861803579447726 0.12601600574363783 0 0 0 0
1 -0.026292386525737083 0.086578226973938 0 0 0 0
51 -0.10756224513944967 0.08175437807183442 0 0 0 0
62 -0.06883625185259305 0.02591547379011767 0 0 0 0
63 -0.02805094570698375 0.162578838443064 0 0 0 0
14 0.012390778207362155 -0.08287911176552273 0 0 0 0
64 -0.041632552132643726 0.025854006378293805 0 0 0 0
70 -0.03557930510334615 -0.1739073910099222 0 0 0 0
34 0.14536754544779043 0.006360736350156443 0 0 0 0
28 -0.06673178670395229 0.050640141427707695 0 0 0 0
58 -0.07747086685397253 0.13484703326107444 0 0 0 0
42 -0.06754256969263919 -0.2847602938259087 0 0 0 0
48 -0.13259481502778103 -0.00972175269304261 0 0 0 0
80 0.07911421556690997 -0.01650898677433598 0 0 0 0
76 -0.211288070140428 0.033100225670884706 0 0 0 0
13 0.11939958949531805 0.12377768996640655 0 0 0 0
27 0.04976643684202191 0.011365247612391376 0 0 0 0
6 -0.049515435096255 0.0034989877929747846 0 0 0 0
53 0.027882185182581204 -0.05820350715515822 0 0 0 0
12 0.1549008189179654 0.020011421004503847 0 0 0 0
3 -0.01558862806796569 -0.038688877260480335 0 0 0 0
72 -0.042298568659604616 0.028879350467652484 0 0 0 0
46 0.022158554824939978 -0.15355202561072212 0 0 0 0
23 -0.17428016775681493 -0.14517940393988749 0 0 0 0
54 0.05270481598889456 0.03826542889378431 0 0 0 0
15 -0.07506559123278851 0.040340717115340284 0 0 0 0
33 0.17521519829977192 -0.0023305745806985307 0 0 0 0
65 0.06578067306692909 0.07820850832216879 0 0 0 0
31 -0.11070222254884639 0.20523946640319737 0 0 0 0
19 -0.08231854561155023 0.19785613006027 0 0 0 0
8 0.2298073741378929 -0.1589314012914845 0 0 0 0
2 -0.08154492571246344 -0.21086689643381284 0 0 0 0
22 0.18912072046735381 0.1703385329714956 0 0 0 0
57 0.11000328043460443 -0.1253826433112515 0 0 0 0
60 -0.027139084928398352 0.01674406747293145 0 0 0 0
39 -0.017641446151889752 0.1094954878696514 0 0 0 0
52 -0.11180895818415373 0.02741748264825027 0 0 0 0
40 -0.06192027573328221 -0.06593260822977833 0 0 0 0
17 -0.1236654368035325 -0.12050388135908623 0 0 0 0
56 0.05565789863363301 -0.02727239170508076 0 0 0 0
68 0.02900779102466434 0.16555396690567262 0 0 0 0
79 0.03443632843490692 -0.13110193803265394 0 0 0 0
41 0.058702872854293354 0.0035707320323976163 0 0 0 0
26 -0.11517260792316139 0.15867499300290722 0 0 0 0
4 0.005877704035071985 -0.025837372562945632 0 0 0 0
35 0.10078976701183018 0.03264331338417978 0 0 0 0
24 -0.24267510138865028 0.213454693545436 0 0 0 0
36 -0.15236090212320547 -0.057882916375958715 0 0 0 0
29 -0.10307176821595146 0.09038345827264636 0 0 0 0
59 -0.08320996581108873 -0.044507458498969255 0 0 0 0
43 0.021891373229942352 0.0050358361046740725 0 0 0 0
37 -0.13033833527903427 -0.18116274264614823 0 0 0 0
18 -0.08362385552845976 0.1527412516044141 0 0 0 0
77 0.07734066863411863 -0.06601848470958842 0 0 0 0
9 -0.048648033294703734 0.0018220927274303278 0 0 0 0
20 0.07506493685761575 0.15418602149962007 0 0 0 0
10 -0.05592593011709413 0.29478389153435297 0 0 0 0
38 -0.12718822160724982 -0.28795209009510675 0 0 0 0
74 -0.0919963846676166 -0.0660801464743353 0 0 0 0
21 0.16703691556638162 0.0524972801977246 0 0 0 0
45 0.04133111279709719 -0.14772813734053072 0 0 0 0
7 0.05896934615093756 0.0675155359004916 0 0 0 0
44 0.2974567786022037 -0.08562629721780468 0 0 0 0
25 -0.03286564232257631 0.07244718789087534 0 0 0 0
11 -0.10636876560047942 -0.03114611154661209 0 0 0 0
5 -0.07417862134900786 -0.1168650511688784 0 0 0 0
50 0.024508694982182198 -0.1740010957101256 0 0 0 0
71 0.10091127417844405 -0.12055329476663676 0 0 0 0
47 -0.0959533067193664 0.005132702734447117 0 0 0 0
