LAMMPS data file.

     58 atoms
    122 bonds
      0 angles
      0 dihedrals
      0 impropers
      1 atom types
    122 bond types
      0 angle types
      0 dihedral types
      0 improper types
  -4.789278   4.789278 xlo xhi
  -4.789278   4.789278 ylo yhi
  -0.100000   0.100000 zlo zhi

Masses # ['atom_id', 'mass']

1 10000.0

Atoms # ['atomID', 'moleculeID', 'atomType', 'charge', 'x', 'y', 'z']

     49      1      1   0.000000  -1.680626  -3.906494   0.000000
     61      1      1   0.000000  -1.113509  -3.613591   0.000000
     66      1      1   0.000000   0.223571  -4.258623   0.000000
     67      1      1   0.000000   0.225258   4.704106   0.000000
     16      1      1   0.000000   3.535734  -4.534632   0.000000
     32      1      1   0.000000   4.692448  -3.819378   0.000000
      1      1      1   0.000000  -3.202208  -2.567397   0.000000
     51      1      1   0.000000  -2.206786  -3.057761   0.000000
     63      1      1   0.000000  -1.417780  -3.165343   0.000000
     14      1      1   0.000000  -0.215218  -3.204866   0.000000
     28      1      1   0.000000   2.668775  -3.084906   0.000000
     58      1      1   0.000000   3.713338  -3.256759   0.000000
     48      1      1   0.000000  -1.170828  -2.455705   0.000000
     80      1      1   0.000000  -0.989317  -1.697831   0.000000
     76      1      1   0.000000  -0.539060  -2.095951   0.000000
     13      1      1   0.000000   0.565488  -1.986944   0.000000
     27      1      1   0.000000   1.953131  -2.099581   0.000000
      6      1      1   0.000000   3.317291  -2.008811   0.000000
     12      1      1   0.000000  -3.485594  -1.105823   0.000000
      3      1      1   0.000000  -2.128886  -1.433943   0.000000
     72      1      1   0.000000  -1.011162  -1.148388   0.000000
     46      1      1   0.000000  -0.278201  -1.098100   0.000000
     23      1      1   0.000000   1.459686  -1.042646   0.000000
     15      1      1   0.000000   4.584704  -1.316454   0.000000
     33      1      1   0.000000  -4.374404  -0.160117   0.000000
     31      1      1   0.000000  -2.587809  -0.220632   0.000000
     19      1      1   0.000000  -1.171851  -0.186909   0.000000
      8      1      1   0.000000   0.241816  -0.112285   0.000000
      2      1      1   0.000000   1.631612   0.380933   0.000000
     22      1      1   0.000000   3.514243  -0.426633   0.000000
     57      1      1   0.000000   2.907340   0.495211   0.000000
     60      1      1   0.000000   4.446079   0.440710   0.000000
     52      1      1   0.000000  -2.939625   0.735188   0.000000
     40      1      1   0.000000  -1.941763   0.844045   0.000000
     17      1      1   0.000000  -0.597575   1.083524   0.000000
     56      1      1   0.000000   1.599718   1.535137   0.000000
     68      1      1   0.000000   2.451085   1.196427   0.000000
     79      1      1   0.000000   3.652960   0.561630   0.000000
     41      1      1   0.000000   4.228213   1.231332   0.000000
     26      1      1   0.000000  -2.580944   1.745885   0.000000
     35      1      1   0.000000  -1.532195   2.097722   0.000000
     24      1      1   0.000000  -0.313048   2.385262   0.000000
     36      1      1   0.000000   0.549554   1.188158   0.000000
     29      1      1   0.000000   2.584002   2.129517   0.000000
     59      1      1   0.000000   3.287961   1.317136   0.000000
     43      1      1   0.000000   4.737271   2.021564   0.000000
     37      1      1   0.000000   4.748832   3.124339   0.000000
     20      1      1   0.000000   0.163486   3.723157   0.000000
     10      1      1   0.000000   0.932585   2.516643   0.000000
     38      1      1   0.000000   1.996565   3.324192   0.000000
     74      1      1   0.000000   2.838704   3.086939   0.000000
     21      1      1   0.000000   3.813211   2.317719   0.000000
     45      1      1   0.000000   3.595255   3.304306   0.000000
      7      1      1   0.000000  -4.408298   4.414639   0.000000
     11      1      1   0.000000  -0.759904  -4.634115   0.000000
      5      1      1   0.000000   1.293656   4.451134   0.000000
     50      1      1   0.000000   2.533556   4.308748   0.000000
     47      1      1   0.000000   4.084620   4.056782   0.000000

Bond Coeffs # ['bondID', 'bondCoeff', 'd']

      1   0.811748   1.109914
      2   0.523126   1.382601
      3   1.026713   0.986905
      4   1.004109   0.997952
      5   0.972475   1.014053
      6   0.972475   1.014053
      7   0.734970   1.166448
      8   1.577028   0.796307
      9   1.553616   0.802284
     10   1.002815   0.998596
     11   0.783052   1.130068
     12   0.674304   1.217789
     13   0.902351   1.052719
     14   2.768313   0.601025
     15   0.750074   1.154644
     16   1.398734   0.845537
     17   0.963980   1.018512
     18   0.468486   1.461005
     19   0.637404   1.252543
     20   1.052340   0.974814
     21   0.865410   1.074952
     22   0.637349   1.252597
     23   0.804991   1.114563
     24   0.498996   1.415635
     25   0.495774   1.420229
     26   1.018818   0.990722
     27   0.644782   1.245356
     28   0.563229   1.332470
     29   1.784564   0.748573
     30   0.795097   1.121476
     31   0.560478   1.335736
     32   0.427454   1.529521
     33   0.581114   1.311805
     34   0.829552   1.097939
     35   0.486349   1.433924
     36   0.756370   1.149828
     37   0.591266   1.300495
     38   0.642002   1.248049
     39   0.514458   1.394200
     40   0.451161   1.488793
     41   0.820932   1.103688
     42   0.710016   1.186769
     43   1.852672   0.734684
     44   0.992480   1.003781
     45   1.617095   0.786379
     46   0.542748   1.357378
     47   0.542748   1.357378
     48   0.534996   1.367176
     49   3.307262   0.549877
     50   0.516084   1.392001
     51   1.121786   0.944159
     52   1.035115   0.982892
     53   1.068754   0.967300
     54   1.068754   0.967300
     55   0.726132   1.173525
     56   0.594271   1.297202
     57   0.513263   1.395822
     58   1.428831   0.836584
     59   0.459813   1.474719
     60   0.892343   1.058606
     61   0.479457   1.444193
     62   1.891955   0.727017
     63   0.753663   1.151891
     64   0.633492   1.256404
     65   0.491138   1.426916
     66   0.491138   1.426916
     67   0.979567   1.010376
     68   3.407076   0.541763
     69   0.566868   1.328186
     70   0.678226   1.214263
     71   0.515932   1.392207
     72   0.613919   1.276276
     73   0.548709   1.349985
     74   0.553332   1.344334
     75   0.536425   1.365354
     76   1.125716   0.942509
     77   0.647314   1.242918
     78   0.647314   1.242918
     79   0.817218   1.106193
     80   0.767495   1.141464
     81   0.559956   1.336358
     82   1.486883   0.820090
     83   0.404693   1.571944
     84   1.771252   0.751380
     85   1.613895   0.787159
     86   0.665844   1.225502
     87   0.783868   1.129480
     88   0.783868   1.129480
     89   2.636812   0.615829
     90   2.636812   0.615829
     91   1.646584   0.779306
     92   0.765303   1.143098
     93   0.488475   1.430800
     94   0.765303   1.143098
     95   0.609555   1.280836
     96   0.525731   1.379171
     97   0.540665   1.359991
     98   0.629096   1.260786
     99   0.812135   1.109650
    100   1.062028   0.970358
    101   2.454504   0.638290
    102   0.593703   1.297822
    103   0.818419   1.105381
    104   0.646674   1.243533
    105   1.218867   0.905778
    106   1.306360   0.874920
    107   0.498486   1.416360
    108   1.131726   0.940003
    109   0.603999   1.286714
    110   0.600780   1.290156
    111   0.784193   1.129246
    112   0.477820   1.446664
    113   1.420429   0.839055
    114   1.241161   0.897606
    115   0.822202   1.102836
    116   0.762993   1.144827
    117   0.869444   1.072455
    118   0.581114   1.311805
    119   0.655298   1.235323
    120   0.410385   1.561006
    121   0.817502   1.106001
    122   0.857261   1.080049

Bonds # ['ID', 'type', 'atom1', 'atom2']

         1         1        76        13
         2         2        36        10
         3         3        61        14
         4         4        22        79
         5         5        67        11
         6         6        11        67
         7         7        27        23
         8         8        51        63
         9         9        60        79
        10        10        49        51
        11        11        59        21
        12        12        28        27
        13        13        66        11
        14        14        80        76
        15        15         2        56
        16        16        68        59
        17        17        31        52
        18        18         8        17
        19        19        24        10
        20        20        72        19
        21        21        29        59
        22        22        35        24
        23        23        46         8
        24        24        19         8
        25        25        24        20
        26        26        29        74
        27        27        31        40
        28        28        17        24
        29        29        57        79
        30        30        38        50
        31        31        10        38
        32        32        14        11
        33        33        33        15
        34        34        67         5
        35        35        23         2
        36        36        56        29
        37        37        13        23
        38        38         5        50
        39        39        19        17
        40        40         1        12
        41        41        22        57
        42        42        56        10
        43        43        72        46
        44        44        52        40
        45        45        49        63
        46        46         7        37
        47        47        37         7
        48        48        27         6
        49        49        80        72
        50        50        15        22
        51        51        41        59
        52        52        67        20
        53        53        33        60
        54        54        60        33
        55        55        49        11
        56        56         3        31
        57        57        12         3
        58        58        57        68
        59        59         8         2
        60        60        28        58
        61        61         6        15
        62        62        48        76
        63        63        17        36
        64        64        28         6
        65        65        32         7
        66        66         7        32
        67        67        21        45
        68        68        61        63
        69        69        38         5
        70        70        14        48
        71        71        13        27
        72        72        46        19
        73        73         2        36
        74        74        20         5
        75        75        40        17
        76        76        68        29
        77        77        16        50
        78        78        50        16
        79        79        26        35
        80        80        66        14
        81        81         8        36
        82        82        60        41
        83        83         3        19
        84        84        63        48
        85        85        74        45
        86        86        13        46
        87        87        47        16
        88        88        16        47
        89        89        67        66
        90        90        66        67
        91        91        48        80
        92        92         7        47
        93        93        20        10
        94        94        47         7
        95        95         2        57
        96        96        17        35
        97        97        16        32
        98        98        12        31
        99        99         1        51
       100       100        43        21
       101       101        49        61
       102       102        12        33
       103       103        40        26
       104       104        29        21
       105       105        57        59
       106       106        38        74
       107       107        31        19
       108       108        41        43
       109       109        19        40
       110       110        16        58
       111       111        32        58
       112       112        14        13
       113       113        79        59
       114       114        45        47
       115       115        43        37
       116       116        37        47
       117       117        52        26
       118       118        15        33
       119       119        37        21
       120       120         1         3
       121       121        56        36
       122       122        61        11
