ITEM: TIMESTEP
0
ITEM: NUMBER OF ATOMS
80
ITEM: BOX BOUNDS pp pp pp
-1.0000000000000000e+01 1.0000000000000000e+01
-1.0000000000000000e+01 1.0000000000000000e+01
-1.0000000000000001e-01 1.0000000000000001e-01
ITEM: ATOMS id type xs ys zs
32 2 0.240439 0.0567422 0.5
1 1 0.322072 0.0632184 0.5
67 4 0.355749 0.0799942 0.5
49 3 0.431729 0.075592 0.5
50 3 0.543707 0.0795712 0.5
20 1 0.620283 0.094393 0.5
56 3 0.866727 0.0852603 0.5
69 4 0.0854483 0.129782 0.5
75 4 0.339926 0.135772 0.5
66 4 0.400318 0.137131 0.5
71 4 0.545018 0.115183 0.5
23 2 0.669492 0.156929 0.5
70 4 0.943484 0.136252 0.5
64 4 0.137216 0.192583 0.5
27 2 0.183269 0.208857 0.5
28 2 0.2035 0.218754 0.5
14 1 0.329283 0.256636 0.5
36 2 0.356056 0.234308 0.5
22 2 0.696808 0.250208 0.5
79 4 0.814973 0.25686 0.5
55 3 0.0154289 0.313503 0.5
68 4 0.309235 0.309079 0.5
72 4 0.318041 0.31239 0.5
16 1 0.481304 0.270754 0.5
5 1 0.902498 0.278224 0.5
51 3 0.197081 0.346952 0.5
48 3 0.261282 0.36064 0.5
46 3 0.356479 0.344134 0.5
54 3 0.379386 0.345872 0.5
42 3 0.728526 0.328206 0.5
62 4 0.984193 0.336173 0.5
43 3 0.0945085 0.40489 0.5
7 1 0.151388 0.370475 0.5
33 2 0.104865 0.473422 0.5
34 2 0.199765 0.44984 0.5
37 2 0.129142 0.488912 0.5
12 1 0.33858 0.510302 0.5
13 1 0.873712 0.481269 0.5
18 1 0.108141 0.530521 0.5
31 2 0.615194 0.563157 0.5
19 1 0.632449 0.570898 0.5
78 4 0.970282 0.53679 0.5
58 3 0.0378775 0.606619 0.5
41 3 0.745916 0.60903 0.5
30 2 0.0999384 0.665513 0.5
29 2 0.116896 0.678355 0.5
65 4 0.17913 0.642921 0.5
4 1 0.349595 0.646393 0.5
21 2 0.654171 0.649447 0.5
60 3 0.820114 0.653433 0.5
6 1 0.939528 0.647152 0.5
15 1 0.97035 0.672514 0.5
35 2 0.157118 0.687355 0.5
61 4 0.200316 0.71155 0.5
26 2 0.24375 0.711635 0.5
8 1 0.514529 0.693314 0.5
17 1 0.566115 0.70304 0.5
10 1 0.974695 0.70078 0.5
57 3 0.160038 0.758776 0.5
63 4 0.219238 0.739047 0.5
24 2 0.32378 0.772376 0.5
40 2 0.337583 0.765722 0.5
44 3 0.614492 0.774493 0.5
59 3 0.63597 0.750068 0.5
3 1 0.0189104 0.82776 0.5
80 4 0.303791 0.823558 0.5
45 3 0.83375 0.829279 0.5
73 4 0.503891 0.894367 0.5
77 4 0.571896 0.8549 0.5
25 2 0.588734 0.853023 0.5
47 3 0.00606343 0.908007 0.5
9 1 0.264289 0.898965 0.5
74 4 0.710175 0.910881 0.5
2 1 0.809539 0.920094 0.5
38 2 0.883258 0.914263 0.5
39 2 0.00832913 0.987739 0.5
76 4 0.456595 0.98985 0.5
52 3 0.777233 0.954738 0.5
11 1 0.789788 0.960188 0.5
53 3 0.921758 0.980785 0.5
ITEM: TIMESTEP
10
ITEM: NUMBER OF ATOMS
80
ITEM: BOX BOUNDS pp pp pp
-9.2563594055865828e+00 9.2563594055865828e+00
-9.2563594055865828e+00 9.2563594055865828e+00
-1.0000000000000001e-01 1.0000000000000001e-01
ITEM: ATOMS id type xs ys zs
32 2 0.240439 0.0567422 0.5
1 1 0.322005 0.063185 0.5
67 4 0.355817 0.0800276 0.5
49 3 0.431729 0.075592 0.5
50 3 0.543706 0.0795441 0.5
20 1 0.620283 0.094393 0.5
56 3 0.866727 0.0852603 0.5
69 4 0.0854483 0.129782 0.5
75 4 0.339926 0.135772 0.5
66 4 0.400318 0.137131 0.5
71 4 0.545019 0.11521 0.5
23 2 0.669492 0.156929 0.5
70 4 0.943484 0.136252 0.5
64 4 0.13721 0.19258 0.5
27 2 0.183135 0.20879 0.5
28 2 0.203641 0.218823 0.5
14 1 0.329179 0.256713 0.5
36 2 0.356164 0.234218 0.5
22 2 0.696808 0.250208 0.5
79 4 0.814973 0.25686 0.5
55 3 0.0154421 0.313494 0.5
68 4 0.309143 0.309054 0.5
72 4 0.318128 0.312429 0.5
16 1 0.481304 0.270754 0.5
5 1 0.902498 0.278224 0.5
51 3 0.197128 0.346928 0.5
48 3 0.261282 0.36064 0.5
46 3 0.356379 0.344126 0.5
54 3 0.379487 0.345879 0.5
42 3 0.728526 0.328206 0.5
62 4 0.98418 0.336183 0.5
43 3 0.0945077 0.40489 0.5
7 1 0.151342 0.370498 0.5
33 2 0.104749 0.473291 0.5
34 2 0.199765 0.44984 0.5
37 2 0.129299 0.488897 0.5
12 1 0.33858 0.510302 0.5
13 1 0.873712 0.481269 0.5
18 1 0.108101 0.530667 0.5
31 2 0.615013 0.563076 0.5
19 1 0.63263 0.570979 0.5
78 4 0.970282 0.53679 0.5
58 3 0.0378775 0.606619 0.5
41 3 0.745916 0.60903 0.5
30 2 0.0997936 0.665409 0.5
29 2 0.116938 0.678433 0.5
65 4 0.179132 0.642918 0.5
4 1 0.349595 0.646393 0.5
21 2 0.654171 0.649447 0.5
60 3 0.820114 0.653433 0.5
6 1 0.939379 0.647005 0.5
15 1 0.970437 0.67242 0.5
35 2 0.157216 0.687382 0.5
61 4 0.200289 0.711546 0.5
26 2 0.24381 0.711597 0.5
8 1 0.514427 0.693295 0.5
17 1 0.566217 0.703059 0.5
10 1 0.974758 0.70102 0.5
57 3 0.160038 0.758776 0.5
63 4 0.219209 0.739091 0.5
24 2 0.323615 0.772455 0.5
40 2 0.337749 0.765642 0.5
44 3 0.614449 0.774543 0.5
59 3 0.636014 0.750018 0.5
3 1 0.0189104 0.82776 0.5
80 4 0.303791 0.823558 0.5
45 3 0.83375 0.829279 0.5
73 4 0.503891 0.894367 0.5
77 4 0.571774 0.854913 0.5
25 2 0.588856 0.85301 0.5
47 3 0.00606343 0.908007 0.5
9 1 0.264289 0.898965 0.5
74 4 0.710175 0.910881 0.5
2 1 0.809642 0.919926 0.5
38 2 0.883259 0.914263 0.5
39 2 0.00832913 0.987739 0.5
76 4 0.456595 0.98985 0.5
52 3 0.777014 0.954712 0.5
11 1 0.789903 0.960383 0.5
53 3 0.921758 0.980785 0.5
ITEM: TIMESTEP
20
ITEM: NUMBER OF ATOMS
80
ITEM: BOX BOUNDS pp pp pp
-8.3292756422830898e+00 8.3292756422830898e+00
-8.3292756422830898e+00 8.3292756422830898e+00
-1.0000000000000001e-01 1.0000000000000001e-01
ITEM: ATOMS id type xs ys zs
32 2 0.240436 0.0567419 0.5
1 1 0.321756 0.06306 0.5
67 4 0.356068 0.0801527 0.5
49 3 0.431729 0.075592 0.5
50 3 0.543702 0.0794319 0.5
20 1 0.620278 0.0943874 0.5
56 3 0.866727 0.0852603 0.5
69 4 0.0854483 0.129782 0.5
75 4 0.339926 0.135772 0.5
66 4 0.400318 0.137131 0.5
71 4 0.545023 0.115323 0.5
23 2 0.669497 0.156935 0.5
70 4 0.943484 0.136252 0.5
64 4 0.137163 0.192564 0.5
27 2 0.182678 0.20856 0.5
28 2 0.204145 0.21907 0.5
14 1 0.328819 0.256938 0.5
36 2 0.356553 0.233894 0.5
22 2 0.696808 0.250208 0.5
79 4 0.814973 0.25686 0.5
55 3 0.0155039 0.313449 0.5
68 4 0.30881 0.308989 0.5
72 4 0.318432 0.312593 0.5
16 1 0.481304 0.270754 0.5
5 1 0.902498 0.278224 0.5
51 3 0.197315 0.346832 0.5
48 3 0.261282 0.36064 0.5
46 3 0.356018 0.344099 0.5
54 3 0.379848 0.345907 0.5
42 3 0.728526 0.328206 0.5
62 4 0.984118 0.336227 0.5
43 3 0.0944811 0.404906 0.5
7 1 0.151182 0.370578 0.5
33 2 0.104327 0.472798 0.5
34 2 0.199765 0.44984 0.5
37 2 0.129872 0.488833 0.5
12 1 0.33858 0.510302 0.5
13 1 0.873712 0.481269 0.5
18 1 0.10795 0.531225 0.5
31 2 0.614374 0.56279 0.5
19 1 0.633268 0.571263 0.5
78 4 0.970282 0.53679 0.5
58 3 0.0378775 0.606619 0.5
41 3 0.745916 0.60903 0.5
30 2 0.0992525 0.665029 0.5
29 2 0.11707 0.678709 0.5
65 4 0.179149 0.642882 0.5
4 1 0.349595 0.646393 0.5
21 2 0.654172 0.64945 0.5
60 3 0.820114 0.653433 0.5
6 1 0.938825 0.646457 0.5
15 1 0.970754 0.672092 0.5
35 2 0.157571 0.687501 0.5
61 4 0.200187 0.71153 0.5
26 2 0.244054 0.711452 0.5
8 1 0.514045 0.693223 0.5
17 1 0.566599 0.703131 0.5
10 1 0.974993 0.701896 0.5
57 3 0.160038 0.758776 0.5
63 4 0.219104 0.739272 0.5
24 2 0.323033 0.772732 0.5
40 2 0.338332 0.765361 0.5
44 3 0.614286 0.774728 0.5
59 3 0.636176 0.749833 0.5
3 1 0.0189104 0.82776 0.5
80 4 0.303789 0.823563 0.5
45 3 0.83375 0.829279 0.5
73 4 0.503891 0.894367 0.5
77 4 0.571341 0.854962 0.5
25 2 0.589289 0.852962 0.5
47 3 0.00606343 0.908007 0.5
9 1 0.264289 0.898965 0.5
74 4 0.710175 0.910881 0.5
2 1 0.809992 0.919308 0.5
38 2 0.883296 0.91426 0.5
39 2 0.00832913 0.987739 0.5
76 4 0.456595 0.98985 0.5
52 3 0.776227 0.954631 0.5
11 1 0.790302 0.961085 0.5
53 3 0.921758 0.980785 0.5
ITEM: TIMESTEP
30
ITEM: NUMBER OF ATOMS
80
ITEM: BOX BOUNDS pp pp pp
-7.6322224703460355e+00 7.6322224703460355e+00
-7.6322224703460355e+00 7.6322224703460355e+00
-1.0000000000000001e-01 1.0000000000000001e-01
ITEM: ATOMS id type xs ys zs
32 2 0.240392 0.0567385 0.5
1 1 0.321291 0.0628097 0.5
67 4 0.356577 0.0804065 0.5
49 3 0.431729 0.075592 0.5
50 3 0.543684 0.0791817 0.5
20 1 0.620247 0.094339 0.5
56 3 0.866727 0.0852603 0.5
69 4 0.0854483 0.129782 0.5
75 4 0.339926 0.135772 0.5
66 4 0.400318 0.137131 0.5
71 4 0.545032 0.115571 0.5
23 2 0.669536 0.156985 0.5
70 4 0.943484 0.136252 0.5
64 4 0.137023 0.192515 0.5
27 2 0.181844 0.208133 0.5
28 2 0.205118 0.219546 0.5
14 1 0.328143 0.257271 0.5
36 2 0.357318 0.233257 0.5
22 2 0.696808 0.250208 0.5
79 4 0.814973 0.25686 0.5
55 3 0.0156526 0.313341 0.5
68 4 0.308148 0.308919 0.5
72 4 0.318993 0.312955 0.5
16 1 0.481304 0.270754 0.5
5 1 0.902498 0.278224 0.5
51 3 0.197714 0.346626 0.5
48 3 0.261282 0.36064 0.5
46 3 0.355324 0.344056 0.5
54 3 0.380555 0.34596 0.5
42 3 0.728526 0.328206 0.5
62 4 0.98397 0.336335 0.5
43 3 0.0943726 0.404961 0.5
7 1 0.15089 0.370719 0.5
33 2 0.103501 0.471809 0.5
34 2 0.199769 0.449839 0.5
37 2 0.131 0.488686 0.5
12 1 0.33858 0.510302 0.5
13 1 0.873712 0.481269 0.5
18 1 0.107645 0.532373 0.5
31 2 0.613147 0.56224 0.5
19 1 0.634482 0.571765 0.5
78 4 0.970282 0.53679 0.5
58 3 0.0378775 0.606619 0.5
41 3 0.745916 0.60903 0.5
30 2 0.0981603 0.664274 0.5
29 2 0.117293 0.679239 0.5
65 4 0.179204 0.64277 0.5
4 1 0.349595 0.646393 0.5
21 2 0.654184 0.649498 0.5
60 3 0.820114 0.653433 0.5
6 1 0.937713 0.64535 0.5
15 1 0.971391 0.671464 0.5
35 2 0.158271 0.687772 0.5
61 4 0.19998 0.711501 0.5
26 2 0.244581 0.711151 0.5
8 1 0.51327 0.693077 0.5
17 1 0.567374 0.703277 0.5
10 1 0.975469 0.703631 0.5
57 3 0.160038 0.758779 0.5
63 4 0.218899 0.739668 0.5
24 2 0.321932 0.773225 0.5
40 2 0.33945 0.764822 0.5
44 3 0.613957 0.775102 0.5
59 3 0.636506 0.749458 0.5
3 1 0.0189107 0.827759 0.5
80 4 0.303772 0.823609 0.5
45 3 0.83375 0.829279 0.5
73 4 0.503891 0.894367 0.5
77 4 0.570505 0.855055 0.5
25 2 0.590125 0.852868 0.5
47 3 0.0060632 0.908009 0.5
9 1 0.264289 0.898965 0.5
74 4 0.710175 0.910881 0.5
2 1 0.810625 0.918072 0.5
38 2 0.883441 0.91425 0.5
39 2 0.00832913 0.987739 0.5
76 4 0.456595 0.98985 0.5
52 3 0.774699 0.954494 0.5
11 1 0.791053 0.962467 0.5
53 3 0.921758 0.980785 0.5
ITEM: TIMESTEP
40
ITEM: NUMBER OF ATOMS
80
ITEM: BOX BOUNDS pp pp pp
-7.1338692912618651e+00 7.1338692912618651e+00
-7.1338692912618651e+00 7.1338692912618651e+00
-1.0000000000000001e-01 1.0000000000000001e-01
ITEM: ATOMS id type xs ys zs
32 2 0.24024 0.0567271 0.5
1 1 0.320609 0.0624004 0.5
67 4 0.35741 0.0808214 0.5
49 3 0.431729 0.075592 0.5
50 3 0.543608 0.0787377 0.5
20 1 0.620193 0.0942047 0.5
56 3 0.866727 0.0852603 0.5
69 4 0.0854483 0.129782 0.5
75 4 0.339928 0.135778 0.5
66 4 0.400318 0.137131 0.5
71 4 0.545047 0.116004 0.5
23 2 0.669651 0.157131 0.5
70 4 0.943484 0.136252 0.5
64 4 0.136735 0.192414 0.5
27 2 0.180602 0.207484 0.5
28 2 0.206648 0.220295 0.5
14 1 0.3271 0.257655 0.5
36 2 0.358538 0.232245 0.5
22 2 0.696808 0.250208 0.5
79 4 0.814973 0.25686 0.5
55 3 0.0159246 0.313143 0.5
68 4 0.307084 0.308886 0.5
72 4 0.319821 0.313566 0.5
16 1 0.481304 0.270754 0.5
5 1 0.902498 0.278224 0.5
51 3 0.198385 0.346275 0.5
48 3 0.261289 0.360641 0.5
46 3 0.35426 0.344022 0.5
54 3 0.381677 0.346045 0.5
42 3 0.728526 0.328206 0.5
62 4 0.983698 0.336533 0.5
43 3 0.0941185 0.40504 0.5
7 1 0.150446 0.370905 0.5
33 2 0.102193 0.470254 0.5
34 2 0.199821 0.449829 0.5
37 2 0.132771 0.488445 0.5
12 1 0.33858 0.510302 0.5
13 1 0.873712 0.481269 0.5
18 1 0.107149 0.534261 0.5
31 2 0.61123 0.561381 0.5
19 1 0.636358 0.572463 0.5
78 4 0.970282 0.53679 0.5
58 3 0.0378775 0.606619 0.5
41 3 0.745916 0.60903 0.5
30 2 0.0963887 0.66306 0.5
29 2 0.117594 0.68007 0.5
65 4 0.179317 0.642532 0.5
4 1 0.349595 0.646393 0.5
21 2 0.654226 0.649659 0.5
60 3 0.820114 0.653433 0.5
6 1 0.935908 0.643557 0.5
15 1 0.972432 0.67048 0.5
35 2 0.159379 0.688219 0.5
61 4 0.199648 0.711458 0.5
26 2 0.245486 0.710649 0.5
8 1 0.512004 0.692838 0.5
17 1 0.568622 0.7035 0.5
10 1 0.976233 0.706408 0.5
57 3 0.160039 0.758812 0.5
63 4 0.218574 0.740353 0.5
24 2 0.320237 0.773929 0.5
40 2 0.341196 0.763983 0.5
44 3 0.613422 0.77572 0.5
59 3 0.637059 0.748857 0.5
3 1 0.0189154 0.827729 0.5
80 4 0.303723 0.823744 0.5
45 3 0.83375 0.829279 0.5
73 4 0.503891 0.894367 0.5
77 4 0.569191 0.855201 0.5
25 2 0.591439 0.852722 0.5
47 3 0.0060585 0.908038 0.5
9 1 0.264289 0.898965 0.5
74 4 0.710175 0.910881 0.5
2 1 0.811546 0.916077 0.5
38 2 0.883771 0.914227 0.5
39 2 0.00832913 0.987739 0.5
76 4 0.456595 0.98985 0.5
52 3 0.772291 0.954296 0.5
11 1 0.792207 0.964681 0.5
53 3 0.921759 0.980788 0.5
ITEM: TIMESTEP
50
ITEM: NUMBER OF ATOMS
80
ITEM: BOX BOUNDS pp pp pp
-6.7917309875939447e+00 6.7917309875939447e+00
-6.7917309875939447e+00 6.7917309875939447e+00
-1.0000000000000001e-01 1.0000000000000001e-01
ITEM: ATOMS id type xs ys zs
32 2 0.239918 0.0567036 0.5
1 1 0.319731 0.0617919 0.5
67 4 0.358599 0.0814147 0.5
49 3 0.431729 0.075592 0.5
50 3 0.543426 0.0780602 0.5
20 1 0.620144 0.0939457 0.5
56 3 0.866727 0.0852603 0.5
69 4 0.0854483 0.129782 0.5
75 4 0.339938 0.135816 0.5
66 4 0.400318 0.137131 0.5
71 4 0.545055 0.116654 0.5
23 2 0.669876 0.157417 0.5
70 4 0.943484 0.136252 0.5
64 4 0.136249 0.192245 0.5
27 2 0.178966 0.206614 0.5
28 2 0.20877 0.221335 0.5
14 1 0.325673 0.258011 0.5
36 2 0.360252 0.23083 0.5
22 2 0.696808 0.250208 0.5
79 4 0.814973 0.25686 0.5
55 3 0.0163453 0.312838 0.5
68 4 0.305575 0.308929 0.5
72 4 0.320895 0.314449 0.5
16 1 0.481304 0.270754 0.5
5 1 0.902498 0.278224 0.5
51 3 0.19934 0.345749 0.5
48 3 0.261337 0.360652 0.5
46 3 0.35284 0.344037 0.5
54 3 0.383245 0.346163 0.5
42 3 0.728526 0.328206 0.5
62 4 0.983277 0.336838 0.5
43 3 0.0936647 0.405117 0.5
7 1 0.149832 0.371092 0.5
33 2 0.100372 0.468141 0.5
34 2 0.199997 0.44982 0.5
37 2 0.135192 0.48812 0.5
12 1 0.33858 0.510302 0.5
13 1 0.873712 0.481269 0.5
18 1 0.106439 0.53696 0.5
31 2 0.608587 0.5602 0.5
19 1 0.638919 0.573306 0.5
78 4 0.970282 0.53679 0.5
58 3 0.037878 0.60661 0.5
41 3 0.745916 0.60903 0.5
30 2 0.0938881 0.661349 0.5
29 2 0.117949 0.681225 0.5
65 4 0.179502 0.642132 0.5
4 1 0.349595 0.646393 0.5
21 2 0.654316 0.649991 0.5
60 3 0.820114 0.653433 0.5
6 1 0.933347 0.64103 0.5
15 1 0.973926 0.66912 0.5
35 2 0.160902 0.688824 0.5
61 4 0.19919 0.711411 0.5
26 2 0.246838 0.709925 0.5
8 1 0.510195 0.692497 0.5
17 1 0.570326 0.703756 0.5
10 1 0.977295 0.710299 0.5
57 3 0.160039 0.758921 0.5
63 4 0.218122 0.741369 0.5
24 2 0.317929 0.774809 0.5
40 2 0.343599 0.762829 0.5
44 3 0.612684 0.776627 0.5
59 3 0.637897 0.74803 0.5
3 1 0.0189317 0.827627 0.5
80 4 0.303627 0.824018 0.5
45 3 0.833753 0.829264 0.5
73 4 0.503891 0.894367 0.5
77 4 0.567374 0.855404 0.5
25 2 0.593254 0.852528 0.5
47 3 0.00604195 0.908131 0.5
9 1 0.264289 0.898965 0.5
74 4 0.710175 0.910881 0.5
2 1 0.812712 0.913273 0.5
38 2 0.88434 0.914173 0.5
39 2 0.00832938 0.987748 0.5
76 4 0.456595 0.98985 0.5
52 3 0.768961 0.954027 0.5
11 1 0.793784 0.967796 0.5
53 3 0.921774 0.980815 0.5
ITEM: TIMESTEP
60
ITEM: NUMBER OF ATOMS
80
ITEM: BOX BOUNDS pp pp pp
-6.5537760187713854e+00 6.5537760187713854e+00
-6.5537760187713854e+00 6.5537760187713854e+00
-1.0000000000000001e-01 1.0000000000000001e-01
ITEM: ATOMS id type xs ys zs
32 2 0.239378 0.056666 0.5
1 1 0.318689 0.0609556 0.5
67 4 0.360155 0.0821927 0.5
49 3 0.431729 0.075592 0.5
50 3 0.543099 0.0771274 0.5
20 1 0.620138 0.0935299 0.5
56 3 0.866727 0.0852603 0.5
69 4 0.0854483 0.129782 0.5
75 4 0.339963 0.135912 0.5
66 4 0.400318 0.137131 0.5
71 4 0.545028 0.117545 0.5
23 2 0.670234 0.157872 0.5
70 4 0.943484 0.136252 0.5
64 4 0.135528 0.191996 0.5
27 2 0.176979 0.205533 0.5
28 2 0.211478 0.222664 0.5
14 1 0.32385 0.258242 0.5
36 2 0.36247 0.229014 0.5
22 2 0.696806 0.250205 0.5
79 4 0.814973 0.25686 0.5
55 3 0.0169283 0.312415 0.5
68 4 0.303598 0.309072 0.5
72 4 0.322186 0.315601 0.5
16 1 0.481304 0.270754 0.5
5 1 0.902498 0.278224 0.5
51 3 0.200566 0.345029 0.5
48 3 0.261456 0.36068 0.5
46 3 0.351119 0.344177 0.5
54 3 0.385258 0.346313 0.5
42 3 0.728528 0.328212 0.5
62 4 0.982694 0.337261 0.5
43 3 0.0929719 0.405162 0.5
7 1 0.149042 0.371234 0.5
33 2 0.0980373 0.465528 0.5
34 2 0.200365 0.449816 0.5
37 2 0.138227 0.48773 0.5
12 1 0.33858 0.510302 0.5
13 1 0.873712 0.481269 0.5
18 1 0.10551 0.540471 0.5
31 2 0.605227 0.558707 0.5
19 1 0.64215 0.574233 0.5
78 4 0.970282 0.53679 0.5
58 3 0.0378763 0.60654 0.5
41 3 0.745916 0.60903 0.5
30 2 0.0906904 0.659163 0.5
29 2 0.118319 0.682714 0.5
65 4 0.179769 0.641539 0.5
4 1 0.349595 0.646393 0.5
21 2 0.654496 0.650525 0.5
60 3 0.820114 0.653433 0.5
6 1 0.930022 0.637788 0.5
15 1 0.975878 0.667405 0.5
35 2 0.16279 0.689542 0.5
61 4 0.198631 0.711369 0.5
26 2 0.248688 0.708978 0.5
8 1 0.50783 0.692052 0.5
17 1 0.572406 0.704009 0.5
10 1 0.978631 0.715293 0.5
57 3 0.160021 0.759154 0.5
63 4 0.217555 0.742732 0.5
24 2 0.315029 0.775822 0.5
40 2 0.346652 0.761367 0.5
44 3 0.611764 0.777831 0.5
59 3 0.639065 0.746999 0.5
3 1 0.0189654 0.827418 0.5
80 4 0.30348 0.824466 0.5
45 3 0.833773 0.829185 0.5
73 4 0.503891 0.894367 0.5
77 4 0.565058 0.855662 0.5
25 2 0.595556 0.852323 0.5
47 3 0.00600706 0.908296 0.5
9 1 0.264287 0.898969 0.5
74 4 0.710175 0.910881 0.5
2 1 0.814043 0.909701 0.5
38 2 0.885189 0.914061 0.5
39 2 0.00833079 0.987792 0.5
76 4 0.456595 0.98985 0.5
52 3 0.764729 0.953676 0.5
11 1 0.795771 0.971831 0.5
53 3 0.921819 0.980895 0.5
ITEM: TIMESTEP
70
ITEM: NUMBER OF ATOMS
80
ITEM: BOX BOUNDS pp pp pp
-6.4041329387032242e+00 6.4041329387032242e+00
-6.4041329387032242e+00 6.4041329387032242e+00
-1.0000000000000001e-01 1.0000000000000001e-01
ITEM: ATOMS id type xs ys zs
32 2 0.238586 0.0566144 0.5
1 1 0.317526 0.0598822 0.5
67 4 0.362064 0.0831502 0.5
49 3 0.431729 0.075592 0.5
50 3 0.542605 0.0759367 0.5
20 1 0.620205 0.0929386 0.5
56 3 0.866727 0.0852603 0.5
69 4 0.0854483 0.129782 0.5
75 4 0.34001 0.13608 0.5
66 4 0.400318 0.137131 0.5
71 4 0.544949 0.118681 0.5
23 2 0.670734 0.158495 0.5
70 4 0.943484 0.136252 0.5
64 4 0.134544 0.191661 0.5
27 2 0.174707 0.204268 0.5
28 2 0.214735 0.224264 0.5
14 1 0.32164 0.258263 0.5
36 2 0.365172 0.226822 0.5
22 2 0.696802 0.2502 0.5
79 4 0.814973 0.25686 0.5
55 3 0.0176751 0.311873 0.5
68 4 0.301158 0.309337 0.5
72 4 0.323652 0.316996 0.5
16 1 0.481304 0.270754 0.5
5 1 0.902498 0.278224 0.5
51 3 0.202034 0.344111 0.5
48 3 0.261673 0.360734 0.5
46 3 0.349169 0.34451 0.5
54 3 0.387689 0.346491 0.5
42 3 0.728539 0.32824 0.5
62 4 0.981947 0.337803 0.5
43 3 0.0920188 0.405141 0.5
7 1 0.148094 0.371275 0.5
33 2 0.0952123 0.462539 0.5
34 2 0.200977 0.449814 0.5
37 2 0.141797 0.487303 0.5
12 1 0.33858 0.510302 0.5
13 1 0.873712 0.481269 0.5
18 1 0.104393 0.54471 0.5
31 2 0.601204 0.556929 0.5
19 1 0.645999 0.575179 0.5
78 4 0.970282 0.53679 0.5
58 3 0.0378473 0.606362 0.5
41 3 0.745916 0.60903 0.5
30 2 0.0868923 0.656565 0.5
29 2 0.118655 0.684525 0.5
65 4 0.180125 0.640733 0.5
4 1 0.349595 0.646393 0.5
21 2 0.654798 0.651274 0.5
60 3 0.820114 0.653433 0.5
6 1 0.925982 0.633909 0.5
15 1 0.978254 0.665382 0.5
35 2 0.164966 0.690315 0.5
61 4 0.198013 0.71134 0.5
26 2 0.251032 0.707799 0.5
8 1 0.50493 0.691507 0.5
17 1 0.574762 0.704225 0.5
10 1 0.980185 0.721271 0.5
57 3 0.159951 0.759561 0.5
63 4 0.216906 0.744428 0.5
24 2 0.311606 0.776929 0.5
40 2 0.350305 0.759627 0.5
44 3 0.610691 0.779311 0.5
59 3 0.640585 0.745796 0.5
3 1 0.0190284 0.827098 0.5
80 4 0.303292 0.825101 0.5
45 3 0.833821 0.828991 0.5
73 4 0.503891 0.894367 0.5
77 4 0.562282 0.85597 0.5
25 2 0.598301 0.852149 0.5
47 3 0.00594922 0.908534 0.5
9 1 0.264273 0.898995 0.5
74 4 0.710175 0.910881 0.5
2 1 0.815439 0.905464 0.5
38 2 0.886352 0.913873 0.5
39 2 0.00834104 0.987898 0.5
76 4 0.456595 0.98985 0.5
52 3 0.759681 0.953233 0.5
11 1 0.798126 0.976737 0.5
53 3 0.921898 0.981049 0.5
ITEM: TIMESTEP
80
ITEM: NUMBER OF ATOMS
80
ITEM: BOX BOUNDS pp pp pp
-6.3353271265962015e+00 6.3353271265962015e+00
-6.3353271265962015e+00 6.3353271265962015e+00
-1.0000000000000001e-01 1.0000000000000001e-01
ITEM: ATOMS id type xs ys zs
32 2 0.23753 0.0565512 0.5
1 1 0.316296 0.0585858 0.5
67 4 0.364283 0.0842681 0.5
49 3 0.431729 0.075592 0.5
50 3 0.541935 0.0745088 0.5
20 1 0.620361 0.0921694 0.5
56 3 0.866727 0.0852603 0.5
69 4 0.0854483 0.129782 0.5
75 4 0.340077 0.136321 0.5
66 4 0.400318 0.137131 0.5
71 4 0.54481 0.120042 0.5
23 2 0.671369 0.159267 0.5
70 4 0.943484 0.136252 0.5
64 4 0.133287 0.191239 0.5
27 2 0.172241 0.202858 0.5
28 2 0.218445 0.226092 0.5
14 1 0.31909 0.25802 0.5
36 2 0.368303 0.224313 0.5
22 2 0.696794 0.2502 0.5
79 4 0.814973 0.25686 0.5
55 3 0.0185726 0.311222 0.5
68 4 0.298309 0.30973 0.5
72 4 0.325244 0.318576 0.5
16 1 0.481304 0.270754 0.5
5 1 0.902498 0.278224 0.5
51 3 0.203701 0.343002 0.5
48 3 0.262 0.360829 0.5
46 3 0.347074 0.345087 0.5
54 3 0.390479 0.346688 0.5
42 3 0.728565 0.328304 0.5
62 4 0.98105 0.338455 0.5
43 3 0.0908065 0.405024 0.5
7 1 0.147027 0.371164 0.5
33 2 0.0919525 0.459347 0.5
34 2 0.201866 0.4498 0.5
37 2 0.145774 0.486878 0.5
12 1 0.33858 0.510302 0.5
13 1 0.873712 0.481269 0.5
18 1 0.103148 0.549506 0.5
31 2 0.596624 0.55492 0.5
19 1 0.65037 0.576074 0.5
78 4 0.970282 0.53679 0.5
58 3 0.0377542 0.606046 0.5
41 3 0.745916 0.60903 0.5
30 2 0.0826724 0.653664 0.5
29 2 0.118906 0.68661 0.5
65 4 0.180561 0.639714 0.5
4 1 0.349595 0.646389 0.5
21 2 0.655239 0.652236 0.5
60 3 0.820114 0.653433 0.5
6 1 0.921341 0.629536 0.5
15 1 0.98096 0.663128 0.5
35 2 0.167323 0.691061 0.5
61 4 0.197394 0.71134 0.5
26 2 0.25381 0.706394 0.5
8 1 0.50156 0.690876 0.5
17 1 0.577275 0.704381 0.5
10 1 0.98186 0.727986 0.5
57 3 0.159812 0.760186 0.5
63 4 0.216223 0.746428 0.5
24 2 0.307766 0.778093 0.5
40 2 0.354459 0.757663 0.5
44 3 0.609501 0.781019 0.5
59 3 0.642449 0.744466 0.5
3 1 0.0191436 0.826717 0.5
80 4 0.303083 0.82592 0.5
45 3 0.833908 0.828635 0.5
73 4 0.503891 0.894367 0.5
77 4 0.55912 0.85632 0.5
25 2 0.601413 0.852046 0.5
47 3 0.00586633 0.908838 0.5
9 1 0.264239 0.899059 0.5
74 4 0.710166 0.910873 0.5
2 1 0.816792 0.900725 0.5
38 2 0.887824 0.91361 0.5
39 2 0.0083745 0.98808 0.5
76 4 0.456595 0.98985 0.5
52 3 0.753984 0.952706 0.5
11 1 0.800785 0.982385 0.5
53 3 0.922004 0.981292 0.5
ITEM: TIMESTEP
90
ITEM: NUMBER OF ATOMS
80
ITEM: BOX BOUNDS pp pp pp
-6.3377671220756078e+00 6.3377671220756078e+00
-6.3377671220756078e+00 6.3377671220756078e+00
-1.0000000000000001e-01 1.0000000000000001e-01
ITEM: ATOMS id type xs ys zs
32 2 0.236218 0.0564811 0.5
1 1 0.315059 0.057103 0.5
67 4 0.366744 0.0855153 0.5
49 3 0.43173 0.0755919 0.5
50 3 0.5411 0.072886 0.5
20 1 0.620608 0.091237 0.5
56 3 0.866727 0.0852603 0.5
69 4 0.0854483 0.129782 0.5
75 4 0.340165 0.136627 0.5
66 4 0.400318 0.137131 0.5
71 4 0.544613 0.121588 0.5
23 2 0.67212 0.160158 0.5
70 4 0.943484 0.136252 0.5
64 4 0.131765 0.190738 0.5
27 2 0.16969 0.201351 0.5
28 2 0.222447 0.228078 0.5
14 1 0.316307 0.257507 0.5
36 2 0.371777 0.221564 0.5
22 2 0.696784 0.250213 0.5
79 4 0.814968 0.256858 0.5
55 3 0.0195943 0.31048 0.5
68 4 0.295146 0.31024 0.5
72 4 0.326905 0.320259 0.5
16 1 0.481304 0.270754 0.5
5 1 0.902503 0.278225 0.5
51 3 0.205509 0.341725 0.5
48 3 0.26243 0.360985 0.5
46 3 0.344917 0.345934 0.5
54 3 0.393541 0.346897 0.5
42 3 0.728608 0.328409 0.5
62 4 0.980028 0.339196 0.5
43 3 0.0893592 0.404787 0.5
7 1 0.14589 0.370878 0.5
33 2 0.0883492 0.45614 0.5
34 2 0.20304 0.449757 0.5
37 2 0.149997 0.486495 0.5
12 1 0.33858 0.510302 0.5
13 1 0.873712 0.481269 0.5
18 1 0.101856 0.554604 0.5
31 2 0.591634 0.552748 0.5
19 1 0.655119 0.576857 0.5
78 4 0.970282 0.53679 0.5
58 3 0.037564 0.605564 0.5
41 3 0.745928 0.609034 0.5
30 2 0.078265 0.650631 0.5
29 2 0.119034 0.688896 0.5
65 4 0.181053 0.638508 0.5
4 1 0.349603 0.646359 0.5
21 2 0.655818 0.65339 0.5
60 3 0.820113 0.653434 0.5
6 1 0.91627 0.624861 0.5
15 1 0.983843 0.66074 0.5
35 2 0.169743 0.691697 0.5
61 4 0.196831 0.711395 0.5
26 2 0.256921 0.704795 0.5
8 1 0.497823 0.690179 0.5
17 1 0.579827 0.704461 0.5
10 1 0.983547 0.735121 0.5
57 3 0.159595 0.761046 0.5
63 4 0.215552 0.748672 0.5
24 2 0.303635 0.779271 0.5
40 2 0.358982 0.755556 0.5
44 3 0.608228 0.782888 0.5
59 3 0.644622 0.743065 0.5
3 1 0.0193316 0.826333 0.5
80 4 0.302877 0.826911 0.5
45 3 0.834041 0.828086 0.5
73 4 0.503891 0.894367 0.5
77 4 0.555677 0.856699 0.5
25 2 0.60479 0.852049 0.5
47 3 0.00575886 0.909198 0.5
9 1 0.264179 0.899172 0.5
74 4 0.710126 0.910834 0.5
2 1 0.817997 0.895694 0.5
38 2 0.889569 0.91329 0.5
39 2 0.00843851 0.988344 0.5
76 4 0.456595 0.98985 0.5
52 3 0.747875 0.952123 0.5
11 1 0.803669 0.988567 0.5
53 3 0.92213 0.981627 0.5
ITEM: TIMESTEP
100
ITEM: NUMBER OF ATOMS
80
ITEM: BOX BOUNDS pp pp pp
-6.3922439083952618e+00 6.3922439083952618e+00
-6.3922439083952618e+00 6.3922439083952618e+00
-1.0000000000000001e-01 1.0000000000000001e-01
ITEM: ATOMS id type xs ys zs
32 2 0.234677 0.0564099 0.5
1 1 0.313872 0.0554852 0.5
67 4 0.369361 0.0868558 0.5
49 3 0.431739 0.0755904 0.5
50 3 0.540126 0.0711233 0.5
20 1 0.620931 0.090169 0.5
56 3 0.866727 0.0852603 0.5
69 4 0.0854483 0.129782 0.5
75 4 0.340266 0.136977 0.5
66 4 0.400318 0.137131 0.5
71 4 0.544371 0.123266 0.5
23 2 0.672963 0.161134 0.5
70 4 0.943484 0.136252 0.5
64 4 0.129999 0.190169 0.5
27 2 0.167159 0.199798 0.5
28 2 0.226571 0.230145 0.5
14 1 0.313415 0.256753 0.5
36 2 0.375493 0.218664 0.5
22 2 0.696776 0.250247 0.5
79 4 0.81496 0.256857 0.5
55 3 0.0207061 0.309673 0.5
68 4 0.291777 0.310854 0.5
72 4 0.328585 0.321954 0.5
16 1 0.481304 0.270754 0.5
5 1 0.902511 0.278227 0.5
51 3 0.2074 0.340311 0.5
48 3 0.262952 0.361218 0.5
46 3 0.342766 0.347053 0.5
54 3 0.39678 0.347108 0.5
42 3 0.728666 0.328553 0.5
62 4 0.978916 0.340003 0.5
43 3 0.0877176 0.404413 0.5
7 1 0.144733 0.370416 0.5
33 2 0.0845114 0.453093 0.5
34 2 0.204483 0.44966 0.5
37 2 0.154294 0.486192 0.5
12 1 0.33858 0.510302 0.5
13 1 0.873712 0.481269 0.5
18 1 0.100603 0.559738 0.5
31 2 0.586398 0.550484 0.5
19 1 0.660077 0.577474 0.5
78 4 0.970282 0.53679 0.5
58 3 0.0372508 0.604897 0.5
41 3 0.745979 0.609052 0.5
30 2 0.0738936 0.647642 0.5
29 2 0.119014 0.691312 0.5
65 4 0.181576 0.63715 0.5
4 1 0.349636 0.64628 0.5
21 2 0.656524 0.654699 0.5
60 3 0.820097 0.653439 0.5
6 1 0.910958 0.62006 0.5
15 1 0.986745 0.658319 0.5
35 2 0.172124 0.692151 0.5
61 4 0.196378 0.711537 0.5
26 2 0.260229 0.703054 0.5
8 1 0.493833 0.689439 0.5
17 1 0.582311 0.704459 0.5
10 1 0.98515 0.742368 0.5
57 3 0.159301 0.762124 0.5
63 4 0.214931 0.751084 0.5
24 2 0.299335 0.780422 0.5
40 2 0.363729 0.753388 0.5
44 3 0.606905 0.78484 0.5
59 3 0.647046 0.74165 0.5
3 1 0.0196085 0.826007 0.5
80 4 0.302698 0.828051 0.5
45 3 0.834225 0.827323 0.5
73 4 0.503891 0.894367 0.5
77 4 0.552067 0.857093 0.5
25 2 0.608329 0.852179 0.5
47 3 0.00562934 0.909602 0.5
9 1 0.264092 0.899336 0.5
74 4 0.710036 0.91074 0.5
2 1 0.81897 0.890595 0.5
38 2 0.891526 0.912944 0.5
39 2 0.0085324 0.988686 0.5
76 4 0.456595 0.98985 0.5
52 3 0.741606 0.951521 0.5
11 1 0.806693 0.995043 0.5
53 3 0.92227 0.982048 0.5
ITEM: TIMESTEP
110
ITEM: NUMBER OF ATOMS
80
ITEM: BOX BOUNDS pp pp pp
-6.4697867010489665e+00 6.4697867010489665e+00
-6.4697867010489665e+00 6.4697867010489665e+00
-1.0000000000000001e-01 1.0000000000000001e-01
ITEM: ATOMS id type xs ys zs
32 2 0.232937 0.0563428 0.5
1 1 0.312779 0.0537847 0.5
67 4 0.372056 0.0882586 0.5
49 3 0.431769 0.0755852 0.5
50 3 0.539043 0.0692739 0.5
20 1 0.621309 0.0889966 0.5
56 3 0.866727 0.0852603 0.5
69 4 0.0854483 0.129782 0.5
75 4 0.340374 0.137347 0.5
66 4 0.400318 0.137131 0.5
71 4 0.544101 0.125019 0.5
23 2 0.673873 0.162166 0.5
70 4 0.943484 0.136252 0.5
64 4 0.128009 0.189545 0.5
27 2 0.164733 0.198238 0.5
28 2 0.230671 0.232231 0.5
14 1 0.310529 0.25581 0.5
36 2 0.379364 0.215681 0.5
22 2 0.69677 0.250308 0.5
79 4 0.814952 0.256854 0.5
55 3 0.0218753 0.308825 0.5
68 4 0.288302 0.311556 0.5
72 4 0.330243 0.323573 0.5
16 1 0.481304 0.270754 0.5
5 1 0.902519 0.278229 0.5
51 3 0.209327 0.338788 0.5
48 3 0.263555 0.361542 0.5
46 3 0.340658 0.348428 0.5
54 3 0.400112 0.347315 0.5
42 3 0.728737 0.328727 0.5
62 4 0.977747 0.340852 0.5
43 3 0.0859242 0.403891 0.5
7 1 0.143596 0.369799 0.5
33 2 0.0805385 0.450342 0.5
34 2 0.206169 0.449483 0.5
37 2 0.15852 0.486003 0.5
12 1 0.33858 0.510302 0.5
13 1 0.873712 0.481269 0.5
18 1 0.0994683 0.564689 0.5
31 2 0.581052 0.548187 0.5
19 1 0.665096 0.57789 0.5
78 4 0.970282 0.53679 0.5
58 3 0.0367952 0.604025 0.5
41 3 0.746094 0.609094 0.5
30 2 0.0697046 0.644826 0.5
29 2 0.118825 0.693804 0.5
65 4 0.182113 0.635671 0.5
4 1 0.349706 0.64614 0.5
21 2 0.657341 0.656118 0.5
60 3 0.820052 0.653455 0.5
6 1 0.905549 0.615229 0.5
15 1 0.989529 0.655956 0.5
35 2 0.174422 0.692386 0.5
61 4 0.196075 0.711799 0.5
26 2 0.263612 0.701225 0.5
8 1 0.489692 0.688675 0.5
17 1 0.584648 0.704384 0.5
10 1 0.986624 0.749519 0.5
57 3 0.158939 0.763387 0.5
63 4 0.214386 0.753588 0.5
24 2 0.29496 0.781517 0.5
40 2 0.368577 0.75122 0.5
44 3 0.605553 0.786807 0.5
59 3 0.649664 0.740279 0.5
3 1 0.0199883 0.825792 0.5
80 4 0.302566 0.82932 0.5
45 3 0.834463 0.826335 0.5
73 4 0.503891 0.894367 0.5
77 4 0.548388 0.857491 0.5
25 2 0.61194 0.852445 0.5
47 3 0.005481 0.910036 0.5
9 1 0.263978 0.89955 0.5
74 4 0.709886 0.910568 0.5
2 1 0.819656 0.885623 0.5
38 2 0.893644 0.912591 0.5
39 2 0.00865002 0.989096 0.5
76 4 0.456595 0.98985 0.5
52 3 0.735381 0.95094 0.5
11 1 0.809767 1.0016 0.5
53 3 0.922423 0.982547 0.5
ITEM: TIMESTEP
120
ITEM: NUMBER OF ATOMS
80
ITEM: BOX BOUNDS pp pp pp
-6.5354434744323777e+00 6.5354434744323777e+00
-6.5354434744323777e+00 6.5354434744323777e+00
-1.0000000000000001e-01 1.0000000000000001e-01
ITEM: ATOMS id type xs ys zs
32 2 0.231019 0.0562843 0.5
1 1 0.311808 0.0520403 0.5
67 4 0.374777 0.0897047 0.5
49 3 0.431829 0.0755734 0.5
50 3 0.537873 0.0673768 0.5
20 1 0.621719 0.0877448 0.5
56 3 0.86673 0.085264 0.5
69 4 0.0854483 0.129782 0.5
75 4 0.340482 0.137716 0.5
66 4 0.400318 0.137131 0.5
71 4 0.543821 0.126809 0.5
23 2 0.674833 0.163234 0.5
70 4 0.943484 0.136252 0.5
64 4 0.125804 0.188874 0.5
27 2 0.162465 0.196694 0.5
28 2 0.234645 0.234295 0.5
14 1 0.307739 0.254734 0.5
36 2 0.383334 0.212658 0.5
22 2 0.696769 0.250403 0.5
79 4 0.814943 0.256852 0.5
55 3 0.0230787 0.307951 0.5
68 4 0.284788 0.312338 0.5
72 4 0.331866 0.325051 0.5
16 1 0.481304 0.270754 0.5
5 1 0.902528 0.278231 0.5
51 3 0.211264 0.337172 0.5
48 3 0.264229 0.361967 0.5
46 3 0.338595 0.350042 0.5
54 3 0.403489 0.347514 0.5
42 3 0.728817 0.328924 0.5
62 4 0.976543 0.341725 0.5
43 3 0.0840097 0.403213 0.5
7 1 0.142506 0.369052 0.5
33 2 0.0764929 0.447948 0.5
34 2 0.208079 0.449201 0.5
37 2 0.162577 0.485952 0.5
12 1 0.33858 0.510302 0.5
13 1 0.873712 0.481269 0.5
18 1 0.0985202 0.569336 0.5
31 2 0.575683 0.545892 0.5
19 1 0.670081 0.578089 0.5