ITEM: TIMESTEP
1000
ITEM: NUMBER OF ATOMS
62
ITEM: BOX BOUNDS pp pp pp
-4.8062872664326299e+00 4.8062872664326299e+00
-4.8085462679493656e+00 4.8085462679493656e+00
-1.0000000000000001e-01 1.0000000000000001e-01
ITEM: ATOMS id type xs ys zs
51 1 0.0572504 0.0938972 0.499078
54 1 0.240007 0.0180655 0.500318
7 1 0.362294 0.0302644 0.498997
33 1 0.477953 0.0752213 0.49855
40 1 0.839954 0.0494173 0.501769
39 1 0.960399 0.0612962 0.500863
65 1 0.00241306 0.13907 0.500563
14 1 0.264404 0.152242 0.498704
52 1 0.399236 0.150925 0.499871
70 1 0.472925 0.188522 0.500594
15 1 0.588455 0.14752 0.500175
26 1 0.705608 0.0901218 0.499699
18 1 0.809941 0.191772 0.50185
4 1 0.951983 0.231129 0.500141
67 1 0.0399 0.297745 0.501224
72 1 0.103793 0.296613 0.499172
9 1 0.20436 0.304038 0.498167
29 1 0.411664 0.258126 0.498914
41 1 0.529497 0.254352 0.499396
45 1 0.736949 0.295409 0.498503
13 1 0.827258 0.354441 0.498417
24 1 0.090393 0.378481 0.497724
77 1 0.996856 0.446709 0.500151
79 1 0.170442 0.425439 0.501917
48 1 0.251196 0.395659 0.499088
1 1 0.385146 0.37499 0.501262
38 1 0.638234 0.285432 0.50045
36 1 0.964912 0.368103 0.501741
32 1 0.0826353 0.4878 0.501354
30 1 0.211247 0.507839 0.500969
47 1 0.311068 0.46859 0.500572
5 1 0.889316 0.488765 0.499708
61 1 0.988143 0.516529 0.499451
73 1 0.0976781 0.657118 0.500662
63 1 0.120012 0.57565 0.498644
35 1 0.19276 0.636397 0.500153
11 1 0.424998 0.533087 0.499988
27 1 0.478432 0.650475 0.499604
17 1 0.578118 0.563131 0.499486
62 1 0.928795 0.682327 0.500572
3 1 0.0101835 0.61843 0.50214
69 1 0.0590728 0.714993 0.500868
59 1 0.132651 0.737355 0.498598
12 1 0.258716 0.76509 0.501651
22 1 0.367842 0.677776 0.499683
80 1 0.670492 0.637401 0.499105
8 1 0.741042 0.726508 0.501453
58 1 0.866293 0.735081 0.500966
43 1 0.968622 0.746549 0.499994
44 1 0.0122192 0.88503 0.499434
20 1 0.132999 0.866274 0.500427
21 1 0.38301 0.803859 0.500321
19 1 0.598415 0.726783 0.500424
60 1 0.72161 0.853118 0.501264
49 1 0.820497 0.836127 0.499983
56 1 0.917814 0.834125 0.500943
31 1 0.0455723 0.97862 0.500905
55 1 0.157835 0.992901 0.500778
16 1 0.28799 0.908488 0.501098
28 1 0.720876 0.971568 0.498925
53 1 0.814785 0.922734 0.501976
37 1 0.922512 0.950828 0.498547
ITEM: TIMESTEP
1250
ITEM: NUMBER OF ATOMS
62
ITEM: BOX BOUNDS pp pp pp
-4.8050854470412272e+00 4.8050854470412272e+00
-4.8101243628632471e+00 4.8101243628632471e+00
-1.0000000000000001e-01 1.0000000000000001e-01
ITEM: ATOMS id type xs ys zs
51 1 0.0582191 0.0931746 0.499592
54 1 0.239747 0.0172391 0.500088
7 1 0.362416 0.0303549 0.499726
33 1 0.478371 0.0763602 0.49933
40 1 0.840684 0.0494183 0.503064
39 1 0.960905 0.0612371 0.502582
65 1 0.00331865 0.138502 0.500158
14 1 0.265027 0.152215 0.499321
52 1 0.398915 0.151352 0.499481
70 1 0.473147 0.189318 0.499477
15 1 0.589676 0.148193 0.499367
26 1 0.707219 0.0903039 0.501533
18 1 0.810474 0.192166 0.502009
4 1 0.953381 0.231341 0.501679
67 1 0.0407023 0.298203 0.501641
72 1 0.104724 0.296427 0.500384
9 1 0.20556 0.303669 0.496186
29 1 0.41199 0.258937 0.501697
41 1 0.529968 0.25474 0.500354
45 1 0.736786 0.295394 0.49741
13 1 0.827389 0.35457 0.498886
24 1 0.0911889 0.378634 0.497032
77 1 0.996539 0.44659 0.500697
79 1 0.171661 0.425393 0.503563
48 1 0.251924 0.395475 0.499125
1 1 0.385209 0.37552 0.500434
38 1 0.638677 0.285857 0.501316
36 1 0.96531 0.368353 0.500588
32 1 0.0823672 0.487051 0.500269
30 1 0.210971 0.507848 0.500735
47 1 0.31124 0.469374 0.497637
5 1 0.8888 0.489206 0.50007
61 1 0.987836 0.516545 0.498106
73 1 0.0972034 0.657249 0.503295
63 1 0.119778 0.574837 0.499873
35 1 0.192411 0.636698 0.502003
11 1 0.42583 0.533782 0.500055
27 1 0.478885 0.651371 0.497179
17 1 0.57849 0.563673 0.501484
62 1 0.92836 0.68285 0.500848
3 1 0.00965405 0.618838 0.501583
69 1 0.0586781 0.715475 0.501565
59 1 0.132272 0.737949 0.497553
12 1 0.258897 0.764875 0.501748
22 1 0.368427 0.677395 0.500476
80 1 0.67092 0.63828 0.499293
8 1 0.740389 0.727308 0.500801
58 1 0.865517 0.73531 0.500904
43 1 0.967929 0.746902 0.500704
44 1 0.0118733 0.88458 0.499065
20 1 0.132679 0.865425 0.500147
21 1 0.383112 0.802503 0.500219
19 1 0.598284 0.727479 0.49931
60 1 0.721568 0.85374 0.50114
49 1 0.820153 0.835358 0.500222
56 1 0.917203 0.835312 0.502187
31 1 0.0459645 0.978206 0.500948
55 1 0.157621 0.992036 0.501565
16 1 0.289197 0.908436 0.500471
28 1 0.721287 0.971149 0.498224
53 1 0.81498 0.922157 0.499593
37 1 0.923218 0.951311 0.498575
ITEM: TIMESTEP
1500
ITEM: NUMBER OF ATOMS
62
ITEM: BOX BOUNDS pp pp pp
-4.8038836276498245e+00 4.8038836276498245e+00
-4.8080530592847257e+00 4.8080530592847257e+00
-1.0000000000000001e-01 1.0000000000000001e-01
ITEM: ATOMS id type xs ys zs
51 1 0.057948 0.0938458 0.49849
54 1 0.240258 0.0176457 0.500867
7 1 0.362611 0.0308218 0.499301
33 1 0.478652 0.0766474 0.49981
40 1 0.839501 0.0482674 0.50188
39 1 0.960579 0.0613926 0.503226
65 1 0.00233228 0.139361 0.499682
14 1 0.265399 0.151842 0.498661
52 1 0.399258 0.151276 0.499438
70 1 0.472791 0.189627 0.498152
15 1 0.590346 0.148636 0.496836
26 1 0.707277 0.0899779 0.502513
18 1 0.810106 0.191675 0.499844
4 1 0.951982 0.231357 0.504303
67 1 0.0407895 0.297276 0.502436
72 1 0.105043 0.295804 0.500809
9 1 0.205387 0.303596 0.496955
29 1 0.411203 0.2589 0.504005
41 1 0.529924 0.254578 0.500012
45 1 0.73775 0.295418 0.496912
13 1 0.828754 0.354104 0.499925
24 1 0.0911864 0.378085 0.495499
77 1 0.997536 0.446545 0.499037
79 1 0.170829 0.426015 0.503837
48 1 0.251202 0.395975 0.498004
1 1 0.386143 0.375642 0.498002
38 1 0.638431 0.287513 0.501673
36 1 0.965992 0.368086 0.50185
32 1 0.0830278 0.488003 0.500241
30 1 0.211719 0.508121 0.500659
47 1 0.311276 0.468901 0.497569
5 1 0.88951 0.489333 0.500113
61 1 0.988502 0.516166 0.49808
73 1 0.097472 0.657113 0.501303
63 1 0.119778 0.576016 0.501208
35 1 0.193286 0.6365 0.501443
11 1 0.425541 0.534008 0.501592
27 1 0.478992 0.651287 0.497295
17 1 0.578283 0.564142 0.500616
62 1 0.928646 0.682633 0.498386
3 1 0.00992614 0.618547 0.50226
69 1 0.0589848 0.715292 0.503771
59 1 0.132715 0.737407 0.496062
12 1 0.258626 0.765061 0.500078
22 1 0.368157 0.676351 0.500532
80 1 0.670347 0.638728 0.498409
8 1 0.740274 0.726961 0.500722
58 1 0.866104 0.735029 0.500041
43 1 0.968252 0.746801 0.502339
44 1 0.0122214 0.884796 0.499352
20 1 0.133963 0.866183 0.499898
21 1 0.383762 0.801997 0.500457
19 1 0.597822 0.727946 0.499188
60 1 0.722911 0.853653 0.501103
49 1 0.821531 0.834007 0.501574
56 1 0.918232 0.834998 0.503622
31 1 0.0454847 0.978679 0.500693
55 1 0.157958 0.992833 0.504013
16 1 0.289626 0.908491 0.500548
28 1 0.724219 0.9715 0.499823
53 1 0.816179 0.920408 0.499599
37 1 0.923074 0.951073 0.4983
ITEM: TIMESTEP
1750
ITEM: NUMBER OF ATOMS
62
ITEM: BOX BOUNDS pp pp pp
-4.8026818082584208e+00 4.8026818082584208e+00
-4.8124015285175687e+00 4.8124015285175687e+00
-1.0000000000000001e-01 1.0000000000000001e-01
ITEM: ATOMS id type xs ys zs
51 1 0.0575624 0.0934706 0.497842
54 1 0.240494 0.0172731 0.502725
7 1 0.362572 0.0307814 0.500473
33 1 0.478619 0.0765347 0.500008
40 1 0.840502 0.0494087 0.502624
39 1 0.960345 0.0616556 0.503204
65 1 0.0027876 0.139052 0.500169
14 1 0.2642 0.15212 0.497595
52 1 0.398817 0.151676 0.499577
70 1 0.472975 0.189294 0.498091
15 1 0.589121 0.149192 0.495142
26 1 0.705648 0.0897503 0.500435
18 1 0.809942 0.191799 0.498325
4 1 0.95296 0.231588 0.50443
67 1 0.0407567 0.298246 0.503405
72 1 0.104531 0.297315 0.499116
9 1 0.205 0.303884 0.496468
29 1 0.411624 0.259182 0.505645
41 1 0.529783 0.255424 0.499161
45 1 0.737096 0.295291 0.498356
13 1 0.828734 0.353836 0.499618
24 1 0.0910382 0.379423 0.495163
77 1 0.99762 0.446862 0.500076
79 1 0.170932 0.426295 0.503117
48 1 0.251471 0.395793 0.498697
1 1 0.385898 0.374764 0.498379
38 1 0.638349 0.287007 0.502043
36 1 0.965605 0.36835 0.501003
32 1 0.0828757 0.488474 0.500713
30 1 0.211831 0.508253 0.501421
47 1 0.3117 0.46835 0.497646
5 1 0.889624 0.488825 0.499675
61 1 0.988312 0.516652 0.496399
73 1 0.0979135 0.657519 0.501978
63 1 0.120051 0.576216 0.501934
35 1 0.193543 0.636887 0.500025
11 1 0.425964 0.533072 0.500885
27 1 0.478914 0.650783 0.497903
17 1 0.578739 0.563974 0.501141
62 1 0.928298 0.682021 0.499935
3 1 0.0102444 0.618385 0.501297
69 1 0.0592738 0.71537 0.502906
59 1 0.132864 0.737889 0.496069
12 1 0.258955 0.764776 0.498497
22 1 0.367617 0.676409 0.49941
80 1 0.672226 0.637952 0.497479
8 1 0.740848 0.727317 0.502494
58 1 0.865858 0.734477 0.500242
43 1 0.967877 0.7465 0.502392
44 1 0.0122314 0.885067 0.500159
20 1 0.133352 0.866342 0.500223
21 1 0.382901 0.801329 0.501494
19 1 0.598319 0.726942 0.49821
60 1 0.723552 0.853396 0.499576
49 1 0.821706 0.832955 0.500487
56 1 0.918615 0.835023 0.504997
31 1 0.0456194 0.978955 0.501083
55 1 0.158021 0.993169 0.504009
16 1 0.28971 0.908387 0.499174
28 1 0.724042 0.971108 0.500024
53 1 0.815972 0.919744 0.501132
37 1 0.923031 0.95158 0.499328
ITEM: TIMESTEP
2000
ITEM: NUMBER OF ATOMS
62
ITEM: BOX BOUNDS pp pp pp
-4.8014799888670181e+00 4.8014799888670181e+00
-4.8127509143866076e+00 4.8127509143866076e+00
-1.0000000000000001e-01 1.0000000000000001e-01
ITEM: ATOMS id type xs ys zs
51 1 0.0568487 0.0937523 0.49892
54 1 0.240806 0.0163691 0.501841
7 1 0.362308 0.0300591 0.500958
33 1 0.478296 0.0754144 0.500075
40 1 0.83897 0.0478696 0.501885
39 1 0.95975 0.0605417 0.502637
65 1 0.00102778 0.138851 0.501819
14 1 0.264054 0.151242 0.496065
52 1 0.399296 0.150752 0.500925
70 1 0.472736 0.189175 0.499824
15 1 0.589051 0.149006 0.493189
26 1 0.706036 0.089617 0.500924
18 1 0.811202 0.190608 0.497398
4 1 0.953294 0.23206 0.506191
67 1 0.0414868 0.298006 0.502912
72 1 0.105577 0.296765 0.500381
9 1 0.206248 0.303373 0.496724
29 1 0.411421 0.258492 0.505093
41 1 0.529663 0.255371 0.49791
45 1 0.737981 0.294353 0.497567
13 1 0.828492 0.353275 0.501263
24 1 0.0915626 0.378743 0.496174
77 1 0.997578 0.446606 0.501017
79 1 0.171164 0.427184 0.502721
48 1 0.251488 0.396413 0.500349
1 1 0.384352 0.374955 0.497636
38 1 0.638863 0.286139 0.504023
36 1 0.966017 0.368481 0.501163
32 1 0.0831567 0.48819 0.500441
30 1 0.211679 0.509073 0.501949
47 1 0.311479 0.469752 0.498319
5 1 0.889445 0.488548 0.499646
61 1 0.988543 0.516246 0.495053
73 1 0.0975493 0.657218 0.503098
63 1 0.120137 0.575732 0.502021
35 1 0.192986 0.636954 0.501792
11 1 0.425814 0.533075 0.50332
27 1 0.478515 0.650789 0.497221
17 1 0.577986 0.563655 0.503076
62 1 0.927835 0.681769 0.497978
3 1 0.00995895 0.618337 0.503459
69 1 0.0591758 0.71539 0.501643
59 1 0.133052 0.737721 0.497731
12 1 0.259081 0.764843 0.497076
22 1 0.367964 0.677276 0.497371
80 1 0.67117 0.637948 0.499569
8 1 0.739626 0.72767 0.501906
58 1 0.865181 0.733981 0.499097
43 1 0.967404 0.746055 0.503473
44 1 0.0115736 0.884214 0.497403
20 1 0.133489 0.866743 0.499223
21 1 0.38383 0.802547 0.502147
19 1 0.597999 0.727216 0.498843
60 1 0.722281 0.853674 0.499213
49 1 0.820878 0.833437 0.500218
56 1 0.918136 0.834347 0.504864
31 1 0.0451184 0.978187 0.500935
55 1 0.1579 0.993395 0.505669
16 1 0.289276 0.907498 0.498657
28 1 0.723672 0.971565 0.500894
53 1 0.815119 0.92004 0.500755
37 1 0.922325 0.950368 0.502759
ITEM: TIMESTEP
2250
ITEM: NUMBER OF ATOMS
62
ITEM: BOX BOUNDS pp pp pp
-4.8002781694756154e+00 4.8002781694756154e+00
-4.8163942704494591e+00 4.8163942704494591e+00
-1.0000000000000001e-01 1.0000000000000001e-01
ITEM: ATOMS id type xs ys zs
51 1 0.0570162 0.0931606 0.499998
54 1 0.239085 0.016781 0.499976
7 1 0.360927 0.0306241 0.500813
33 1 0.476847 0.0765003 0.500705
40 1 0.839381 0.047953 0.499782
39 1 0.959454 0.0607567 0.503973
65 1 0.00144371 0.137961 0.49965
14 1 0.263346 0.152433 0.49738
52 1 0.397904 0.151666 0.502721
70 1 0.471976 0.189861 0.498895
15 1 0.588862 0.148937 0.494518
26 1 0.706556 0.0904489 0.500515
18 1 0.811569 0.191459 0.497725
4 1 0.953308 0.231543 0.50603
67 1 0.0408842 0.298576 0.501572
72 1 0.104985 0.296849 0.500831
9 1 0.20623 0.304167 0.496361
29 1 0.409756 0.258722 0.505331
41 1 0.528939 0.255762 0.498414
45 1 0.737617 0.294572 0.500268
13 1 0.828192 0.353663 0.502164
24 1 0.0917613 0.378937 0.496558
77 1 0.99719 0.446954 0.501617
79 1 0.170687 0.427946 0.503378
48 1 0.250428 0.396202 0.500303
1 1 0.38616 0.375195 0.499622
38 1 0.63857 0.286227 0.502978
36 1 0.96563 0.368412 0.501199
32 1 0.0832885 0.488019 0.501034
30 1 0.212564 0.509146 0.502557
47 1 0.311136 0.468496 0.497155
5 1 0.889526 0.489129 0.499616
61 1 0.988489 0.5166 0.494071
73 1 0.0978825 0.657196 0.504685
63 1 0.120724 0.575477 0.503388
35 1 0.193463 0.636787 0.502333
11 1 0.425017 0.532991 0.502838
27 1 0.478995 0.650184 0.498116
17 1 0.579076 0.563671 0.503517
62 1 0.92881 0.681161 0.497216
3 1 0.0106783 0.618178 0.504696
69 1 0.0595143 0.715344 0.501699
59 1 0.133455 0.737564 0.497232
12 1 0.259142 0.764574 0.49681
22 1 0.368367 0.677774 0.498145
80 1 0.670982 0.639327 0.500689
8 1 0.740254 0.727646 0.500537
58 1 0.865492 0.733492 0.497919
43 1 0.967816 0.746039 0.50266
44 1 0.012161 0.884154 0.498613
20 1 0.133415 0.866567 0.500884
21 1 0.383826 0.803639 0.502309
19 1 0.597989 0.727826 0.499096
60 1 0.722549 0.854164 0.497775
49 1 0.821011 0.833658 0.498527
56 1 0.918131 0.834648 0.50392
31 1 0.0446619 0.978481 0.503124
55 1 0.156974 0.992451 0.505872
16 1 0.288893 0.908173 0.499331
28 1 0.723138 0.971917 0.500888
53 1 0.814904 0.919957 0.500958
37 1 0.922601 0.950158 0.505751
ITEM: TIMESTEP
2500
ITEM: NUMBER OF ATOMS
62
ITEM: BOX BOUNDS pp pp pp
-4.7990763500842126e+00 4.7990763500842126e+00
-4.8143475134211764e+00 4.8143475134211764e+00
-1.0000000000000001e-01 1.0000000000000001e-01
ITEM: ATOMS id type xs ys zs
51 1 0.0569106 0.0930407 0.499769
54 1 0.238849 0.0174915 0.499234
7 1 0.361262 0.0307577 0.500763
33 1 0.477431 0.0763133 0.501692
40 1 0.83858 0.048271 0.498537
39 1 0.959419 0.06026 0.504451
65 1 0.0011283 0.13792 0.498074
14 1 0.26403 0.151905 0.497703
52 1 0.398694 0.151407 0.501413
70 1 0.4724 0.189312 0.499199
15 1 0.588715 0.148523 0.495039
26 1 0.70596 0.0909803 0.499011
18 1 0.81051 0.19218 0.497131
4 1 0.953154 0.231358 0.50564
67 1 0.0410799 0.297923 0.503994
72 1 0.105194 0.296665 0.499658
9 1 0.205496 0.303855 0.49681
29 1 0.41143 0.259091 0.506499
41 1 0.529412 0.255633 0.499031
45 1 0.737115 0.29466 0.500965
13 1 0.827786 0.354093 0.501492
24 1 0.0919207 0.378647 0.495269
77 1 0.99821 0.4465 0.500575
79 1 0.171029 0.427215 0.501592
48 1 0.25085 0.395788 0.501074
1 1 0.386867 0.376005 0.500229
38 1 0.638443 0.28501 0.505125
36 1 0.96568 0.368436 0.500906
32 1 0.0840758 0.48781 0.503064
30 1 0.212685 0.50889 0.501573
47 1 0.311482 0.468393 0.496287
5 1 0.889991 0.488381 0.500074
61 1 0.988843 0.516361 0.494409
73 1 0.0987519 0.656712 0.504491
63 1 0.121077 0.575364 0.504676
35 1 0.194282 0.636575 0.500861
11 1 0.424966 0.534469 0.502248
27 1 0.478808 0.65167 0.495487
17 1 0.577906 0.565385 0.504809
62 1 0.928613 0.681406 0.497382
3 1 0.0109874 0.618329 0.50425
69 1 0.0597836 0.714536 0.502129
59 1 0.13313 0.737582 0.496736
12 1 0.25934 0.765426 0.496216
22 1 0.368201 0.678924 0.498796
80 1 0.670683 0.639702 0.498803
8 1 0.740559 0.728482 0.49989
58 1 0.86573 0.733756 0.496359
43 1 0.96754 0.746332 0.501763
44 1 0.0102879 0.883346 0.498868
20 1 0.132493 0.865996 0.501406
21 1 0.384201 0.803763 0.502829
19 1 0.597878 0.728524 0.498284
60 1 0.722719 0.855146 0.495593
49 1 0.82056 0.832007 0.497187
56 1 0.917594 0.834089 0.503663
31 1 0.0442138 0.977659 0.502852
55 1 0.156633 0.992426 0.50614
16 1 0.288832 0.908824 0.498605
28 1 0.723902 0.972556 0.501013
53 1 0.814934 0.918344 0.500443
37 1 0.921822 0.950495 0.50587
ITEM: TIMESTEP
2750
ITEM: NUMBER OF ATOMS
62
ITEM: BOX BOUNDS pp pp pp
-4.7978745306928099e+00 4.7978745306928099e+00
-4.8186885157825348e+00 4.8186885157825348e+00
-1.0000000000000001e-01 1.0000000000000001e-01
ITEM: ATOMS id type xs ys zs
51 1 0.056377 0.0924155 0.497568
54 1 0.238429 0.0167624 0.500144
7 1 0.361147 0.0303379 0.499903
33 1 0.477915 0.075173 0.502798
40 1 0.838566 0.0488562 0.500381
39 1 0.959087 0.0608111 0.506144
65 1 0.00155611 0.13818 0.497603
14 1 0.264889 0.153497 0.499122
52 1 0.399217 0.150856 0.501403
70 1 0.472769 0.189528 0.496976
15 1 0.588938 0.14754 0.495458
26 1 0.706148 0.0899021 0.500718
18 1 0.810675 0.192162 0.497214
4 1 0.953695 0.231369 0.505659
67 1 0.0408044 0.298762 0.503927
72 1 0.105109 0.297957 0.498783
9 1 0.205689 0.304439 0.49696
29 1 0.411608 0.25908 0.505933
41 1 0.530247 0.254393 0.497241
45 1 0.737554 0.295487 0.500017
13 1 0.828051 0.354454 0.500556
24 1 0.0910992 0.379621 0.495806
77 1 0.997506 0.446633 0.499554
79 1 0.170247 0.427342 0.502365
48 1 0.250071 0.395997 0.499658
1 1 0.388763 0.376152 0.499474
38 1 0.639412 0.283732 0.503617
36 1 0.964855 0.368257 0.502301
32 1 0.0832348 0.488885 0.501093
30 1 0.211755 0.508957 0.501544
47 1 0.311475 0.467764 0.496589
5 1 0.889479 0.489139 0.499579
61 1 0.988274 0.516512 0.491283
73 1 0.0983553 0.657416 0.503785
63 1 0.120862 0.576439 0.50339
35 1 0.194315 0.637332 0.502688
11 1 0.424059 0.535001 0.502272
27 1 0.4786 0.651437 0.495154
17 1 0.577837 0.564624 0.505547
62 1 0.92832 0.681118 0.496162
3 1 0.0106431 0.618499 0.503095
69 1 0.0597544 0.71538 0.503946
59 1 0.133081 0.737888 0.496478
12 1 0.25957 0.766223 0.496645
22 1 0.368448 0.678453 0.497987
80 1 0.670896 0.638252 0.497783
8 1 0.740137 0.727057 0.500426
58 1 0.865107 0.733256 0.497496
43 1 0.967206 0.745952 0.50045
44 1 0.0104848 0.884062 0.501341
20 1 0.131872 0.866264 0.500859
21 1 0.384317 0.8037 0.502335
19 1 0.597923 0.727596 0.498045
60 1 0.723404 0.853941 0.495351
49 1 0.821444 0.83304 0.49843
56 1 0.919045 0.835278 0.504414
31 1 0.0438047 0.978067 0.503764
55 1 0.155719 0.992988 0.50784
16 1 0.288645 0.908371 0.501081
28 1 0.722551 0.971463 0.50092
53 1 0.814404 0.919342 0.501255
37 1 0.921365 0.950902 0.504261
ITEM: TIMESTEP
3000
ITEM: NUMBER OF ATOMS
62
ITEM: BOX BOUNDS pp pp pp
-4.7966727113014072e+00 4.7966727113014072e+00
-4.8189402454543941e+00 4.8189402454543941e+00
-1.0000000000000001e-01 1.0000000000000001e-01
ITEM: ATOMS id type xs ys zs
51 1 0.0559912 0.0923681 0.497234
54 1 0.2383 0.0168542 0.499431
7 1 0.360874 0.029891 0.49837
33 1 0.477654 0.0739806 0.503557
40 1 0.838841 0.0495985 0.502639
39 1 0.958866 0.0603195 0.50448
65 1 0.000626261 0.138077 0.497939
14 1 0.265505 0.153782 0.497514
52 1 0.399901 0.149989 0.503569
70 1 0.472522 0.189291 0.495603
15 1 0.58874 0.147124 0.495688
26 1 0.707123 0.0902603 0.503683
18 1 0.811201 0.192385 0.497554
4 1 0.953352 0.231975 0.505014
67 1 0.0405259 0.298842 0.503086
72 1 0.104352 0.297597 0.49885
9 1 0.204935 0.303957 0.495651
29 1 0.41138 0.258371 0.505855
41 1 0.530291 0.254463 0.49597
45 1 0.737605 0.295271 0.500983
13 1 0.827468 0.355356 0.501043
24 1 0.091236 0.379353 0.49539
77 1 0.997147 0.447545 0.498742
79 1 0.169779 0.427921 0.502894
48 1 0.249776 0.395625 0.50131
1 1 0.387399 0.375126 0.49784
38 1 0.639274 0.283873 0.503105
36 1 0.965432 0.368788 0.504436
32 1 0.0831029 0.488472 0.501767
30 1 0.211981 0.508913 0.498755
47 1 0.311689 0.467807 0.495905
5 1 0.889273 0.48927 0.497864
61 1 0.988031 0.517181 0.492156
73 1 0.0985373 0.656703 0.504692
63 1 0.120771 0.574825 0.504867
35 1 0.19376 0.636543 0.502159
11 1 0.424221 0.53453 0.500887
27 1 0.477983 0.651445 0.496448
17 1 0.57754 0.564469 0.505934
62 1 0.928931 0.680796 0.495169
3 1 0.0108881 0.618316 0.502514
69 1 0.0596936 0.714833 0.504867
59 1 0.133275 0.737397 0.497209
12 1 0.258567 0.765092 0.495907
22 1 0.36706 0.677006 0.498575
80 1 0.670048 0.638012 0.497555
8 1 0.740088 0.726598 0.50037
58 1 0.865183 0.731628 0.496945
43 1 0.967282 0.745824 0.50223
44 1 0.00992652 0.88347 0.500839
20 1 0.131822 0.865294 0.500814
21 1 0.383516 0.803388 0.502276
19 1 0.597788 0.726875 0.49784
60 1 0.723663 0.853732 0.495345
49 1 0.821159 0.831571 0.49816
56 1 0.918696 0.834762 0.505185
31 1 0.0436785 0.977489 0.503612
55 1 0.155859 0.992086 0.507048
16 1 0.288026 0.908242 0.501538
28 1 0.722521 0.971799 0.502482
53 1 0.814071 0.917847 0.500048
37 1 0.92074 0.950304 0.503435
ITEM: TIMESTEP
3250
ITEM: NUMBER OF ATOMS
62
ITEM: BOX BOUNDS pp pp pp
-4.7954708919100044e+00 4.7954708919100044e+00
-4.8160605533933207e+00 4.8160605533933207e+00
-1.0000000000000001e-01 1.0000000000000001e-01
ITEM: ATOMS id type xs ys zs
51 1 0.0563124 0.0929435 0.496093
54 1 0.238752 0.0163257 0.499033
7 1 0.361744 0.0303952 0.49862
33 1 0.477591 0.0756932 0.503196
40 1 0.83797 0.0491155 0.502262
39 1 0.95868 0.0609366 0.50382
65 1 0.000828869 0.138406 0.498348
14 1 0.263736 0.151809 0.498554
52 1 0.398917 0.150805 0.50241
70 1 0.472893 0.189176 0.495472
15 1 0.589422 0.148327 0.497739
26 1 0.706462 0.0894358 0.502797
18 1 0.809709 0.191837 0.497526
4 1 0.951617 0.23113 0.506633
67 1 0.0395907 0.298018 0.505132
72 1 0.103906 0.296108 0.498967
9 1 0.204474 0.303568 0.494367
29 1 0.410719 0.258132 0.508085
41 1 0.529569 0.254817 0.495356
45 1 0.737234 0.295319 0.501468
13 1 0.827185 0.354158 0.499566
24 1 0.0901189 0.378682 0.496678
77 1 0.996799 0.44661 0.500516
79 1 0.170115 0.426959 0.503224
48 1 0.249717 0.395943 0.500642
1 1 0.38553 0.374624 0.496392
38 1 0.638492 0.286464 0.503376
36 1 0.964402 0.368317 0.502842
32 1 0.082865 0.487801 0.502326
30 1 0.211058 0.508619 0.496583
47 1 0.310426 0.467467 0.495489
5 1 0.888533 0.488825 0.496491
61 1 0.987877 0.516397 0.492681
73 1 0.0979378 0.656767 0.5041
63 1 0.120616 0.574906 0.504877
35 1 0.19369 0.636492 0.50056
11 1 0.424633 0.533085 0.501269
27 1 0.478491 0.650849 0.495581
17 1 0.578189 0.563721 0.505436
62 1 0.927425 0.680957 0.494343
3 1 0.0101602 0.618567 0.502021
69 1 0.0594166 0.714457 0.505477
59 1 0.133126 0.737084 0.497803
12 1 0.258816 0.764708 0.4976
22 1 0.367536 0.677824 0.497842
80 1 0.670423 0.637526 0.496978
8 1 0.739932 0.726529 0.498575
58 1 0.865004 0.734022 0.497375
43 1 0.967067 0.745688 0.502253
44 1 0.00985763 0.884321 0.501069
20 1 0.131969 0.865477 0.499964
21 1 0.383886 0.803383 0.502965
19 1 0.597983 0.726473 0.498019
60 1 0.722396 0.853333 0.496338
49 1 0.820775 0.831776 0.49796
56 1 0.918048 0.834664 0.506503
31 1 0.0437262 0.978026 0.501298
55 1 0.156303 0.991587 0.509061
16 1 0.288214 0.908125 0.498935
28 1 0.722691 0.970898 0.502121
53 1 0.814073 0.917835 0.500921
37 1 0.920984 0.950736 0.501699
ITEM: TIMESTEP
3500
ITEM: NUMBER OF ATOMS
62
ITEM: BOX BOUNDS pp pp pp
-4.7942690725186017e+00 4.7942690725186017e+00
-4.8088216216084225e+00 4.8088216216084225e+00
-1.0000000000000001e-01 1.0000000000000001e-01
ITEM: ATOMS id type xs ys zs
51 1 0.0557725 0.0929499 0.49716
54 1 0.238803 0.0184124 0.499507
7 1 0.361429 0.030343 0.496735
33 1 0.477085 0.0764841 0.503864
40 1 0.83772 0.0487104 0.502415
39 1 0.958202 0.0609988 0.503677
65 1 0.000929471 0.138597 0.498821
14 1 0.262858 0.150722 0.502217
52 1 0.397013 0.151046 0.50073
70 1 0.47093 0.1891 0.495885
15 1 0.588478 0.149566 0.497253
26 1 0.705033 0.0901543 0.502251
18 1 0.808905 0.192072 0.497609
4 1 0.951008 0.231338 0.50615
67 1 0.0393282 0.297465 0.50654
72 1 0.103743 0.295583 0.49973
9 1 0.204926 0.302357 0.494464
29 1 0.409672 0.258512 0.507655
41 1 0.52816 0.254975 0.496561
45 1 0.735395 0.295842 0.50081
13 1 0.826147 0.354387 0.501386
24 1 0.090452 0.377797 0.497763
77 1 0.996646 0.446417 0.50004
79 1 0.169042 0.427581 0.501956
48 1 0.24865 0.395363 0.498712
1 1 0.38477 0.374507 0.497173
38 1 0.637284 0.287273 0.501234
36 1 0.963916 0.367938 0.501219
32 1 0.082772 0.487078 0.503398
30 1 0.211037 0.509159 0.49518
47 1 0.310328 0.46811 0.495771
5 1 0.888954 0.489101 0.496388
61 1 0.988008 0.51636 0.495026
73 1 0.0973819 0.657128 0.502691
63 1 0.120616 0.574743 0.504046
35 1 0.193452 0.63658 0.501078
11 1 0.424894 0.533028 0.501119
27 1 0.47835 0.649629 0.495473
17 1 0.578657 0.562607 0.505627
62 1 0.928422 0.681545 0.494785
3 1 0.0103801 0.618365 0.504112
69 1 0.0589897 0.715276 0.504954
59 1 0.132514 0.737631 0.49568
12 1 0.258187 0.765086 0.498233
22 1 0.368119 0.678519 0.496819
80 1 0.670716 0.638336 0.497358
8 1 0.740396 0.727232 0.49777
58 1 0.865221 0.733665 0.498955
43 1 0.967404 0.746476 0.503425
44 1 0.00994772 0.883696 0.502877
20 1 0.131578 0.86613 0.49929
21 1 0.382455 0.80442 0.501072
19 1 0.597625 0.726778 0.498362
60 1 0.72237 0.854147 0.496002
49 1 0.819778 0.830861 0.498967
56 1 0.916717 0.833842 0.506884
31 1 0.0436805 0.978224 0.502413
55 1 0.156596 0.992377 0.50934
16 1 0.28693 0.908863 0.500828
28 1 0.723314 0.972204 0.502995
53 1 0.814094 0.917753 0.502195
37 1 0.920866 0.950532 0.503552
ITEM: TIMESTEP
3750
ITEM: NUMBER OF ATOMS
62
ITEM: BOX BOUNDS pp pp pp
-4.7930672531271989e+00 4.7930672531271989e+00
-4.8157686209345112e+00 4.8157686209345112e+00
-1.0000000000000001e-01 1.0000000000000001e-01
ITEM: ATOMS id type xs ys zs
51 1 0.055476 0.0930966 0.496896
54 1 0.238409 0.0173942 0.499834
7 1 0.361296 0.0298625 0.495086
33 1 0.476796 0.0761544 0.503582
40 1 0.837353 0.049651 0.502952
39 1 0.958589 0.0608375 0.5021
65 1 9.94978e-05 0.138713 0.499142
14 1 0.26249 0.150006 0.502922
52 1 0.397531 0.151115 0.498764
70 1 0.4714 0.188505 0.49675
15 1 0.588337 0.149397 0.496742
26 1 0.704891 0.0894763 0.502556
18 1 0.807879 0.19255 0.49799
4 1 0.951238 0.231361 0.506123
67 1 0.0393972 0.297765 0.50546
72 1 0.10362 0.296157 0.500017
9 1 0.204875 0.302583 0.496537
29 1 0.409893 0.258056 0.507114
41 1 0.528067 0.254751 0.495702
45 1 0.735228 0.296097 0.501221
13 1 0.825998 0.354915 0.501195
24 1 0.0902806 0.378185 0.497707
77 1 0.996996 0.446243 0.501074
79 1 0.168392 0.428346 0.502219
48 1 0.248155 0.395791 0.49881
1 1 0.386263 0.374645 0.496461
38 1 0.636149 0.287398 0.502465
36 1 0.964262 0.368461 0.50192
32 1 0.0830631 0.48717 0.503187
30 1 0.211813 0.508606 0.494489
47 1 0.310834 0.467179 0.495401
5 1 0.889112 0.489196 0.496329
61 1 0.988146 0.516072 0.495644
73 1 0.0977021 0.656393 0.502343
63 1 0.120446 0.575027 0.504145
35 1 0.193255 0.636574 0.500411
11 1 0.424983 0.533044 0.500531
27 1 0.478251 0.649577 0.495606
17 1 0.578788 0.563151 0.504566
62 1 0.928282 0.681608 0.494402
3 1 0.0101564 0.618036 0.5036
69 1 0.0588799 0.714546 0.503592
59 1 0.132586 0.73728 0.496493
12 1 0.25869 0.765486 0.498264
22 1 0.368438 0.678626 0.498172
80 1 0.671066 0.637889 0.496443
8 1 0.739488 0.727029 0.499371
58 1 0.864804 0.73343 0.497117
43 1 0.966728 0.746364 0.50447
44 1 0.00983676 0.884716 0.503301
20 1 0.131493 0.865277 0.499525
21 1 0.382982 0.80441 0.502201
19 1 0.597154 0.727176 0.497014
60 1 0.722513 0.854061 0.495766
49 1 0.819844 0.831368 0.499618
56 1 0.917436 0.834412 0.508097
31 1 0.0437701 0.977848 0.501979
55 1 0.1562 0.991869 0.509092
16 1 0.287145 0.90829 0.501346
28 1 0.724369 0.971633 0.501283
53 1 0.814811 0.91756 0.502695
37 1 0.920834 0.95093 0.500741
ITEM: TIMESTEP
4000
ITEM: NUMBER OF ATOMS
62
ITEM: BOX BOUNDS pp pp pp
-4.7918654337357962e+00 4.7918654337357962e+00
-4.8167044972129895e+00 4.8167044972129895e+00
-1.0000000000000001e-01 1.0000000000000001e-01
ITEM: ATOMS id type xs ys zs
51 1 0.0557771 0.0933868 0.497022
54 1 0.238112 0.0175187 0.500568
7 1 0.361267 0.0296582 0.494002
33 1 0.477153 0.0752004 0.502852
40 1 0.837918 0.0501027 0.501376
39 1 0.958164 0.0609564 0.501726
65 1 0.000488747 0.138461 0.500193
14 1 0.26239 0.150027 0.502862
52 1 0.397399 0.149848 0.49882
70 1 0.471036 0.188725 0.495468
15 1 0.588348 0.147842 0.497661
26 1 0.706637 0.0897155 0.502345
18 1 0.809321 0.192993 0.497377
4 1 0.951757 0.231769 0.506837
67 1 0.0393492 0.29847 0.503675
72 1 0.103432 0.296888 0.500785
9 1 0.204454 0.302309 0.495603
29 1 0.40906 0.257452 0.506496
41 1 0.528112 0.254302 0.495303
45 1 0.736252 0.295348 0.502603
13 1 0.825395 0.356056 0.500913
24 1 0.090111 0.378538 0.496246
77 1 0.997199 0.446503 0.500806
79 1 0.169486 0.427188 0.501812
48 1 0.248946 0.395325 0.498139
1 1 0.387197 0.374196 0.49478
38 1 0.63744 0.285188 0.503054
36 1 0.963716 0.368348 0.501475
32 1 0.0830144 0.48762 0.503894
30 1 0.21165 0.508344 0.491866
47 1 0.311448 0.466833 0.49393
5 1 0.888929 0.489568 0.496251
61 1 0.98838 0.51641 0.496879
73 1 0.0976654 0.656787 0.502299
63 1 0.120119 0.575634 0.503022
35 1 0.19353 0.636805 0.502477
11 1 0.425632 0.53171 0.501144
27 1 0.479119 0.649033 0.494507
17 1 0.5795 0.562466 0.505407
62 1 0.929292 0.681463 0.492799
3 1 0.010714 0.617949 0.50426
69 1 0.0586759 0.714546 0.505737
59 1 0.132144 0.73744 0.496927
12 1 0.258082 0.765207 0.497574
22 1 0.368711 0.679011 0.498974
80 1 0.67181 0.637667 0.496279
8 1 0.740782 0.727267 0.496681
58 1 0.865951 0.733237 0.498393
43 1 0.968405 0.746082 0.5021
44 1 0.00917485 0.884408 0.505761
20 1 0.130789 0.866013 0.497704
21 1 0.383993 0.804343 0.504798
19 1 0.597847 0.726115 0.498412
60 1 0.721701 0.853358 0.49479
49 1 0.820231 0.831881 0.500916
56 1 0.917894 0.833927 0.506941
31 1 0.0430483 0.978244 0.504697
55 1 0.155982 0.992266 0.508937
16 1 0.287678 0.908698 0.501476
28 1 0.721656 0.971331 0.501727
53 1 0.813446 0.918149 0.504432
37 1 0.919764 0.950909 0.500735
ITEM: TIMESTEP
4250
ITEM: NUMBER OF ATOMS
62
ITEM: BOX BOUNDS pp pp pp
-4.7906636143443935e+00 4.7906636143443935e+00
-4.8131575013600330e+00 4.8131575013600330e+00
-1.0000000000000001e-01 1.0000000000000001e-01
ITEM: ATOMS id type xs ys zs
51 1 0.0565138 0.0932772 0.499466
54 1 0.238486 0.0185269 0.501228
7 1 0.361606 0.0295192 0.492286
33 1 0.477607 0.0760941 0.501933
40 1 0.838754 0.0499524 0.501492
39 1 0.959351 0.0608183 0.501939
65 1 0.000729369 0.138553 0.499517
14 1 0.261806 0.14981 0.502315
52 1 0.397619 0.150285 0.497393
70 1 0.471137 0.18895 0.496917
15 1 0.589973 0.148819 0.49723
26 1 0.706941 0.0894305 0.50143
18 1 0.808803 0.192997 0.497096
4 1 0.951123 0.231346 0.507505
67 1 0.0393198 0.297426 0.504045
72 1 0.103607 0.296081 0.500743
9 1 0.204583 0.302563 0.495529
29 1 0.409163 0.257508 0.505706
41 1 0.528205 0.254159 0.495262
45 1 0.736287 0.296734 0.502318
13 1 0.826955 0.35518 0.501516
24 1 0.0899907 0.378384 0.495953
77 1 0.996509 0.446383 0.500734
79 1 0.169122 0.427383 0.500773
48 1 0.248956 0.395178 0.498052
1 1 0.38706 0.37395 0.497636
38 1 0.637217 0.287247 0.503654
36 1 0.9641 0.368232 0.502397
32 1 0.0830709 0.487059 0.502633
30 1 0.211718 0.508139 0.491499