LAMMPS (23 Jun 2022 - Update 4)
  using 1 OpenMP thread(s) per MPI task
# Compute elastic constant tensor for a crystal
#
# Written by Aidan Thompson (Sandia, athomps@sandia.gov)
#
#  This script uses the following three include files.
#
#   init.mod      (must be modified for different crystal structures)
# 	       	  Define units, deformation parameters and initial
#		  configuration of the atoms and simulation cell.
#
#
#   potential.mod    (must be modified for different pair styles)
# 		     Define pair style and other attributes
#		     not stored in restart file
#
#
#   displace.mod    (displace.mod should not need to be modified)
# 		    Perform positive and negative box displacements
# 		    in direction ${dir} and size ${up}.
# 		    It uses the resultant changes
#		    in stress to compute one
# 		    row of the elastic stiffness tensor
#
#		    Inputs variables:
#		    	   dir = the Voigt deformation component
#		    		    (1,2,3,4,5,6)
#		    Global constants:
#       	    	   up = the deformation magnitude (strain units)
#       		   cfac = conversion from LAMMPS pressure units to
#               	   output units for elastic constants
#
#
#  To run this on a different system, it should only be necessary to
#  modify the files init.mod and potential.mod. In order to calculate
#  the elastic constants correctly, care must be taken to specify
#  the correct units in init.mod (units, cfac and cunits). It is also
#  important to verify that the minimization of energy w.r.t atom
#  positions in the deformed cell is fully converged.
#  One indication of this is that the elastic constants are insensitive
#  to the choice of the variable ${up} in init.mod. Another is to check
#  the final max and two-norm forces reported in the log file. If you know
#  that minimization is not required, you can set maxiter = 0.0 in
#  init.mod.
#



variable dt equal 0.01
variable strain equal 0.05
variable srate equal 1e-4
variable M equal 1000 # averaging time for properties
variable strainsteps equal ${strain}/${dt}/${srate}
variable strainsteps equal 0.05/${dt}/${srate}
variable strainsteps equal 0.05/0.01/${srate}
variable strainsteps equal 0.05/0.01/0.0001


dimension 2
include init.mod
# NOTE: This script can be modified for different atomic structures,
# units, etc. See in.elastic for more info.
#

# Define the finite deformation size. Try several values of this
# variable to verify that results do not depend on it.
variable up equal 1.0e-1

# Define the amount of random jiggle for atoms
# This prevents atoms from staying on saddle points
variable atomjiggle equal 1.0e-6

# Uncomment one of these blocks, depending on what units
# you are using in LAMMPS and for output

# metal units, elastic constants in eV/A^3
#units		metal
#variable cfac equal 6.2414e-7
#variable cunits string eV/A^3

# Choose potential
# metal units, elastic constants in GPa
units		metal
atom_style	full
#pair_style      lj/cut 1.0
#pair_style      yukawa 1.0 2.0
#pair_modify     mix arithmetic
bond_style      harmonic
angle_style     harmonic
dihedral_style  zero
special_bonds   amber
variable cfac equal 1.0e-4
variable cunits string GPa
boundary	p p p

# Need to set mass to something, just to satisfy LAMMPS
#mass 1 1.0e-20
read_data network.lmp
Reading data file ...
  orthogonal box = (-4.807274 -4.807274 -0.1) to (4.807274 4.807274 0.1)
  1 by 1 by 1 MPI processor grid
WARNING: Atom style in data file differs from currently defined atom style (src/read_data.cpp:538)
  reading atoms ...
  62 atoms
WARNING: Bond style in data file differs from currently defined bond style (src/read_data.cpp:630)
  scanning bonds ...
  5 = max bonds/atom
  reading bonds ...
  144 bonds
Finding 1-2 1-3 1-4 neighbors ...
  special bond factors lj:    0        0        0.5     
  special bond factors coul:  0        0        0.8333333333333334
    10 = max # of 1-2 neighbors
    53 = max # of 1-3 neighbors
   345 = max # of 1-4 neighbors
    31 = max # of special neighbors
  special bonds CPU = 0.000 seconds
  read_data CPU = 0.003 seconds

# real units, elastic constants in GPa
#units		real
#variable cfac equal 1.01325e-4
#variable cunits string GPa

# Define minimization parameters
variable etol equal 0.0
variable ftol equal 5.0e-10
variable maxiter equal 100000
variable maxeval equal 20000
variable dmax equal 1.0e-2


include potential.mod
# NOTE: This script can be modified for different pair styles
# See in.elastic for more info.

# Setup neighbor style
neighbor 3.0 nsq
neigh_modify once no every 1 delay 0 check yes
comm_modify cutoff 2.0

# Setup minimization style
min_style	     cg
min_modify	     dmax ${dmax} line quadratic
min_modify	     dmax 0.01 line quadratic

timestep	0.001


# Setup output
thermo		500
thermo_style custom step temp pe ebond eangle edihed press pxx pyy pzz pxy pxz pyz lx ly lz vol
thermo_modify norm no


#change_box all triclinic
comm_modify mode single cutoff 10.0 vel yes
atom_modify sort 0 0



# Compute initial state

#dump rela all atom 1 traj_relax.lmpstrj
fix 3 all box/relax x 0 y 0 # xy 0  #MS comment: relax if the network is periodic
minimize ${etol} ${ftol} ${maxiter} ${maxeval}
minimize 0 ${ftol} ${maxiter} ${maxeval}
minimize 0 5e-10 ${maxiter} ${maxeval}
minimize 0 5e-10 100000 ${maxeval}
minimize 0 5e-10 100000 20000
Neighbor list info ...
  update every 1 steps, delay 0 steps, check yes
  max neighbors/atom: 2000, page size: 100000
  master list distance cutoff = 0
  ghost atom cutoff = 10
  0 neighbor lists, perpetual/occasional/extra = 0 0 0
WARNING: Inconsistent image flags (src/domain.cpp:819)
Per MPI rank memory allocation (min/avg/max) = 8.907 | 8.907 | 8.907 Mbytes
   Step          Temp          PotEng         E_bond        E_angle        E_dihed         Press           Pxx            Pyy            Pzz            Pxy            Pxz            Pyz             Lx             Ly             Lz           Volume    
         0   0              3.7587777e-11  3.7587777e-11  0              0              0.37697279     0.51846802     0.23547757     0             -0.040111343    0              0              9.614548       9.614548       0.2            92.439533    
       500   0              1.7120653e-13  1.7120653e-13  0              0              7.3979245e-07  2.8900227e-05 -2.7420642e-05  0              8.425743e-05   0              0              9.614555       9.6145451      0.2            92.439572    
       794   0              1.7108133e-13  1.7108133e-13  0              0             -8.6272572e-07 -1.0520111e-06 -6.734403e-07   0              1.1500177e-05  0              0              9.6145551      9.614545       0.2            92.439573    
Loop time of 0.0438573 on 1 procs for 794 steps with 62 atoms

100.0% CPU use with 1 MPI tasks x 1 OpenMP threads

Minimization stats:
  Stopping criterion = force tolerance
  Energy initial, next-to-last, final = 
    3.75877774810016e-11 1.71081344350044e-13 1.71081327542278e-13
  Force two-norm initial, final = 3.9416861e-05 4.6442313e-10
  Force max component initial, final = 2.9913647e-05 1.3505417e-10
  Final line search alpha, max atom move = 1 1.3505417e-10
  Iterations, force evaluations = 794 1588

MPI task timing breakdown:
Section |  min time  |  avg time  |  max time  |%varavg| %total
---------------------------------------------------------------
Pair    | 0          | 0          | 0          |   0.0 |  0.00
Bond    | 0.0063595  | 0.0063595  | 0.0063595  |   0.0 | 14.50
Neigh   | 0          | 0          | 0          |   0.0 |  0.00
Comm    | 0.013709   | 0.013709   | 0.013709   |   0.0 | 31.26
Output  | 1.1878e-05 | 1.1878e-05 | 1.1878e-05 |   0.0 |  0.03
Modify  | 0          | 0          | 0          |   0.0 |  0.00
Other   |            | 0.02378    |            |       | 54.21

Nlocal:             62 ave          62 max          62 min
Histogram: 1 0 0 0 0 0 0 0 0 0
Nghost:            538 ave         538 max         538 min
Histogram: 1 0 0 0 0 0 0 0 0 0
Neighs:              0 ave           0 max           0 min
Histogram: 1 0 0 0 0 0 0 0 0 0

Total # of neighbors = 0
Ave neighs/atom = 0
Ave special neighs/atom = 22.645161
Neighbor list builds = 0
Dangerous builds = 0
#dump rela all atom 1 traj_relax.lmpstrj
thermo 100
unfix 3

fix 2d all enforce2d



#dump dump0 all xyz 1000000 cfg0.xyz
#dump_modify dump0 format line "%d %20.10g %20.10g %20.10g"
#minimize ${etol} ${ftol} ${maxiter} ${maxeval}

#undump rela

#write_restart restart.equil

# These formulas define the derivatives w.r.t. strain components
# Constants uses $, variables use v_


timestep        ${dt}
timestep        0.01
variable nsteps equal round(${strainsteps})
variable nsteps equal round(50000)

fix             4 all nve
fix             5 all langevin 0.1 0.1 1 904297
#fix		6 all press/berendsen y  0.0 0.0 1 x 0.0 0.0 10
fix             6 all nph y 0.0 0.0 10 ptemp 0.1 # x 0.0 0.0 10

# For PLUMED2
# fix 22 all plumed plumedfile plumed.dat outfile plumed.out

#fix             6 all nph x 0.0 0.0 10
fix     	9 all deform 1 x erate -${srate} units box remap x
fix     	9 all deform 1 x erate -0.0001 units box remap x

#fix     8 all deform 1 xy erate ${srate} units box remap x



#fix    10 all ave/time

dump 1 all atom 250 deform_dump.lammpstrj


#To avoid flying ice cube phenomenon:
#fix 21 all momentum 100 linear 1 1 1 angular


run  ${nsteps}
run  50000
WARNING: One or more atoms are time integrated more than once (src/modify.cpp:292)
WARNING: Inconsistent image flags (src/domain.cpp:819)
Per MPI rank memory allocation (min/avg/max) = 7.782 | 7.782 | 7.782 Mbytes
   Step          Temp          PotEng         E_bond        E_angle        E_dihed         Press           Pxx            Pyy            Pzz            Pxy            Pxz            Pyz             Lx             Ly             Lz           Volume    
       794   0              1.7108133e-13  1.7108133e-13  0              0             -8.6272572e-07 -1.0520111e-06 -6.734403e-07   0              1.1500177e-05  0              0              9.6145551      9.614545       0.2            92.439573    
       800   0.035690628    3.2545147e-06  3.2545147e-06  0              0              8.9724457      3.3116798      14.479031      0              25.714844      0              0              9.6144974      9.6146141      0.2            92.439683    
       900   0.17865833     0.00080165385  0.00080165385  0              0              514.0242       1125.9884     -98.102817      0             -471.365        0              0              9.613536       9.613515       0.2            92.419873    
      1000   0.19164347     0.00082416716  0.00082416716  0              0              298.83934      666.42655     -68.914643      0             -392.10676      0              0              9.6125745      9.6170925      0.2            92.445019    
      1100   0.18845181     0.00091880826  0.00091880826  0              0             -345.09902     -752.22864      61.854538      0             -300.91627      0              0              9.6116131      9.6194618      0.2            92.458545    
      1200   0.18761382     0.0011643169   0.0011643169   0              0              150.1697       221.99432      78.174125      0              433.51253      0              0              9.6106516      9.6164799      0.2            92.420638    
      1300   0.22030712     0.00086073007  0.00086073007  0              0             -358.22728     -614.01317     -102.62623      0             -182.60337      0              0              9.6096902      9.6214977      0.2            92.459611    
      1400   0.19277166     0.0010792483   0.0010792483   0              0             -111.94943     -143.33408     -80.73517       0             -255.56162      0              0              9.6087287      9.6170857      0.2            92.407967    
      1500   0.21208622     0.001001471    0.001001471    0              0              352.99565      532.16736      173.67627      0             -111.93035      0              0              9.6077673      9.6161061      0.2            92.389309    
      1600   0.22067338     0.0009803346   0.0009803346   0              0              543.52067      982.73131      104.14167      0             -280.11844      0              0              9.6068058      9.6126446      0.2            92.34681     
      1700   0.2109591      0.0010703203   0.0010703203   0              0              513.13267      1189.2627     -163.15448      0              2.2145165      0              0              9.6058443      9.6242888      0.2            92.44942     
      1800   0.22491163     0.0011324905   0.0011324905   0              0             -197.38466     -386.76625     -8.1989753      0             -814.57872      0              0              9.6048829      9.6273712      0.2            92.469773    
      1900   0.20208006     0.0010825861   0.0010825861   0              0             -210.57291     -408.75879     -12.588204      0             -417.90106      0              0              9.6039214      9.6298555      0.2            92.484376    
      2000   0.20892423     0.00093849133  0.00093849133  0              0             -147.00766     -242.98948     -51.186308      0             -666.37005      0              0              9.60296        9.6255018      0.2            92.433309    
      2100   0.18519886     0.0008845253   0.0008845253   0              0              483.46431      951.46751      15.25987       0             -34.192497      0              0              9.6019985      9.6291744      0.2            92.459318    
      2200   0.1908433      0.00096819015  0.00096819015  0              0             -250.68166     -551.1708       49.654548      0             -395.88378      0              0              9.6010371      9.6326269      0.2            92.483207    
      2300   0.20865583     0.0010423573   0.0010423573   0              0             -261.83936     -298.34469     -225.5318       0             -27.887585      0              0              9.6000756      9.6345414      0.2            92.492326    
      2400   0.22125864     0.0011014876   0.0011014876   0              0              266.84234      625.03205     -91.531273      0             -865.78257      0              0              9.5991142      9.6290221      0.2            92.430083    
      2500   0.20889508     0.0010157918   0.0010157918   0              0              161.80042      286.36589      37.058933      0             -328.82083      0              0              9.5981527      9.628695       0.2            92.417685    
      2600   0.2079096      0.0012922868   0.0012922868   0              0              735.61522      1434.158       36.872995      0              316.99225      0              0              9.5971912      9.6299462      0.2            92.420435    
      2700   0.26328369     0.00099947132  0.00099947132  0              0              582.92964      1209.2075     -43.531495      0              6.1212348      0              0              9.5962298      9.6388488      0.2            92.496608    
      2800   0.22246904     0.0010500669   0.0010500669   0              0              401.21681      895.1938      -92.893362      0              775.35605      0              0              9.5952683      9.6371036      0.2            92.470595    
      2900   0.19496356     0.0011246505   0.0011246505   0              0              209.85349      476.47217     -56.983899      0              194.27585      0              0              9.5943069      9.6403696      0.2            92.492664    
      3000   0.17976552     0.0014028857   0.0014028857   0              0              953.20648      1702.5816      203.63128      0              552.96259      0              0              9.5933454      9.6378805      0.2            92.459517    
      3100   0.24750983     0.0012653351   0.0012653351   0              0              763.67027      1252.0241      275.15267      0              720.87163      0              0              9.592384       9.6364125      0.2            92.436169    
      3200   0.1915355      0.0011679244   0.0011679244   0              0              489.4495       1029.9877     -51.259983      0              283.86799      0              0              9.5914225      9.6359518      0.2            92.422485    
      3300   0.20521844     0.0010960469   0.0010960469   0              0              168.09123      516.05455     -180.0367       0              288.10856      0              0              9.5904611      9.6320626      0.2            92.375921    
      3400   0.20175762     0.0010517992   0.0010517992   0              0              316.41324      511.56596      121.07044      0              75.08847       0              0              9.5894996      9.624123       0.2            92.290524    
      3500   0.1987916      0.0010508933   0.0010508933   0              0              409.12398      687.12041      130.93002      0             -321.2857       0              0              9.5885381      9.6176432      0.2            92.219139    
      3600   0.20079158     0.001150654    0.001150654    0              0              642.65231      1319.4334     -34.344915      0              274.61244      0              0              9.5875767      9.6239498      0.2            92.270357    
      3700   0.23830522     0.0012578979   0.0012578979   0              0              320.50811      713.73126     -72.913366      0             -188.35573      0              0              9.5866152      9.6303255      0.2            92.322225    
      3800   0.16692934     0.0010876143   0.0010876143   0              0             -57.73676      -113.56277     -2.0905318      0              749.03851      0              0              9.5856538      9.6332356      0.2            92.340862    
      3900   0.25532986     0.00095763058  0.00095763058  0              0              163.80367      244.63464      82.800506      0              13.721629      0              0              9.5846923      9.6395565      0.2            92.392183    
      4000   0.1671416      0.0011827378   0.0011827378   0              0             -216.39165     -488.77664      55.832185      0              306.07773      0              0              9.5837309      9.633409       0.2            92.323999    
      4100   0.18173022     0.0009432777   0.0009432777   0              0              143.52672      259.74961      27.136106      0              386.80611      0              0              9.5827694      9.6322294      0.2            92.303434    
      4200   0.24428124     0.0011570508   0.0011570508   0              0              204.72898      505.00548     -95.686607      0             -15.492503      0              0              9.581808       9.6348084      0.2            92.318884    
      4300   0.18922752     0.001088179    0.001088179    0              0              171.25749      306.56242      35.813276      0              415.54361      0              0              9.5808465      9.6196705      0.2            92.164586    
      4400   0.19857354     0.0011166325   0.0011166325   0              0              256.4668       500.42608      12.333749      0              130.22154      0              0              9.579885       9.6193306      0.2            92.152082    
      4500   0.25856941     0.00099526628  0.00099526628  0              0              577.1029       1084.9649      69.058136      0             -236.83604      0              0              9.5789236      9.6299688      0.2            92.244735    
      4600   0.23540183     0.0012378454   0.0012378454   0              0              190.97777      333.71993      48.070043      0              616.08651      0              0              9.5779621      9.6278551      0.2            92.215232    
      4700   0.24451795     0.0010462562   0.0010462562   0              0              684.05196      1412.1692     -44.239961      0              638.9995       0              0              9.5770007      9.6330685      0.2            92.255903    
      4800   0.17999521     0.001386044    0.001386044    0              0              770.06336      1616.7902     -76.827654      0              626.48545      0              0              9.5760392      9.6321015      0.2            92.237382    
      4900   0.21600099     0.00099795012  0.00099795012  0              0              626.02865      1167.2746      84.621755      0              320.39262      0              0              9.5750778      9.6345637      0.2            92.251697    
      5000   0.22410452     0.0012415967   0.0012415967   0              0              615.35927      1098.8966      131.64731      0              1053.3228      0              0              9.5741163      9.6308967      0.2            92.207325    
      5100   0.15886528     0.001121063    0.001121063    0              0              967.0458       2044.4857     -110.5819       0              608.38527      0              0              9.5731549      9.6322014      0.2            92.210556    
      5200   0.16809976     0.0010871403   0.0010871403   0              0              346.33748      972.57598     -280.08836      0              690.82611      0              0              9.5721934      9.6421204      0.2            92.296241    
      5300   0.24583337     0.0011882282   0.0011882282   0              0              563.01701      1038.2758      87.562456      0              783.27358      0              0              9.5712319      9.6343912      0.2            92.212993    
      5400   0.20723551     0.00092803296  0.00092803296  0              0              664.35179      898.68258      429.90693      0              641.04706      0              0              9.5702705      9.6372025      0.2            92.230635    
      5500   0.18641952     0.0011360486   0.0011360486   0              0              494.30985      1127.3704     -138.93652      0              965.45568      0              0              9.569309       9.6346259      0.2            92.196713    
      5600   0.1651942      0.0011416756   0.0011416756   0              0             -192.49653      300.13323     -685.29128      0              672.61771      0              0              9.5683476      9.6373431      0.2            92.213449    
      5700   0.193846       0.00095011753  0.00095011753  0              0              345.62421      695.16675     -4.0950582      0              193.68973      0              0              9.5673861      9.6348849      0.2            92.180664    
      5800   0.1996069      0.00085843699  0.00085843699  0              0              798.69854      869.80996      727.41229      0              190.52784      0              0              9.5664247      9.6305812      0.2            92.130229    
      5900   0.2098939      0.00098693356  0.00098693356  0              0              64.702075      201.65467     -72.402252      0             -75.7985        0              0              9.5654632      9.6323321      0.2            92.137718    
      6000   0.18583206     0.0013326166   0.0013326166   0              0             -578.77544     -458.36647     -699.38632      0             -165.89951      0              0              9.5645018      9.6364457      0.2            92.167801    
      6100   0.18156048     0.0014179526   0.0014179526   0              0              110.86987      4.213461       217.29322      0             -166.19835      0              0              9.5635403      9.6395632      0.2            92.188351    
      6200   0.24678873     0.0012236306   0.0012236306   0              0              1195.4812      1641.1355      749.69188      0             -133.42873      0              0              9.5625788      9.6347585      0.2            92.133138    
      6300   0.20626594     0.00097447402  0.00097447402  0              0             -70.748044      123.25885     -264.94167      0             -367.87         0              0              9.5616174      9.6428462      0.2            92.201206    
      6400   0.21979682     0.0010410385   0.0010410385   0              0             -600.1231      -346.28613     -854.12909      0              96.146086      0              0              9.5606559      9.6519292      0.2            92.278775    
      6500   0.25188269     0.0012995218   0.0012995218   0              0              1023.6467      1723.7364      323.37247      0              551.7034       0              0              9.5596945      9.6475453      0.2            92.227586    
      6600   0.23580221     0.0012157719   0.0012157719   0              0              959.15093      735.89669      1182.2159      0              149.57884      0              0              9.558733       9.6389096      0.2            92.135763    
      6700   0.18376589     0.0010367844   0.0010367844   0              0              134.94614      890.99231     -621.30533      0              287.97285      0              0              9.5577716      9.6470224      0.2            92.204036    
      6800   0.24040835     0.0010556161   0.0010556161   0              0             -285.98787      502.67469     -1074.852       0             -257.36306      0              0              9.5568101      9.6529953      0.2            92.251843    
      6900   0.23975835     0.0011598967   0.0011598967   0              0              607.25403      493.62738      720.67183      0              599.22563      0              0              9.5558487      9.6469663      0.2            92.18495     
      7000   0.22630999     0.001017219    0.001017219    0              0              642.98384      519.795        765.99866      0             -108.44577      0              0              9.5548872      9.6460274      0.2            92.166703    
      7100   0.22512719     0.0012202236   0.0012202236   0              0             -272.3252       392.79027     -937.63378      0              952.93739      0              0              9.5539257      9.6567332      0.2            92.259712    
      7200   0.21378124     0.0011732347   0.0011732347   0              0             -128.46329      375.17195     -632.29223      0              73.329265      0              0              9.5529643      9.6648533      0.2            92.327998    
      7300   0.19586974     0.0012471081   0.0012471081   0              0              742.96094      572.45517      913.25675      0             -136.19238      0              0              9.5520028      9.6527216      0.2            92.202825    
      7400   0.19940674     0.0011612466   0.0011612466   0              0              936.97973      1272.2589      601.5299       0             -339.14861      0              0              9.5510414      9.6534066      0.2            92.200086    
      7500   0.21284203     0.00091785579  0.00091785579  0              0             -304.19853      245.07535     -853.67341      0             -610.85288      0              0              9.5500799      9.6559129      0.2            92.21474     
      7600   0.20887046     0.001276532    0.001276532    0              0              290.2571       1087.6046     -507.32061      0             -801.76349      0              0              9.5491185      9.6579776      0.2            92.225173    
      7700   0.22008106     0.00097201774  0.00097201774  0              0              13.837008     -890.66216      918.13447      0             -123.28372      0              0              9.548157       9.6502622      0.2            92.142219    
      7800   0.14408854     0.0009553677   0.0009553677   0              0              243.74061      373.87632      113.42039      0             -205.35898      0              0              9.5471956      9.6574901      0.2            92.201947    
      7900   0.17087113     0.00097484172  0.00097484172  0              0             -867.87731     -799.737       -936.1994       0             -97.116233      0              0              9.5462341      9.6583388      0.2            92.200763    
      8000   0.17790819     0.00077553553  0.00077553553  0              0              26.156175      5.0482575      47.052036      0              46.276147      0              0              9.5452726      9.6473499      0.2            92.086585    
      8100   0.17118943     0.00088592333  0.00088592333  0              0              990.72115      1181.084       800.17506      0             -553.16188      0              0              9.5443112      9.6463168      0.2            92.067449    
      8200   0.20858211     0.0011233667   0.0011233667   0              0              591.5024       1335.0643     -152.24229      0             -471.8326       0              0              9.5433497      9.6510851      0.2            92.10368     
      8300   0.21111327     0.0013517061   0.0013517061   0              0             -3.5176138      733.81705     -741.04158      0              99.856058      0              0              9.5423883      9.6518954      0.2            92.102134    
      8400   0.22271273     0.001150995    0.001150995    0              0              303.18388      487.55937      118.57097      0             -289.06542      0              0              9.5414268      9.6526748      0.2            92.10029     
      8500   0.22925225     0.0011160633   0.0011160633   0              0              650.07198      654.94879      644.98612      0              258.41485      0              0              9.5404654      9.647532       0.2            92.041945    
      8600   0.20319698     0.00099496895  0.00099496895  0              0              554.86069      1456.3915     -346.88558      0             -407.61457      0              0              9.5395039      9.6488594      0.2            92.045332    
      8700   0.20528413     0.0010397845   0.0010397845   0              0             -525.80945     -681.8196      -370.01205      0              228.5589       0              0              9.5385425      9.6468435      0.2            92.016826    
      8800   0.19472768     0.0010099566   0.0010099566   0              0              324.83883      371.22047      278.26326      0              133.34267      0              0              9.537581       9.6466753      0.2            92.005947    
      8900   0.1946584      0.00108436     0.00108436     0              0              889.46981      1531.2201      247.54326      0             -207.91033      0              0              9.5366195      9.6534031      0.2            92.060833    
      9000   0.19586644     0.0010241461   0.0010241461   0              0             -607.3555      -935.4584      -279.42455      0             -122.08533      0              0              9.5356581      9.6596526      0.2            92.111145    
      9100   0.17217681     0.00081553849  0.00081553849  0              0             -186.28216     -154.6235      -218.10431      0             -9.348357       0              0              9.5346966      9.6585024      0.2            92.090891    
      9200   0.22419512     0.00085661066  0.00085661066  0              0              394.76002      403.53391      385.80351      0              338.78772      0              0              9.5337352      9.6503816      0.2            92.004183    
      9300   0.18941279     0.0009050452   0.0009050452   0              0              419.28601      724.20931      114.18495      0              221.11803      0              0              9.5327737      9.6517436      0.2            92.007888    
      9400   0.16946556     0.00090788748  0.00090788748  0              0             -46.819167      269.43228     -363.28294      0             -88.617514      0              0              9.5318123      9.653928       0.2            92.019429    
      9500   0.18991149     0.00095227854  0.00095227854  0              0              124.8878       313.22257     -63.627891      0              84.137165      0              0              9.5308508      9.6487703      0.2            91.960991    
      9600   0.17282753     0.0011430741   0.0011430741   0              0              921.46506      1472.3798      370.397        0             -860.50538      0              0              9.5298894      9.6437508      0.2            91.903878    
      9700   0.20503962     0.0010454842   0.0010454842   0              0              330.09656      638.82766      21.145867      0              211.86665      0              0              9.5289279      9.6511893      0.2            91.965487    
      9800   0.23218193     0.00091097467  0.00091097467  0              0              16.246385      504.23017     -471.89685      0              276.75693      0              0              9.5279664      9.6566628      0.2            92.008359    
      9900   0.19382824     0.0010559448   0.0010559448   0              0              301.11469      594.06069      7.9700297      0              234.3059       0              0              9.527005       9.650717       0.2            91.942429    
     10000   0.2005118      0.00098789913  0.00098789913  0              0              858.53804      1201.2214      515.68809      0              462.74714      0              0              9.5260435      9.6588124      0.2            92.010268    
     10100   0.21675545     0.0010483748   0.0010483748   0              0              65.136961      368.83712     -238.72856      0              295.28101      0              0              9.5250821      9.6636145      0.2            92.046722    
     10200   0.20590206     0.0012035086   0.0012035086   0              0              243.2049       988.40509     -502.16738      0             -239.75925      0              0              9.5241206      9.6662364      0.2            92.062401    
     10300   0.18049886     0.0010978657   0.0010978657   0              0              177.28588     -90.786799      445.17012      0              173.64294      0              0              9.5231592      9.6537052      0.2            91.933771    
     10400   0.20275348     0.0010694292   0.0010694292   0              0              733.16716      1180.9932      285.18541      0             -131.39252      0              0              9.5221977      9.6591389      0.2            91.976231    
     10500   0.22498442     0.0010911864   0.0010911864   0              0              172.26432      939.46651     -595.12234      0             -613.61796      0              0              9.5212363      9.6689467      0.2            92.060326    
     10600   0.16682171     0.00120433     0.00120433     0              0              258.0706       746.15062     -230.17251      0             -345.72657      0              0              9.5202748      9.6620848      0.2            91.985702    
     10700   0.22644146     0.0010706969   0.0010706969   0              0              1021.3572      1468.9682      573.51955      0              184.4191       0              0              9.5193133      9.6534245      0.2            91.893973    
     10800   0.22841878     0.00091903057  0.00091903057  0              0              279.95286      602.56626     -42.865112      0              184.10796      0              0              9.5183519      9.6544848      0.2            91.894783    
     10900   0.23279317     0.00088703372  0.00088703372  0              0             -64.180875      438.73597     -567.3074       0              153.09959      0              0              9.5173904      9.6620526      0.2            91.957527    
     11000   0.23594973     0.0011389196   0.0011389196   0              0              658.30224      1227.306       89.134236      0              52.988641      0              0              9.516429       9.6612498      0.2            91.940598    
     11100   0.23156043     0.0012609436   0.0012609436   0              0              1006.1399      1562.5603      449.50583      0             -248.94132      0              0              9.5154675      9.6665983      0.2            91.982202    
     11200   0.22233762     0.001003934    0.001003934    0              0              169.43709      563.11999     -224.42379      0              18.873241      0              0              9.5145061      9.6666459      0.2            91.973361    
     11300   0.22884457     0.0012298206   0.0012298206   0              0              628.81073      1858.505      -601.09449      0              113.34856      0              0              9.5135446      9.6689393      0.2            91.985885    
     11400   0.23963823     0.0010102639   0.0010102639   0              0              1112.2322      1804.7768      419.48295      0              503.40011      0              0              9.5125832      9.6643237      0.2            91.932683    
     11500   0.18186563     0.0011577396   0.0011577396   0              0              994.88952      1647.7105      341.87118      0              92.450916      0              0              9.5116217      9.6689363      0.2            91.967264    
     11600   0.21393108     0.0011414495   0.0011414495   0              0              152.35374      823.73595     -519.23882      0              105.38996      0              0              9.5106602      9.6634158      0.2            91.905465    
     11700   0.22211006     0.0011105122   0.0011105122   0              0              225.71141      797.1816      -345.95511      0              133.79894      0              0              9.5096988      9.6621726      0.2            91.884351    
     11800   0.19948704     0.0011067601   0.0011067601   0              0              1558.2848      2282.5296      833.84978      0             -779.72967      0              0              9.5087373      9.661646       0.2            91.870054    
     11900   0.2054172      0.00081061886  0.00081061886  0              0              421.63338      647.04874      196.06223      0             -13.711714      0              0              9.5077759      9.6601005      0.2            91.84607     
     12000   0.20031978     0.001086156    0.001086156    0              0              139.78038      1165.5896     -886.20798      0              159.35604      0              0              9.5068144      9.6673914      0.2            91.906096    
     12100   0.19376153     0.0010562045   0.0010562045   0              0              592.20097      1225.7426     -41.507449      0              0.68098055     0              0              9.505853       9.6626005      0.2            91.851259    
     12200   0.19438906     0.0011049373   0.0011049373   0              0              1526.1318      2088.4385      963.65084      0             -411.66798      0              0              9.5048915      9.6616037      0.2            91.832495    
     12300   0.18472412     0.00095292093  0.00095292093  0              0              400.73055      993.43652     -192.13363      0             -310.78686      0              0              9.5039301      9.6695315      0.2            91.898551    
     12400   0.2045262      0.0010951037   0.0010951037   0              0             -276.5071       394.89267     -948.10258      0             -1046.1278      0              0              9.5029686      9.6717165      0.2            91.910019    
     12500   0.17035221     0.0010129249   0.0010129249   0              0              787.96688      1057.0563      518.70444      0             -655.12758      0              0              9.5020071      9.662407       0.2            91.812261    
     12600   0.20023068     0.00087099535  0.00087099535  0              0              1291.3228      1752.6215      829.82463      0             -578.16828      0              0              9.5010457      9.6532466      0.2            91.715937    
     12700   0.19626739     0.0014382143   0.0014382143   0              0             -66.571328      655.75299     -789.09179      0             -644.10911      0              0              9.5000842      9.6614579      0.2            91.784664    
     12800   0.20593369     0.001181327    0.001181327    0              0             -210.23347      43.618892     -464.26559      0             -585.21476      0              0              9.4991228      9.6567107      0.2            91.730281    
     12900   0.21765156     0.0013468031   0.0013468031   0              0              1109.8668      1143.2376      1076.2912      0             -494.01379      0              0              9.4981613      9.6558001      0.2            91.712347    
     13000   0.19223115     0.0011012237   0.0011012237   0              0              1144.8727      2121.0622      168.5044       0             -848.9684       0              0              9.4971999      9.6618763      0.2            91.760771    
     13100   0.20330923     0.00097860922  0.00097860922  0              0             -740.04277     -191.37804     -1288.8929      0             -602.24858      0              0              9.4962384      9.6698003      0.2            91.826729    
     13200   0.17450909     0.0011102026   0.0011102026   0              0              532.02         839.34659      224.56781      0             -710.56831      0              0              9.495277       9.6639857      0.2            91.76222     
     13300   0.19986549     0.0010122701   0.0010122701   0              0              1019.2395      918.5694       1119.7038      0             -746.78924      0              0              9.4943155      9.663472       0.2            91.748052    
     13400   0.19673012     0.0010589665   0.0010589665   0              0              139.59009      895.0205      -616.05068      0             -479.94527      0              0              9.493354       9.6606171      0.2            91.711659    
     13500   0.21543826     0.0010939294   0.0010939294   0              0             -554.22585     -241.11887     -867.52009      0             -539.43296      0              0              9.4923926      9.6722176      0.2            91.812487    
     13600   0.16931073     0.0010869356   0.0010869356   0              0              1108.4819      1487.0345      729.71018      0              1.1216143      0              0              9.4914311      9.6646603      0.2            91.731458    
     13700   0.22539059     0.0011025311   0.0011025311   0              0              668.08638      775.76484      560.2242       0             -55.509956      0              0              9.4904697      9.6649906      0.2            91.7253      
     13800   0.1806758      0.0010755478   0.0010755478   0              0             -460.83063     -135.0382      -786.82288      0              205.82368      0              0              9.4895082      9.6678796      0.2            91.743423    
     13900   0.21102228     0.0011002564   0.0011002564   0              0              618.85978      1463.5849     -226.03722      0              231.34404      0              0              9.4885468      9.6642995      0.2            91.700157    
     14000   0.20366651     0.0010626696   0.0010626696   0              0              1148.8619      1405.2995      892.22027      0             -210.89122      0              0              9.4875853      9.6566546      0.2            91.618334    
     14100   0.22592126     0.00093583619  0.00093583619  0              0              8.0870529      293.62309     -277.59121      0              417.22829      0              0              9.4866239      9.6650983      0.2            91.689152    
     14200   0.20129373     0.00088025645  0.00088025645  0              0              226.51152      1115.714      -662.90701      0              220.61185      0              0              9.4856624      9.6633559      0.2            91.663332    
     14300   0.18558474     0.00089671143  0.00089671143  0              0              875.17602      1115.3222      634.81295      0              43.377273      0              0              9.4847009      9.6550203      0.2            91.57498     
     14400   0.23585712     0.0010523023   0.0010523023   0              0              169.69842     -46.080917      385.2928       0              125.89499      0              0              9.4837395      9.655039       0.2            91.565874    
     14500   0.18905853     0.0011583101   0.0011583101   0              0              207.14534      951.87837     -537.74923      0              668.83016      0              0              9.482778       9.6650192      0.2            91.651232    
     14600   0.27138508     0.0010115289   0.0010115289   0              0              414.00393      734.40138      93.4298        0             -350.68513      0              0              9.4818166      9.6657817      0.2            91.649169    
     14700   0.20119384     0.001067761    0.001067761    0              0              750.04254      1009.7513      490.12935      0             -233.90289      0              0              9.4808551      9.6656137      0.2            91.638283    
     14800   0.2029476      0.00096219925  0.00096219925  0              0              45.426144      408.93916     -318.2861       0             -723.43086      0              0              9.4798937      9.6657221      0.2            91.630018    
     14900   0.18572342     0.00091015605  0.00091015605  0              0              382.98109      1093.3504     -327.53929      0             -425.05173      0              0              9.4789322      9.6675136      0.2            91.637707    
     15000   0.19793762     0.0011732526   0.0011732526   0              0              27.672754     -361.71075      416.82954      0              455.28808      0              0              9.4779708      9.6608261      0.2            91.565027    
     15100   0.18551492     0.00099339561  0.00099339561  0              0              400.44746      520.74627      279.98744      0             -284.22764      0              0              9.4770093      9.6594077      0.2            91.542297    
     15200   0.16051798     0.0010163686   0.0010163686   0              0             -83.798882      285.4631      -453.2767       0              416.86582      0              0              9.4760479      9.6675978      0.2            91.610619    
     15300   0.19119805     0.00093128116  0.00093128116  0              0              781.37321      1599.3992     -36.835076      0              92.679692      0              0              9.4750864      9.6653534      0.2            91.580059    
     15400   0.25059831     0.0010763699   0.0010763699   0              0              200.72836     -48.390476      449.67902      0              559.27347      0              0              9.4741249      9.6632143      0.2            91.550499    
     15500   0.17094094     0.0012147359   0.0012147359   0              0              459.83286      885.78961      33.682391      0             -205.25267      0              0              9.4731635      9.6581066      0.2            91.492822    
     15600   0.17793868     0.0010237011   0.0010237011   0              0             -340.82848     -152.06474     -529.79004      0              707.95234      0              0              9.472202       9.6648677      0.2            91.547579    
     15700   0.216167       0.0011176635   0.0011176635   0              0              687.36731      1124.801       249.76003      0              202.60818      0              0              9.4712406      9.6640202      0.2            91.53026     
     15800   0.1478854      0.001223061    0.001223061    0              0              522.08507      720.7794       323.18425      0              678.80103      0              0              9.4702791      9.6687226      0.2            91.565502    
     15900   0.2536985      0.00089199647  0.00089199647  0              0              382.82256      1001.9373     -236.51189      0              105.19249      0              0              9.4693177      9.6774829      0.2            91.639159    
     16000   0.20929184     0.0011449853   0.0011449853   0              0              400.38512      947.6657      -147.10105      0              718.21561      0              0              9.4683562      9.6721579      0.2            91.579436    
     16100   0.21744651     0.00098379255  0.00098379255  0              0              368.82829      530.89273      206.56998      0              337.96076      0              0              9.4673948      9.6773041      0.2            91.618858    
     16200   0.2061722      0.0010848628   0.0010848628   0              0             -183.62116     -480.44277      113.01558      0              902.11973      0              0              9.4664333      9.6833867      0.2            91.667135    
     16300   0.22036187     0.001045595    0.001045595    0              0             -228.01794     -161.53993     -294.67827      0              566.12946      0              0              9.4654718      9.6827378      0.2            91.651682    
     16400   0.20425792     0.0011013081   0.0011013081   0              0             -211.39429     -368.06259     -54.900193      0              1150.9024      0              0              9.4645104      9.6792352      0.2            91.609222    
     16500   0.19441608     0.0009528633   0.0009528633   0              0              516.97974      710.0312       323.76228      0              864.07249      0              0              9.4635489      9.6848636      0.2            91.653181    
     16600   0.22975838     0.0010479445   0.0010479445   0              0              468.6948       943.49557     -6.2947279      0             -504.49234      0              0              9.4625875      9.6859871      0.2            91.6545      
     16700   0.17610165     0.00113037     0.00113037     0              0             -380.66939     -402.01602     -359.49235      0              365.99011      0              0              9.461626       9.683279       0.2            91.619565    
     16800   0.24138046     0.0012109846   0.0012109846   0              0              92.583091     -193.63487      378.59463      0              802.37088      0              0              9.4606646      9.6768867      0.2            91.549779    
     16900   0.20278251     0.0010390601   0.0010390601   0              0              357.28946      426.90866      287.50563      0              657.36394      0              0              9.4597031      9.6867394      0.2            91.633678    
     17000   0.14774654     0.0010778848   0.0010778848   0              0             -466.16768     -130.53845     -802.00287      0              382.62681      0              0              9.4587417      9.693319       0.2            91.686601    
     17100   0.20914395     0.0010240533   0.0010240533   0              0              165.24233      390.12235     -59.831964      0              262.50931      0              0              9.4577802      9.6816706      0.2            91.567112    
     17200   0.21616561     0.0011152639   0.0011152639   0              0              1392.5761      1987.9701      796.96289      0              689.58923      0              0              9.4568187      9.6765581      0.2            91.509456    
     17300   0.18091613     0.0010798144   0.0010798144   0              0             -0.1428054      331.5292      -331.97875      0              103.11893      0              0              9.4558573      9.6839237      0.2            91.5698      
     17400   0.19071795     0.00098256137  0.00098256137  0              0             -58.457066      607.35695     -724.43778      0              880.20093      0              0              9.4548958      9.6785027      0.2            91.509235    
     17500   0.26078045     0.0012389321   0.0012389321   0              0              1612.4795      2355.938       868.84905      0              410.32172      0              0              9.4539344      9.6652847      0.2            91.374968    
     17600   0.23803869     0.0010797914   0.0010797914   0              0              599.52493      727.59804      471.26249      0              790.08918      0              0              9.4529729      9.6737343      0.2            91.445549    
     17700   0.15911552     0.0011268808   0.0011268808   0              0             -310.09776      514.83686     -1135.2339      0             -63.067402      0              0              9.4520115      9.6797126      0.2            91.492754    
     17800   0.20313766     0.0010217739   0.0010217739   0              0              4.0463183     -48.871483      56.784072      0              247.28628      0              0              9.45105        9.6747093      0.2            91.436162    
     17900   0.19948727     0.00092435557  0.00092435557  0              0              1761.4916      2205.2823      1317.5103      0              109.05918      0              0              9.4500886      9.6711448      0.2            91.393175    
     18000   0.21998274     0.001125725    0.001125725    0              0             -0.015938893    603.53855     -603.78017      0              52.47179       0              0              9.4491271      9.6817383      0.2            91.483976    
     18100   0.24014225     0.0011643838   0.0011643838   0              0             -24.350274      995.32962     -1044.1726      0             -439.76344      0              0              9.4481656      9.6756624      0.2            91.417261    
     18200   0.2290822      0.00080812009  0.00080812009  0              0              1158.1914      1130.2361      1185.9776      0             -214.87274      0              0              9.4472042      9.675266       0.2            91.404213    
     18300   0.20500289     0.00097672811  0.00097672811  0              0              539.46368      643.02701      435.68233      0              542.75582      0              0              9.4462427      9.6742017      0.2            91.384857    
     18400   0.21850311     0.00097376703  0.00097376703  0              0             -605.13028      322.17667     -1532.6211      0             -597.78514      0              0              9.4452813      9.6837676      0.2            91.465909    
     18500   0.240675       0.0012260532   0.0012260532   0              0              301.96138      154.6005       449.15437      0             -502.15631      0              0              9.4443198      9.6766246      0.2            91.389138    
     18600   0.20206771     0.0013495079   0.0013495079   0              0              1165.3935      1017.396       1313.2043      0              77.393959      0              0              9.4433584      9.6702512      0.2            91.319648    
     18700   0.21876643     0.0011772977   0.0011772977   0              0             -268.67725      443.72218     -981.2476       0             -246.88108      0              0              9.4423969      9.6845776      0.2            91.445625    
     18800   0.24188361     0.00098517087  0.00098517087  0              0             -542.38099     -400.38326     -684.58875      0              12.3269        0              0              9.4414355      9.6852526      0.2            91.442687    
     18900   0.19357067     0.0012422943   0.0012422943   0              0              987.24645      700.08018      1274.2432      0             -842.39409      0              0              9.440474       9.6771798      0.2            91.357164    
     19000   0.2317748      0.0010867864   0.0010867864   0              0              203.56464      493.23201     -86.268292      0              31.499677      0              0              9.4395125      9.6837798      0.2            91.410161    
     19100   0.21336373     0.0011176254   0.0011176254   0              0             -361.04747      385.00837     -1107.2648      0              150.42148      0              0              9.4385511      9.6857429      0.2            91.419379    
     19200   0.2269964      0.00079062866  0.00079062866  0              0              612.03092      390.84927      833.02027      0             -44.62935       0              0              9.4375896      9.6681754      0.2            91.244272    
     19300   0.18860678     0.00097672574  0.00097672574  0              0              988.93328      1503.1457      474.52258      0              293.88127      0              0              9.4366282      9.6735804      0.2            91.285981    
     19400   0.22611239     0.00092331625  0.00092331625  0              0             -146.56795      598.46476     -891.77926      0             -81.92342       0              0              9.4356667      9.6823266      0.2            91.359207    
     19500   0.21430742     0.00091044237  0.00091044237  0              0              554.18008      990.75366      117.40535      0              1.1361294      0              0              9.4347053      9.6736825      0.2            91.268344    
     19600   0.17237644     0.0011141335   0.0011141335   0              0              1357.0804      2033.0042      680.97428      0             -475.72848      0              0              9.4337438      9.6742756      0.2            91.264638    
     19700   0.22646087     0.0010396357   0.0010396357   0              0              317.243        880.30656     -246.01221      0              479.20391      0              0              9.4327824      9.6740188      0.2            91.252914    
     19800   0.17490847     0.0014200989   0.0014200989   0              0             -205.61768     -32.303795     -379.10875      0             -159.30949      0              0              9.4318209      9.6712352      0.2            91.217358    
     19900   0.21757138     0.0010644      0.0010644      0              0              377.12508      460.28329      293.76253      0              51.486403      0              0              9.4308594      9.669653       0.2            91.193138    
     20000   0.17489195     0.00099070746  0.00099070746  0              0              35.351396      82.873053     -12.371798      0             -783.61572      0              0              9.429898       9.6756546      0.2            91.240435    
     20100   0.28735742     0.00092500613  0.00092500613  0              0             -188.2661       42.173051     -418.89313      0              303.45775      0              0              9.4289365      9.6824156      0.2            91.294882    
     20200   0.18132719     0.0011616109   0.0011616109   0              0             -34.260398     -363.1621       294.48398      0              317.50538      0              0              9.4279751      9.6772711      0.2            91.23707     
     20300   0.22761503     0.0011753038   0.0011753038   0              0              239.05925      186.82358      291.10334      0             -325.71374      0              0              9.4270136      9.6708303      0.2            91.167049    
     20400   0.19979084     0.0010827806   0.0010827806   0              0             -128.1744       72.199879     -328.75616      0             -661.09712      0              0              9.4260522      9.6793462      0.2            91.238022    
     20500   0.19347903     0.0012841192   0.0012841192   0              0              152.41776      363.64503     -58.971414      0             -625.94761      0              0              9.4250907      9.6711614      0.2            91.151574    
     20600   0.1513864      0.0010611484   0.0010611484   0              0              318.90695      337.3901       300.24238      0             -127.07715      0              0              9.4241293      9.673349       0.2            91.162891    
     20700   0.18187813     0.0010380129   0.0010380129   0              0             -427.99067     -634.38532     -221.7646       0              597.92556      0              0              9.4231678      9.6781644      0.2            91.198968    
     20800   0.24152036     0.00090433204  0.00090433204  0              0             -15.603449      91.909292     -123.31943      0              282.66484      0              0              9.4222063      9.6789819      0.2            91.197365    
     20900   0.23786567     0.0010541998   0.0010541998   0              0              345.14223      440.60972      249.4594       0              23.506344      0              0              9.4212449      9.6733234      0.2            91.134748    
     21000   0.2392734      0.0011220118   0.0011220118   0              0              318.92351      695.50802     -57.827702      0              163.85942      0              0              9.4202834      9.6791275      0.2            91.180125    
     21100   0.25048501     0.001128611    0.001128611    0              0              317.75368      818.35881     -183.04698      0             -458.85182      0              0              9.419322       9.6764487      0.2            91.145585    
     21200   0.21380403     0.0012119967   0.0012119967   0              0              350.87533      563.32553      138.19502      0             -285.64935      0              0              9.4183605      9.6760136      0.2            91.132185    
     21300   0.26129327     0.0010678554   0.0010678554   0              0             -133.58552     -334.95316      67.55323       0              759.63941      0              0              9.4173991      9.6834821      0.2            91.193216    
     21400   0.20859284     0.0011019849   0.0011019849   0              0             -14.271813      190.2168      -218.93476      0             -6.7369748      0              0              9.4164376      9.6915017      0.2            91.259421    
     21500   0.21964277     0.0010772028   0.0010772028   0              0              1098.1596      2184.2355      11.915956      0              8.8495855      0              0              9.4154762      9.6852216      0.2            91.190973    
     21600   0.19005227     0.00089663223  0.00089663223  0              0              367.301        528.07344      206.34635      0              195.54956      0              0              9.4145147      9.6771274      0.2            91.105458    
     21700   0.19098138     0.0010273346   0.0010273346   0              0             -442.6384      -656.03522     -229.41022      0              127.37141      0              0              9.4135532      9.6892909      0.2            91.210655    
     21800   0.21176813     0.0010413331   0.0010413331   0              0              12.696457      47.475463     -22.265451      0              792.30161      0              0              9.4125918      9.6828688      0.2            91.140891    
     21900   0.19299309     0.0010623405   0.0010623405   0              0              282.13767      454.69883      109.37596      0              189.72048      0              0              9.4116303      9.6766342      0.2            91.072904    
     22000   0.22634235     0.0011028668   0.0011028668   0              0              267.91261      774.95949     -239.30558      0              398.98292      0              0              9.4106689      9.6878546      0.2            91.169191    
     22100   0.22260661     0.00098670572  0.00098670572  0              0             -179.64575     -330.49108     -28.971386      0              166.84697      0              0              9.4097074      9.6866291      0.2            91.148345    
     22200   0.27007513     0.00092631537  0.00092631537  0              0              98.697686     -295.45725      492.64959      0              453.15878      0              0              9.408746       9.6823467      0.2            91.09874     
     22300   0.19228068     0.00086904312  0.00086904312  0              0             -325.57329     -293.63312     -357.6825       0              656.75902      0              0              9.4077845      9.6913473      0.2            91.174107    
     22400   0.1774851      0.0010772936   0.0010772936   0              0              247.39871      886.51039     -391.87106      0             -105.30097      0              0              9.4068231      9.6903177      0.2            91.155104    
     22500   0.19241609     0.00093093064  0.00093093064  0              0              907.32935      1173.9357      640.53739      0              292.1442       0              0              9.4058616      9.6866162      0.2            91.110971    
     22600   0.1650699      0.0012363758   0.0012363758   0              0              654.78644      1409.4628     -100.06622      0              36.887861      0              0              9.4049001      9.6888996      0.2            91.123133    
     22700   0.21138014     0.0011550821   0.0011550821   0              0              390.77913      1430.8865     -649.52022      0              455.27579      0              0              9.4039387      9.6951762      0.2            91.172842    
     22800   0.2553968      0.0011959975   0.0011959975   0              0              643.86054      844.91674      442.61356      0              253.2338       0              0              9.4029772      9.6914244      0.2            91.128243    
     22900   0.2013277      0.00087295466  0.00087295466  0              0              352.80824      285.80855      419.60113      0              409.22781      0              0              9.4020158      9.69665        0.2            91.168056    
     23000   0.21492602     0.0011569535   0.0011569535   0              0             -515.79381     -122.86154     -908.91462      0              394.08268      0              0              9.4010543      9.7090789      0.2            91.275579    
     23100   0.22236124     0.0012778705   0.0012778705   0              0              738.82884      1427.7441      49.709788      0              824.7881       0              0              9.4000929      9.6999227      0.2            91.180174    
     23200   0.15401495     0.0010361856   0.0010361856   0              0              1278.1487      1644.1463      911.96045      0              227.74311      0              0              9.3991314      9.6926556      0.2            91.102544    
     23300   0.20109458     0.00099310081  0.00099310081  0              0             -611.03109     -550.92129     -671.33655      0              585.19649      0              0              9.39817        9.6988144      0.2            91.151106    
     23400   0.20005589     0.0010776321   0.0010776321   0              0             -190.57191      340.10411     -721.46361      0             -0.69221895     0              0              9.3972085      9.7026832      0.2            91.178137    
     23500   0.250711       0.0009784128   0.0009784128   0              0              1248.6385      1212.2405      1284.8438      0             -210.60776      0              0              9.396247       9.6944021      0.2            91.090997    
     23600   0.21859543     0.0010802029   0.0010802029   0              0              876.96569      2087.5179     -333.76165      0              471.81205      0              0              9.3952856      9.69694        0.2            91.105521    
     23700   0.19240641     0.0010282029   0.0010282029   0              0              9.434721       1218.8859     -1200.2245      0              58.834483      0              0              9.3943241      9.7047962      0.2            91.170002    
     23800   0.21441105     0.0010482705   0.0010482705   0              0              1032.0223      994.41025      1069.4134      0              320.18189      0              0              9.3933627      9.6896238      0.2            91.018151    
     23900   0.20064613     0.00099765237  0.00099765237  0              0              1283.8974      2021.6857      545.87787      0              516.4893       0              0              9.3924012      9.6892216      0.2            91.005057    
     24000   0.21412581     0.0011832585   0.0011832585   0              0             -737.86997      21.179839     -1497.1113      0              986.11474      0              0              9.3914398      9.6967136      0.2            91.066102    
     24100   0.1790536      0.00097431724  0.00097431724  0              0              784.97091      1214.5479      355.19717      0              90.734056      0              0              9.3904783      9.6920814      0.2            91.01328     
     24200   0.17127294     0.0011825592   0.0011825592   0              0              1254.471       1387.7524      1120.9894      0              652.61602      0              0              9.3895169      9.6901491      0.2            90.985818    
     24300   0.22655688     0.0010393501   0.0010393501   0              0              124.9992       1246.6391     -996.79316      0              576.96046      0              0              9.3885554      9.699264       0.2            91.062078    
     24400   0.22843498     0.00092697064  0.00092697064  0              0              934.4062       2368.9309     -500.33699      0             -378.49722      0              0              9.3875939      9.6974973      0.2            91.036167    
     24500   0.21284824     0.0011674629   0.0011674629   0              0              1742.7801      2195.5701      1289.7427      0              431.53548      0              0              9.3866325      9.6900697      0.2            90.957123    
     24600   0.23199618     0.00085793487  0.00085793487  0              0              186.69662      787.91373     -414.6909       0              262.7251       0              0              9.385671       9.7005158      0.2            91.04585     
     24700   0.2506558      0.0011913715   0.0011913715   0              0              102.55601      960.13332     -755.18563      0              798.20765      0              0              9.3847096      9.6955269      0.2            90.989704    
     24800   0.22309298     0.0012078936   0.0012078936   0              0              993.35444      1155.1274      831.34682      0              1245.3905      0              0              9.3837481      9.6936246      0.2            90.962532    
     24900   0.22786029     0.0011276848   0.0011276848   0              0              86.830375      28.643307      144.84835      0              159.56112      0              0              9.3827867      9.6990055      0.2            91.0037      
     25000   0.1782313      0.00132321     0.00132321     0              0             -153.50963      482.33664     -789.57186      0              397.2771       0              0              9.3818252      9.7079974      0.2            91.078735    
     25100   0.22221709     0.0010416011   0.0010416011   0              0              602.28018      734.7792       469.61949      0              430.31014      0              0              9.3808638      9.6980665      0.2            90.97624     
     25200   0.20695098     0.0011110391   0.0011110391   0              0              982.4446       1556.4983      408.17301      0             -100.76514      0              0              9.3799023      9.7006064      0.2            90.99074     
     25300   0.21855018     0.0011662873   0.0011662873   0              0              57.727593      799.96136     -684.70546      0              508.36655      0              0              9.3789408      9.7026674      0.2            91.000744    
     25400   0.22177875     0.0012040229   0.0012040229   0              0              684.16957      1038.0271      330.11079      0              501.45218      0              0              9.3779794      9.6965544      0.2            90.934087    
     25500   0.18832478     0.0010117223   0.0010117223   0              0              503.17198      579.43358      426.71773      0              857.66597      0              0              9.3770179      9.6947537      0.2            90.907879    
     25600   0.18389387     0.0011972306   0.0011972306   0              0             -46.479297      694.62248     -787.78696      0              791.56753      0              0              9.3760565      9.7076918      0.2            91.019866    
     25700   0.24489214     0.0011685335   0.0011685335   0              0              571.57252      881.87077      261.10406      0              377.61918      0              0              9.375095       9.7011608      0.2            90.949305    
     25800   0.22348564     0.0010051072   0.0010051072   0              0              83.860673     -549.55369      717.08724      0              158.66067      0              0              9.3741336      9.6994413      0.2            90.923858    
     25900   0.17566297     0.00099770268  0.00099770268  0              0             -261.44769      112.15486     -635.24234      0              323.44167      0              0              9.3731721      9.7029016      0.2            90.946967    
     26000   0.18414904     0.0011893967   0.0011893967   0              0              253.40212      662.42        -155.75584      0              29.90479       0              0              9.3722107      9.7063152      0.2            90.969631    
     26100   0.20896888     0.001230465    0.001230465    0              0              1098.0573      1302.9372      893.02357      0              328.66051      0              0              9.3712492      9.6952331      0.2            90.856446    
     26200   0.23301428     0.00093709805  0.00093709805  0              0              392.53014      1286.2901     -501.4238       0              358.43469      0              0              9.3702877      9.7015395      0.2            90.906217    
     26300   0.20510989     0.0011704823   0.0011704823   0              0              121.86755      820.74328     -577.20194      0              31.914677      0              0              9.3693263      9.7026208      0.2            90.90702     
     26400   0.17468874     0.001194901    0.001194901    0              0              759.40671      666.63857      851.96052      0              945.11774      0              0              9.3683648      9.6947174      0.2            90.823649    
     26500   0.18216043     0.001368919    0.001368919    0              0              648.3984       1373.077      -76.503417      0              236.29948      0              0              9.3674034      9.7007395      0.2            90.87074     
     26600   0.2338667      0.0010354898   0.0010354898   0              0             -914.71061     -1052.3433     -777.27773      0              197.98653      0              0              9.3664419      9.6997749      0.2            90.852378    
     26700   0.2041347      0.00098314036  0.00098314036  0              0              649.24838      597.56951      700.74574      0              322.46907      0              0              9.3654805      9.698426       0.2            90.830419    
     26800   0.21338466     0.00094281025  0.00094281025  0              0              394.11498      555.14276      232.92346      0              27.424551      0              0              9.364519       9.6947913      0.2            90.787057    
     26900   0.21933147     0.0010385024   0.0010385024   0              0             -274.65812      450.01673     -999.53128      0              138.64812      0              0              9.3635576      9.7004575      0.2            90.830792    
     27000   0.17045727     0.00087548637  0.00087548637  0              0              711.02764      1043.8021      378.08144      0              169.32882      0              0              9.3625961      9.7019551      0.2            90.835487    
     27100   0.17895917     0.0011415095   0.0011415095   0              0              310.83329     -46.524233      668.01058      0              33.311941      0              0              9.3616346      9.6980445      0.2            90.78955     
     27200   0.21020093     0.0010888868   0.0010888868   0              0              356.32047      1380.3035     -667.89476      0              11.391823      0              0              9.3606732      9.7088246      0.2            90.881134    
     27300   0.18403753     0.0012164552   0.0012164552   0              0              789.44482      1577.8457      0.87773294     0              264.03337      0              0              9.3597117      9.7060238      0.2            90.845584    
     27400   0.23090282     0.0011817532   0.0011817532   0              0              1279.6799      1873.2843      685.88646      0             -154.21365      0              0              9.3587503      9.707439       0.2            90.849498    
     27500   0.22364306     0.0011677671   0.0011677671   0              0              421.17748      1267.9496     -425.79855      0             -23.344427      0              0              9.3577888      9.713977       0.2            90.901345    
     27600   0.20628898     0.0011355662   0.0011355662   0              0              139.83759      685.69186     -406.22284      0              164.58587      0              0              9.3568274      9.7106332      0.2            90.860718    
     27700   0.17417919     0.0014128507   0.0014128507   0              0              1183.2249      1718.947       647.28717      0              848.43658      0              0              9.3558659      9.6960095      0.2            90.714565    
     27800   0.22523378     0.0011754792   0.0011754792   0              0              1038.6942      2111.0796     -33.874921      0              605.79421      0              0              9.3549045      9.6955516      0.2            90.700959    
     27900   0.22791485     0.0010758872   0.0010758872   0              0              524.606        1540.1302     -491.11111      0              365.76845      0              0              9.353943       9.7058684      0.2            90.788139    
     28000   0.21454589     0.0010201514   0.0010201514   0              0              1042.1774      1431.3307      652.84007      0             -13.099992      0              0              9.3529815      9.6950411      0.2            90.67754     
     28100   0.19707441     0.0010689234   0.0010689234   0              0              318.84192      659.16848     -21.658075      0              641.04701      0              0              9.3520201      9.694547       0.2            90.663599    
     28200   0.15844439     0.00092239988  0.00092239988  0              0             -112.35038      347.99869     -572.90812      0              519.3492       0              0              9.3510586      9.6929721      0.2            90.63955     
     28300   0.25385382     0.001143984    0.001143984    0              0              594.26035      735.92423      452.33583      0              739.05921      0              0              9.3500972      9.6935596      0.2            90.635724    
     28400   0.26973402     0.0013039929   0.0013039929   0              0              400.42784      696.61711      104.03247      0              435.5988       0              0              9.3491357      9.696516       0.2            90.654044    
[...]
     43500   0.1936015      0.0011129125   0.0011129125   0              0              735.99676      59.401589      1412.3831      0              9.5549984      0              0              9.2039559      9.6804112      0.2            89.098078    
     43600   0.1806422      0.0012980337   0.0012980337   0              0             -313.01503     -73.681428     -552.5324       0             -1039.6927      0              0              9.2029945      9.691115       0.2            89.187278    
     43700   0.20899829     0.0010483556   0.0010483556   0              0             -727.36607     -459.48854     -995.41771      0             -543.37994      0              0              9.202033       9.6890398      0.2            89.158864    
     43800   0.1877982      0.0010690274   0.0010690274   0              0              894.23994      376.03413      1412.239       0             -38.849486      0              0              9.2010716      9.6794406      0.2            89.061225    
     43900   0.18066088     0.0010718353   0.0010718353   0              0             -143.73299     -147.97778     -139.68752      0              131.42323      0              0              9.2001101      9.6852287      0.2            89.10517     
     44000   0.17934198     0.001057006    0.001057006    0              0             -739.33658     -426.14773     -1052.7401      0              831.28711      0              0              9.1991487      9.6913025      0.2            89.151733    
     44100   0.16222591     0.00082391373  0.00082391373  0              0              866.56584      661.24991      1071.7152      0              330.96036      0              0              9.1981872      9.6864988      0.2            89.098229    
     44200   0.18536995     0.001050426    0.001050426    0              0             -293.16192     -758.01517      171.5262       0              185.1719       0              0              9.1972258      9.6863776      0.2            89.087802    
     44300   0.16289549     0.0011581822   0.0011581822   0              0             -984.20465     -847.08018     -1121.5367      0              76.880753      0              0              9.1962643      9.6876712      0.2            89.090385    
     44400   0.17023643     0.00098891131  0.00098891131  0              0              384.29092     -17.690262      786.07535      0              377.61233      0              0              9.1953028      9.6768265      0.2            88.98135     
     44500   0.25566992     0.0011240078   0.0011240078   0              0              456.20854      514.33963      397.94448      0             -390.50823      0              0              9.1943414      9.679866       0.2            88.999992    
     44600   0.19117894     0.0010286918   0.0010286918   0              0             -1025.5914     -1115.1216     -936.22705      0             -121.38815      0              0              9.1933799      9.6890053      0.2            89.074707    
     44700   0.2353163      0.0013032381   0.0013032381   0              0              549.0553       814.67349      283.25227      0              239.69248      0              0              9.1924185      9.6838538      0.2            89.018036    
     44800   0.23300235     0.0014261759   0.0014261759   0              0              553.63236      460.96733      646.11684      0             -89.642847      0              0              9.191457       9.6783867      0.2            88.958475    
     44900   0.22514031     0.0012738254   0.0012738254   0              0             -1142.0295     -1642.9854     -641.23524      0             -190.76771      0              0              9.1904956      9.686815       0.2            89.02663     
     45000   0.16271498     0.0016989992   0.0016989992   0              0              125.8987       70.981222      180.62618      0             -569.09868      0              0              9.1895341      9.6868819      0.2            89.017932    
     45100   0.2605385      0.0011622484   0.0011622484   0              0              317.73331      247.84824      387.42465      0             -68.386795      0              0              9.1885727      9.6922592      0.2            89.058028    
     45200   0.26256949     0.0012078019   0.0012078019   0              0              202.67559      894.64761     -489.48948      0             -193.84682      0              0              9.1876112      9.6988684      0.2            89.109432    
     45300   0.17970105     0.0010975456   0.0010975456   0              0              591.41177      1218.8767     -36.233524      0              849.58164      0              0              9.1866497      9.6918496      0.2            89.035628    
     45400   0.24736221     0.0011900733   0.0011900733   0              0              892.1398       1445.8889      338.23041      0             -166.77039      0              0              9.1856883      9.6861788      0.2            88.974219    
     45500   0.20502624     0.0011942047   0.0011942047   0              0             -176.38249      47.118717     -400.08651      0              233.50798      0              0              9.1847268      9.699073       0.2            89.083336    
     45600   0.24148585     0.00095439611  0.00095439611  0              0              411.00962      876.15645     -54.286155      0              391.93864      0              0              9.1837654      9.6891139      0.2            88.982548    
     45700   0.20335025     0.0014779156   0.0014779156   0              0              751.40866      1088.2821      414.36868      0              75.515529      0              0              9.1828039      9.6907281      0.2            88.988056    
     45800   0.18026208     0.0011933806   0.0011933806   0              0              534.31348      1362.5207     -294.09178      0              994.53442      0              0              9.1818425      9.6916508      0.2            88.987211    
     45900   0.18425741     0.0011548873   0.0011548873   0              0              354.19346      910.69885     -202.49858      0             -241.19854      0              0              9.180881       9.6901672      0.2            88.964272    
     46000   0.2126185      0.0011921527   0.0011921527   0              0              668.32789      878.15476      458.31438      0             -52.012473      0              0              9.1799196      9.6901218      0.2            88.954538    
     46100   0.19775808     0.0012448567   0.0012448567   0              0             -166.28019     -74.6585       -258.0976       0             -203.94529      0              0              9.1789581      9.6983903      0.2            89.021118    
     46200   0.22908486     0.0012189667   0.0012189667   0              0             -109.5964       94.008834     -313.41609      0             -239.85439      0              0              9.1779966      9.699688       0.2            89.023704    
     46300   0.19902867     0.0011147917   0.0011147917   0              0              718.8254       922.69571      514.76704      0             -788.67995      0              0              9.1770352      9.6889087      0.2            88.915456    
     46400   0.17481602     0.0011374175   0.0011374175   0              0             -194.52101     -191.40981     -197.85863      0             -191.09925      0              0              9.1760737      9.6952442      0.2            88.964276    
     46500   0.22795489     0.0012520189   0.0012520189   0              0             -206.0728      -45.622955     -366.70751      0              634.93525      0              0              9.1751123      9.6925364      0.2            88.93011     
     46600   0.17996202     0.0013192315   0.0013192315   0              0              415.36127      148.54228      682.04696      0             -542.88202      0              0              9.1741508      9.6832113      0.2            88.835241    
     46700   0.17729827     0.0011903481   0.0011903481   0              0             -185.21102     -118.05522     -252.55285      0             -713.37364      0              0              9.1731894      9.6937335      0.2            88.922453    
     46800   0.21867012     0.0010003173   0.0010003173   0              0             -395.39718     -255.29599     -535.65098      0             -404.85591      0              0              9.1722279      9.6948655      0.2            88.923516    
     46900   0.2210675      0.0012248043   0.0012248043   0              0              252.02772     -237.24603      741.11334      0             -138.27536      0              0              9.1712665      9.6936071      0.2            88.902654    
     47000   0.17067309     0.0011884539   0.0011884539   0              0             -247.10506     -226.96665     -267.44054      0              172.273        0              0              9.170305       9.6934858      0.2            88.892221    
     47100   0.20190345     0.00099055602  0.00099055602  0              0             -430.18089     -344.0735      -516.50895      0             -227.87118      0              0              9.1693435      9.6971241      0.2            88.916262    
     47200   0.20745957     0.0010131555   0.0010131555   0              0              674.07531      500.63257      847.33111      0              147.75439      0              0              9.1683821      9.6860616      0.2            88.805514    
     47300   0.24810461     0.0011279927   0.0011279927   0              0             -73.434315      130.67665     -277.75069      0              613.88008      0              0              9.1674206      9.691034       0.2            88.841785    
     47400   0.17293206     0.001343894    0.001343894    0              0              2.5740679      681.64346     -676.70401      0              502.71266      0              0              9.1664592      9.6905156      0.2            88.827716    
     47500   0.23782244     0.0013048276   0.0013048276   0              0              622.87918      488.10571      757.49852      0              301.86585      0              0              9.1654977      9.68733        0.2            88.789201    
     47600   0.24691218     0.0011602115   0.0011602115   0              0              249.42053      438.07048      60.562216      0              107.27813      0              0              9.1645363      9.6961891      0.2            88.861076    
     47700   0.20406267     0.0012123707   0.0012123707   0              0             -244.09933      309.07632     -797.54042      0              511.4568       0              0              9.1635748      9.6994971      0.2            88.882067    
     47800   0.18672156     0.0011057773   0.0011057773   0              0              236.18732     -284.41673      756.56587      0              866.56781      0              0              9.1626134      9.6840968      0.2            88.731634    
     47900   0.20177349     0.0010857172   0.0010857172   0              0              733.55542      1336.2398      130.67777      0              128.08513      0              0              9.1616519      9.686676       0.2            88.745954    
     48000   0.2002118      0.0011286944   0.0011286944   0              0             -264.33695      293.61813     -822.44808      0              630.06906      0              0              9.1606904      9.7011189      0.2            88.868947    
     48100   0.23052762     0.0012563585   0.0012563585   0              0              590.66671      453.817        727.30843      0              405.56191      0              0              9.159729       9.6910854      0.2            88.767715    
     48200   0.1779522      0.001453792    0.001453792    0              0              381.35172      448.0997       314.44098      0             -114.89893      0              0              9.1587675      9.6875033      0.2            88.725591    
     48300   0.22462139     0.001217665    0.001217665    0              0             -427.5073       160.14298     -1015.3         0             -159.13898      0              0              9.1578061      9.6926796      0.2            88.76368     
     48400   0.23597557     0.0010701272   0.0010701272   0              0              582.74415      406.94731      758.36376      0             -234.58832      0              0              9.1568446      9.68173        0.2            88.654097    
     48500   0.2702286      0.0013281373   0.0013281373   0              0              380.86454      185.22954      576.31717      0             -257.88027      0              0              9.1558832      9.6806084      0.2            88.63452     
     48600   0.18708017     0.0012662683   0.0012662683   0              0             -830.03029     -194.45056     -1465.7694      0             -9.671461       0              0              9.1549217      9.6940426      0.2            88.748201    
     48700   0.19364632     0.0011804312   0.0011804312   0              0              396.0797       64.296173      727.67793      0             -486.93254      0              0              9.1539603      9.6865197      0.2            88.670017    
     48800   0.18831954     0.001376763    0.001376763    0              0              792.3052       534.26661      1050.1335      0              246.99688      0              0              9.1529988      9.6855656      0.2            88.65197     
     48900   0.18463861     0.001442359    0.001442359    0              0             -1574.189      -1200.2642     -1948.3694      0             -108.48884      0              0              9.1520373      9.7012603      0.2            88.786297    
     49000   0.22166441     0.0012217605   0.0012217605   0              0              693.32037      631.62224      754.81602      0              271.79089      0              0              9.1510759      9.6841746      0.2            88.620617    
     49100   0.21927083     0.0013082042   0.0013082042   0              0              1537.7764      1618.3611      1457.0095      0             -504.50853      0              0              9.1501144      9.6841826      0.2            88.611379    
     49200   0.21681017     0.0014044522   0.0014044522   0              0             -511.32802      1049.4184     -2072.3041      0             -41.65846       0              0              9.149153       9.6943152      0.2            88.694773    
     49300   0.20919407     0.0013712688   0.0013712688   0              0              496.46892      393.52935      599.22616      0             -191.34558      0              0              9.1481915      9.6888316      0.2            88.635287    
     49400   0.20668032     0.0010378963   0.0010378963   0              0              1484.9442      1576.6225      1393.0697      0              35.629502      0              0              9.1472301      9.683562       0.2            88.577769    
     49500   0.18301484     0.0010657222   0.0010657222   0              0             -923.92217     -326.73235     -1521.2849      0              420.62434      0              0              9.1462686      9.6967921      0.2            88.689465    
     49600   0.23237952     0.0011644115   0.0011644115   0              0              719.98594      1282.0864      157.70954      0              303.80225      0              0              9.1453072      9.6911252      0.2            88.628317    
     49700   0.2086977      0.0011954792   0.0011954792   0              0              973.23282      842.31579      1103.9488      0              515.50453      0              0              9.1443457      9.68306        0.2            88.545248    
     49800   0.24359646     0.001097497    0.001097497    0              0             -396.43115      294.14004     -1087.2181      0              522.83517      0              0              9.1433842      9.6982131      0.2            88.674489    
     49900   0.26514881     0.0010726278   0.0010726278   0              0              275.04423      386.0245       163.85932      0              217.94984      0              0              9.1424228      9.6918061      0.2            88.606589    
     50000   0.23949395     0.0011952546   0.0011952546   0              0              691.69374      641.35246      741.80842      0              240.60857      0              0              9.1414613      9.6904581      0.2            88.584948    
     50100   0.19507036     0.0011304527   0.0011304527   0              0             -45.239769      748.68294     -839.35663      0              429.59055      0              0              9.1404999      9.6931531      0.2            88.600265    
     50200   0.26298918     0.0011567529   0.0011567529   0              0              814.95209      1564.3466      65.352925      0             -284.08131      0              0              9.1395384      9.6931196      0.2            88.590639    
     50300   0.18376594     0.0015500587   0.0015500587   0              0              1683.7471      2616.7875      750.48943      0              424.30847      0              0              9.138577       9.7003622      0.2            88.647507    
     50400   0.24738565     0.0012709625   0.0012709625   0              0              251.15033      1036.0646     -533.98088      0              145.56086      0              0              9.1376155      9.7005956      0.2            88.640313    
     50500   0.18516674     0.001234983    0.001234983    0              0              950.99724      2004.9356     -103.14747      0             -654.5741       0              0              9.1366541      9.690888       0.2            88.542291    
     50600   0.2072352      0.0014221977   0.0014221977   0              0              1456.2135      2379.2314      533.00334      0             -3.9554387      0              0              9.1356926      9.6913031      0.2            88.536766    
     50700   0.19554645     0.0013443595   0.0013443595   0              0              80.542354      620.60656     -459.73294      0             -123.93294      0              0              9.1347311      9.69996        0.2            88.606527    
     50794   0.21271601     0.0016774888   0.0016774888   0              0              97.199055      474.14447     -279.94469      0             -414.53327      0              0              9.1338274      9.7024616      0.2            88.62061     
Loop time of 1.1733 on 1 procs for 50000 steps with 62 atoms

Performance: 36819.203 ns/day, 0.001 hours/ns, 42614.818 timesteps/s
99.2% CPU use with 1 MPI tasks x 1 OpenMP threads

MPI task timing breakdown:
Section |  min time  |  avg time  |  max time  |%varavg| %total
---------------------------------------------------------------
Pair    | 0          | 0          | 0          |   0.0 |  0.00
Bond    | 0.1791     | 0.1791     | 0.1791     |   0.0 | 15.26
Neigh   | 0          | 0          | 0          |   0.0 |  0.00
Comm    | 0.39249    | 0.39249    | 0.39249    |   0.0 | 33.45
Output  | 0.0068772  | 0.0068772  | 0.0068772  |   0.0 |  0.59
Modify  | 0.56751    | 0.56751    | 0.56751    |   0.0 | 48.37
Other   |            | 0.02732    |            |       |  2.33

Nlocal:             62 ave          62 max          62 min
Histogram: 1 0 0 0 0 0 0 0 0 0
Nghost:            538 ave         538 max         538 min
Histogram: 1 0 0 0 0 0 0 0 0 0
Neighs:              0 ave           0 max           0 min
Histogram: 1 0 0 0 0 0 0 0 0 0

Total # of neighbors = 0
Ave neighs/atom = 0
Ave special neighs/atom = 22.645161
Neighbor list builds = 0
Dangerous builds = 0


Total wall time: 0:00:01
