LAMMPS data file via write_data, version 23 Jun 2022, timestep = 10000

80 atoms
4 atom types

-4.825390566323229 4.825390566323229 xlo xhi
-4.825390566323229 4.825390566323229 ylo yhi
-0.1 0.1 zlo zhi

Atoms # sphere

56 3 1 1 -4.59169675966058 -3.8798171789122526 0 0 1 0
20 1 1.6 0.2441406249999999 -3.7559388562198093 4.808916648833604 0 1 0 0
49 3 1 1 -2.327355697444299 -4.030020144195894 0 0 1 0
58 3 1 1 -1.3728488234015002 -4.650490100261767 0 0 0 0
78 4 0.7 2.915451895043732 0.09291074443252167 -4.133043273025461 0 0 0 0
71 4 0.7 2.915451895043732 0.7612970938293122 -4.43119375668189 0 0 0 0
64 4 0.7 2.915451895043732 2.107631007869492 -4.369133425414343 0 -1 1 0
50 3 1 1 2.8249306592481354 -3.6758197385806213 0 0 0 0
59 3 1 1 3.8689377346263996 -3.9686609553517123 0 0 0 0
30 2 1.3 0.4551661356395083 -4.282563826766414 -2.590715672016749 0 1 0 0
31 2 1.3 0.4551661356395083 -3.4911518789364018 -3.4893228443992905 0 1 0 0
1 1 1.6 0.2441406249999999 -2.224751088444744 -2.8501854399679702 0 1 0 0
12 1 1.6 0.2441406249999999 -1.0762605341503804 -3.5352830409697327 0 0 1 0
53 3 1 1 0.3090237281417876 -3.4026614951870773 0 0 0 0
9 1 1.6 0.2441406249999999 1.424156346938502 -3.4668867632230587 0 0 0 0
69 4 0.7 2.915451895043732 3.4223507342042545 -3.3988578014694126 0 -1 1 0
51 3 1 1 4.390582017092223 -3.139663653337802 0 0 1 0
75 4 0.7 2.915451895043732 -4.172739673393194 -1.5668169186579903 0 1 0 0
40 2 1.3 0.4551661356395083 -3.278462517292798 -1.9657912328936344 0 0 0 0
80 4 0.7 2.915451895043732 -1.281718484218394 -2.457872596033354 0 0 0 0
24 2 1.3 0.4551661356395083 -0.37907665300257865 -2.5590738545656526 0 0 0 0
43 3 1 1 0.8392456254617153 -2.591054921545721 0 0 0 0
47 3 1 1 1.7617650925750974 -2.1768654454752614 0 0 0 0
55 3 1 1 2.513527734702193 -2.8085229649348866 0 0 0 0
66 4 0.7 2.915451895043732 3.2910330524989693 -2.692934773968549 0 0 1 0
14 1 1.6 0.2441406249999999 4.157417868159374 -1.9370350358929014 0 -1 0 0
74 4 0.7 2.915451895043732 -4.2714390089732985 -0.960125339699506 0 1 1 0
41 3 1 1 4.599181836094033 -0.925204075289086 0 -1 0 0
79 4 0.7 2.915451895043732 -3.5374545838462983 -0.9823999137332886 0 0 0 0
7 1 1.6 0.2441406249999999 -2.1426052850844695 -1.2840104988982661 0 0 0 0
11 1 1.6 0.2441406249999999 -0.6240200615915112 -1.3389373701811316 0 0 0 0
19 1 1.6 0.2441406249999999 0.8713038038951213 -1.4233231559580037 0 0 0 0
76 4 0.7 2.915451895043732 1.771648129917974 -1.0461714535307816 0 0 -1 0
61 4 0.7 2.915451895043732 1.6113003826983778 -0.39314898356508365 0 0 0 0
10 1 1.6 0.2441406249999999 2.7012310600089524 -1.5130346396394603 0 0 0 0
62 4 0.7 2.915451895043732 -4.511088536424575 -0.32484493721816765 0 1 0 0
25 2 1.3 0.4551661356395083 -4.24117814494669 0.5323070328803139 0 1 0 0
67 4 0.7 2.915451895043732 -4.007617189170204 -0.37717642488712766 0 0 0 0
4 1 1.6 0.2441406249999999 -2.986197230229865 -0.006753539803036723 0 1 0 0
54 3 1 1 -1.8178311003277416 -0.09470544448490426 0 0 0 0
33 2 1.3 0.4551661356395083 -0.6503543177270696 -0.09819561637992358 0 0 0 0
28 2 1.3 0.4551661356395083 0.4720572424583471 -0.15814862432013754 0 0 0 0
60 3 1 1 2.2405914647885874 -0.2042943669206121 0 0 0 0
13 1 1.6 0.2441406249999999 3.4683503291644 -0.3327207095835325 0 0 0 0
45 3 1 1 4.474006513195224 -0.02043086759829027 0 0 0 0
42 3 1 1 -4.586529330443506 1.6232629604863869 0 0 0 0
37 2 1.3 0.4551661356395083 -3.4567085757614544 1.3162360248822056 0 0 0 0
68 4 0.7 2.915451895043732 -2.380279560507973 1.0491917714669956 0 0 0 0
26 2 1.3 0.4551661356395083 -1.3825248394095806 0.8599703474063212 0 0 0 0
34 2 1.3 0.4551661356395083 -0.0469653917783992 0.981334010457144 0 0 0 0
46 3 1 1 0.9371411626961281 1.4827370229925316 0 0 0 0
35 2 1.3 0.4551661356395083 1.31081150511051 0.5264811401448357 0 0 0 0
15 1 1.6 0.2441406249999999 2.631349435439077 0.9951595705184486 0 0 0 0
39 2 1.3 0.4551661356395083 4.152623644056703 0.9248464706152983 0 0 0 0
2 1 1.6 0.2441406249999999 -3.7951773244982165 2.5958190191052584 0 0 0 0
36 2 1.3 0.4551661356395083 -2.0728165204906386 1.8340513768579223 0 0 0 0
6 1 1.6 0.2441406249999999 -0.7547679513823775 2.1063172905588976 0 0 0 0
77 4 0.7 2.915451895043732 0.2753913357416522 1.7639432389839644 0 0 0 0
29 2 1.3 0.4551661356395083 1.5158192802693806 2.458294673964777 0 0 0 0
73 4 0.7 2.915451895043732 1.7178707415830106 1.6089208423466328 0 -1 0 0
16 1 1.6 0.2441406249999999 3.0059256619850503 2.4358288192726185 0 0 0 0
70 4 0.7 2.915451895043732 3.6422938316229683 1.5210278423408754 0 -1 -1 0
23 2 1.3 0.4551661356395083 4.350407244740985 2.310495187790808 0 -1 0 0
21 2 1.3 0.4551661356395083 -4.549447686198822 3.5520923233532944 0 0 0 0
65 4 0.7 2.915451895043732 -2.9620571335416708 3.2294306418031944 0 0 0 0
63 4 0.7 2.915451895043732 -2.7838315555149284 2.6040211325286338 0 1 0 0
8 1 1.6 0.2441406249999999 -1.8742269337586888 3.2589535953841064 0 0 -1 0
38 2 1.3 0.4551661356395083 -0.40604730029164493 3.4501828159387724 0 0 0 0
57 3 1 1 0.46488873004979947 2.602948680788285 0 0 0 0
5 1 1.6 0.2441406249999999 0.9100545673828524 3.734035960575664 0 0 0 0
27 2 1.3 0.4551661356395083 2.2869203280020303 3.6225834370123557 0 0 -1 0
18 1 1.6 0.2441406249999999 3.780743561013985 3.4914692542189147 0 0 0 0
44 3 1 1 -3.47368144411306 3.753850420696697 0 0 0 0
22 2 1.3 0.4551661356395083 -2.3975565733396356 4.553938244315333 0 0 0 0
52 3 1 1 -1.0329697499954267 4.212949150449949 0 0 -1 0
32 2 1.3 0.4551661356395083 -0.03187160326351712 4.711647390347149 0 0 -1 0
72 4 0.7 2.915451895043732 1.1791399197755306 -4.728889265516521 0 0 1 0
48 3 1 1 1.8455187750742077 4.594000846969179 0 0 -1 0
17 1 1.6 0.2441406249999999 2.9973222675474105 4.767935913165767 0 0 -1 0
3 1 1.6 0.2441406249999999 4.450519075918432 4.764371589089075 0 -1 0 0

Velocities

56 0.010461719118304038 0.17583373170795882 0 0 0 0
20 0.13081893443755221 0.20070972043326482 0 0 0 0
49 0.10019089867261892 -0.06855400436447388 0 0 0 0
58 -0.22406690700454573 0.01485954638139614 0 0 0 0
78 -0.14913294788686682 0.026867897654339053 0 0 0 0
71 0.024538046849906354 -0.05715634685907553 0 0 0 0
64 0.18852943486889717 -0.017212569274546133 0 0 0 0
50 -0.14773660362196134 0.04003810279383544 0 0 0 0
59 0.13225236309513583 0.1207170284674924 0 0 0 0
30 -0.03853849220234974 -0.0501829715889142 0 0 0 0
31 0.1700798656023143 0.018169162818161794 0 0 0 0
1 0.05824002402104509 -0.09197633244281721 0 0 0 0
12 -0.008406729508679791 -0.047375592103794474 0 0 0 0
53 0.13812278695496208 0.03667636506383951 0 0 0 0
9 0.025802971928066337 -0.04710695167106694 0 0 0 0
69 0.14293674905354076 0.16910780020381025 0 0 0 0
51 -0.11312662610649679 0.1462848535162052 0 0 0 0
75 0.1294663384589686 0.010955054174417169 0 0 0 0
40 -0.10166317390801391 -0.04851878250574815 0 0 0 0
80 0.17856820548144942 0.07076235322296089 0 0 0 0
24 -0.17642069657009057 0.029906655163462963 0 0 0 0
43 -0.05043182188319791 0.04588996657679893 0 0 0 0
47 0.11119406134285315 -0.2244217299570483 0 0 0 0
55 -0.21835453869822585 -0.032926250811356056 0 0 0 0
66 -0.043348243877770365 0.0861278309483982 0 0 0 0
14 0.013251739736659935 0.04552351458151936 0 0 0 0
74 -0.06501923930048538 -0.012094154409987986 0 0 0 0
41 -0.15897812208963252 -0.21957816469235136 0 0 0 0
79 -0.057639222820059816 -0.00614947176355056 0 0 0 0
7 0.007638282215357785 -0.06414476301337556 0 0 0 0
11 -0.014443764691465648 0.08821614997636537 0 0 0 0
19 0.0021818625287766216 0.04050506336252233 0 0 0 0
76 0.10285006970021897 0.12110290870040015 0 0 0 0
61 -0.15825849501898476 0.10386283127942073 0 0 0 0
10 -0.03527224187814018 -0.2063161837142547 0 0 0 0
62 0.04195490500827881 -0.2549858988326356 0 0 0 0
25 -0.06819242989377833 -0.11199657589942971 0 0 0 0
67 -0.026699794385334413 0.00658857756425868 0 0 0 0
4 -0.02616885347930402 0.02724420886434135 0 0 0 0
54 0.014114823800392215 0.039696635456288244 0 0 0 0
33 -0.08736547251677046 0.10349295041157001 0 0 0 0
28 0.02086315701364823 0.07454202833608944 0 0 0 0
60 0.005507754303546127 0.12195781612599545 0 0 0 0
13 -0.10415824030926117 -0.10211923256635319 0 0 0 0
45 0.04076055330610408 0.1939950275703604 0 0 0 0
42 -0.11471377671823811 -0.15433677143265723 0 0 0 0
37 0.11088570641947347 -0.07300668920182858 0 0 0 0
68 0.024940439326979865 -0.025089311384330733 0 0 0 0
26 0.08836205733492698 0.1667513162941128 0 0 0 0
34 -0.07254443613467774 -0.04446575890408115 0 0 0 0
46 0.055729899714714884 -0.17391902586198735 0 0 0 0
35 -0.1107602969615686 -0.22559737953806705 0 0 0 0
15 0.16520516003653019 0.06346241741996288 0 0 0 0
39 0.023524715977211934 0.14595948795287386 0 0 0 0
2 0.011253623648492896 0.1734579818390977 0 0 0 0
36 -0.06761355982258606 0.0764721448615827 0 0 0 0
6 0.10103129741749829 -0.055651304818647204 0 0 0 0
77 0.25534294767752225 -0.13119359780545103 0 0 0 0
29 -0.06061451115307415 0.12340004064097243 0 0 0 0
73 -0.06539134225744667 -0.041267999107354514 0 0 0 0
16 -0.05722975136007599 -0.031149832297618935 0 0 0 0
70 -0.09053136704996159 -0.05035629044812375 0 0 0 0
23 0.014734472967795233 -0.020874933888417452 0 0 0 0
21 0.04315930711363741 -0.19216844707669492 0 0 0 0
65 0.23151622876023326 -0.08566801497725707 0 0 0 0
63 0.1381257765849706 -0.026277977973943628 0 0 0 0
8 -0.05878080653441702 -0.25473726557303755 0 0 0 0
38 -0.07417171747148234 0.030537886814270193 0 0 0 0
57 0.020323074784228925 -0.0037591504776840526 0 0 0 0
5 -0.03136822135403838 0.12686505954494603 0 0 0 0
27 -0.11807850845241319 -0.00788262698400921 0 0 0 0
18 0.017977986515572426 0.14329922891679342 0 0 0 0
44 0.12056098791809867 0.13589633476199883 0 0 0 0
22 -0.01649161100096264 0.015375061634602484 0 0 0 0
52 -0.034125107662185974 -0.10482793902772752 0 0 0 0
32 -0.05956036007716335 -0.16735916087458572 0 0 0 0
72 -0.09873617584540362 0.00338035976216286 0 0 0 0
48 -0.09269339646891489 -0.019620303768473582 0 0 0 0
17 0.1588631573676231 0.09018350092288667 0 0 0 0
3 -0.07503478308807907 0.09735115517103293 0 0 0 0
