ITEM: TIMESTEP
0
ITEM: NUMBER OF ATOMS
80
ITEM: BOX BOUNDS pp pp pp
-1.0000000000000000e+01 1.0000000000000000e+01
-1.0000000000000000e+01 1.0000000000000000e+01
-1.0000000000000001e-01 1.0000000000000001e-01
ITEM: ATOMS id type xs ys zs
70 4 0.00743823 0.0142902 0.5
7 1 0.319214 0.0249952 0.5
32 2 0.335934 0.0478762 0.5
71 4 0.457133 0.0400755 0.5
27 2 0.909385 0.0370734 0.5
48 3 0.493607 0.0549266 0.5
40 2 0.197902 0.14189 0.5
78 4 0.296313 0.132866 0.5
25 2 0.987871 0.145089 0.5
9 1 0.409065 0.161614 0.5
35 2 0.76267 0.18792 0.5
76 4 0.761895 0.161695 0.5
75 4 0.930458 0.206634 0.5
58 3 0.0580843 0.222342 0.5
52 3 0.192969 0.226775 0.5
67 4 0.287631 0.219681 0.5
8 1 0.364327 0.244948 0.5
24 2 0.327498 0.257419 0.5
42 3 0.343503 0.259991 0.5
79 4 0.607499 0.23455 0.5
45 3 0.935578 0.252946 0.5
60 3 0.923736 0.238495 0.5
2 1 0.172862 0.297354 0.5
11 1 0.28841 0.307648 0.5
80 4 0.327024 0.296843 0.5
37 2 0.403956 0.286182 0.5
59 3 0.487315 0.295774 0.5
62 4 0.803789 0.280438 0.5
69 4 0.238552 0.35151 0.5
56 3 0.364571 0.342381 0.5
55 3 0.594773 0.358019 0.5
17 1 0.725849 0.343926 0.5
29 2 0.106468 0.408326 0.5
50 3 0.461974 0.399449 0.5
10 1 0.727756 0.38988 0.5
28 2 0.809449 0.417165 0.5
65 4 0.451565 0.460327 0.5
43 3 0.510292 0.46962 0.5
31 2 0.896499 0.462645 0.5
19 1 0.506663 0.482129 0.5
47 3 0.591152 0.490209 0.5
68 4 0.657612 0.491497 0.5
30 2 0.741208 0.480563 0.5
1 1 0.840989 0.50322 0.5
18 1 0.913281 0.515022 0.5
61 4 0.958916 0.493935 0.5
14 1 0.273251 0.531936 0.5
6 1 0.674096 0.535788 0.5
63 4 0.502686 0.638025 0.5
13 1 0.715216 0.639804 0.5
39 2 0.975527 0.680843 0.5
77 4 0.523394 0.691254 0.5
16 1 0.843085 0.725865 0.5
74 4 0.875569 0.689096 0.5
4 1 0.918528 0.691712 0.5
26 2 0.118985 0.787565 0.5
53 3 0.230782 0.750029 0.5
41 3 0.471872 0.751245 0.5
46 3 0.472289 0.758616 0.5
57 3 0.530658 0.768981 0.5
3 1 0.124579 0.796347 0.5
73 4 0.118332 0.80191 0.5
23 2 0.166887 0.867215 0.5
34 2 0.201038 0.852237 0.5
54 3 0.200027 0.855585 0.5
64 4 0.169979 0.842384 0.5
72 4 0.431955 0.859853 0.5
36 2 0.532867 0.888128 0.5
21 2 0.174862 0.907376 0.5
49 3 0.162727 0.945501 0.5
44 3 0.408575 0.922349 0.5
51 3 0.561073 0.945519 0.5
33 2 0.699763 0.923548 0.5
5 1 0.763785 0.93821 0.5
15 1 0.781395 0.909691 0.5
66 4 0.95097 0.946797 0.5
22 2 0.200927 0.983237 0.5
12 1 0.637471 0.979261 0.5
20 1 0.821024 0.957077 0.5
38 2 0.903966 0.95994 0.5
ITEM: TIMESTEP
10
ITEM: NUMBER OF ATOMS
80
ITEM: BOX BOUNDS pp pp pp
-9.2720928191282663e+00 9.2720928191282663e+00
-9.2720928191282663e+00 9.2720928191282663e+00
-1.0000000000000001e-01 1.0000000000000001e-01
ITEM: ATOMS id type xs ys zs
70 4 0.00743823 0.0142902 0.5
7 1 0.319117 0.0248632 0.5
32 2 0.336031 0.0480083 0.5
71 4 0.457121 0.0400705 0.5
27 2 0.909385 0.0370734 0.5
48 3 0.49362 0.0549316 0.5
40 2 0.197902 0.14189 0.5
78 4 0.296313 0.132866 0.5
25 2 0.987871 0.145089 0.5
9 1 0.409065 0.161614 0.5
35 2 0.762672 0.188008 0.5
76 4 0.761892 0.161607 0.5
75 4 0.930466 0.206596 0.5
58 3 0.0580843 0.222342 0.5
52 3 0.192969 0.226775 0.5
67 4 0.287631 0.219681 0.5
8 1 0.364523 0.24478 0.5
24 2 0.327251 0.257366 0.5
42 3 0.34354 0.260092 0.5
79 4 0.607499 0.23455 0.5
45 3 0.935651 0.253036 0.5
60 3 0.923655 0.238443 0.5
2 1 0.172862 0.297354 0.5
11 1 0.288325 0.307694 0.5
80 4 0.327083 0.296875 0.5
37 2 0.403997 0.286225 0.5
59 3 0.487315 0.295774 0.5
62 4 0.803789 0.280438 0.5
69 4 0.238552 0.35151 0.5
56 3 0.364571 0.342381 0.5
55 3 0.594773 0.358019 0.5
17 1 0.725844 0.343799 0.5
29 2 0.106468 0.408326 0.5
50 3 0.461974 0.399449 0.5
10 1 0.727761 0.390007 0.5
28 2 0.809449 0.417165 0.5
65 4 0.451565 0.460327 0.5
43 3 0.510345 0.469437 0.5
31 2 0.896493 0.462571 0.5
19 1 0.50661 0.482313 0.5
47 3 0.591152 0.490209 0.5
68 4 0.657598 0.491459 0.5
30 2 0.741208 0.480563 0.5
1 1 0.840947 0.503226 0.5
18 1 0.913303 0.515103 0.5
61 4 0.958942 0.493922 0.5
14 1 0.273251 0.531936 0.5
6 1 0.67411 0.535826 0.5
63 4 0.502686 0.638025 0.5
13 1 0.715216 0.639804 0.5
39 2 0.975582 0.680833 0.5
77 4 0.523394 0.691254 0.5
16 1 0.843062 0.725891 0.5
74 4 0.875536 0.689068 0.5
4 1 0.918528 0.691725 0.5
26 2 0.118868 0.787241 0.5
53 3 0.230782 0.750029 0.5
41 3 0.471863 0.751088 0.5
46 3 0.472298 0.758772 0.5
57 3 0.530658 0.768981 0.5
3 1 0.124837 0.79642 0.5
73 4 0.11819 0.802161 0.5
23 2 0.166684 0.867288 0.5
34 2 0.201261 0.852009 0.5
54 3 0.200084 0.85576 0.5
64 4 0.169895 0.842257 0.5
72 4 0.431955 0.859853 0.5
36 2 0.532867 0.888128 0.5
21 2 0.174891 0.907419 0.5
49 3 0.162695 0.945552 0.5
44 3 0.408575 0.922349 0.5
51 3 0.561073 0.945519 0.5
33 2 0.699736 0.923541 0.5
5 1 0.763651 0.938339 0.5
15 1 0.781441 0.909491 0.5
66 4 0.950976 0.946795 0.5
22 2 0.200939 0.983249 0.5
12 1 0.637471 0.979261 0.5
20 1 0.821141 0.957154 0.5
38 2 0.90396 0.959941 0.5
ITEM: TIMESTEP
20
ITEM: NUMBER OF ATOMS
80
ITEM: BOX BOUNDS pp pp pp
-8.3584475968580776e+00 8.3584475968580776e+00
-8.3584475968580776e+00 8.3584475968580776e+00
-1.0000000000000001e-01 1.0000000000000001e-01
ITEM: ATOMS id type xs ys zs
70 4 0.00743823 0.0142902 0.5
7 1 0.318773 0.0243922 0.5
32 2 0.336375 0.0484792 0.5
71 4 0.45706 0.0400456 0.5
27 2 0.909385 0.0370734 0.5
48 3 0.493681 0.0549565 0.5
40 2 0.197902 0.14189 0.5
78 4 0.296313 0.132866 0.5
25 2 0.987871 0.145089 0.5
9 1 0.409065 0.161614 0.5
35 2 0.762682 0.188329 0.5
76 4 0.761882 0.161286 0.5
75 4 0.930497 0.206447 0.5
58 3 0.0580843 0.222342 0.5
52 3 0.192969 0.226773 0.5
67 4 0.287627 0.219677 0.5
8 1 0.365212 0.244158 0.5
24 2 0.326391 0.257142 0.5
42 3 0.343675 0.260434 0.5
79 4 0.607499 0.23455 0.5
45 3 0.935914 0.253358 0.5
60 3 0.923362 0.23827 0.5
2 1 0.172862 0.297355 0.5
11 1 0.287988 0.307885 0.5
80 4 0.327299 0.297022 0.5
37 2 0.404159 0.286395 0.5
59 3 0.487315 0.295774 0.5
62 4 0.803789 0.280438 0.5
69 4 0.238552 0.35151 0.5
56 3 0.364571 0.342381 0.5
55 3 0.594773 0.358019 0.5
17 1 0.725824 0.343334 0.5
29 2 0.106468 0.408326 0.5
50 3 0.461974 0.399449 0.5
10 1 0.72778 0.390471 0.5
28 2 0.809449 0.417165 0.5
65 4 0.451544 0.460318 0.5
43 3 0.510532 0.46879 0.5
31 2 0.896488 0.462268 0.5
19 1 0.506444 0.482968 0.5
47 3 0.591152 0.490209 0.5
68 4 0.657542 0.491307 0.5
30 2 0.741208 0.480563 0.5
1 1 0.840739 0.503259 0.5
18 1 0.913401 0.515425 0.5
61 4 0.959056 0.493869 0.5
14 1 0.273251 0.531936 0.5
6 1 0.674167 0.535978 0.5
63 4 0.502686 0.638025 0.5
13 1 0.715216 0.639804 0.5
39 2 0.975802 0.680791 0.5
77 4 0.523394 0.691254 0.5
16 1 0.842942 0.726008 0.5
74 4 0.875415 0.688949 0.5
4 1 0.918548 0.691768 0.5
26 2 0.118455 0.786109 0.5
53 3 0.230782 0.750029 0.5
41 3 0.471832 0.750539 0.5
46 3 0.472329 0.759321 0.5
57 3 0.530658 0.768981 0.5
3 1 0.125746 0.796671 0.5
73 4 0.117692 0.803038 0.5
23 2 0.165939 0.867546 0.5
34 2 0.20208 0.851189 0.5
54 3 0.200318 0.856344 0.5
64 4 0.169576 0.841796 0.5
72 4 0.431955 0.859853 0.5
36 2 0.532865 0.888125 0.5
21 2 0.17498 0.907624 0.5
49 3 0.162558 0.945732 0.5
44 3 0.408575 0.922349 0.5
51 3 0.561074 0.945522 0.5
33 2 0.699607 0.923511 0.5
5 1 0.763179 0.938803 0.5
15 1 0.781591 0.908757 0.5
66 4 0.951022 0.946782 0.5
22 2 0.200999 0.983308 0.5
12 1 0.637471 0.979262 0.5
20 1 0.821591 0.957454 0.5
38 2 0.903915 0.959954 0.5
ITEM: TIMESTEP
30
ITEM: NUMBER OF ATOMS
80
ITEM: BOX BOUNDS pp pp pp
-7.6900698511939583e+00 7.6900698511939583e+00
-7.6900698511939583e+00 7.6900698511939583e+00
-1.0000000000000001e-01 1.0000000000000001e-01
ITEM: ATOMS id type xs ys zs
70 4 0.00743823 0.0142902 0.5
7 1 0.318109 0.0234835 0.5
32 2 0.337039 0.0493879 0.5
71 4 0.456909 0.039984 0.5
27 2 0.909386 0.0370834 0.5
48 3 0.493832 0.0550181 0.5
40 2 0.197902 0.14189 0.5
78 4 0.296313 0.132866 0.5
25 2 0.987871 0.145089 0.5
9 1 0.409076 0.161594 0.5
35 2 0.7627 0.188959 0.5
76 4 0.761864 0.160656 0.5
75 4 0.930561 0.206109 0.5
58 3 0.0580843 0.222342 0.5
52 3 0.192979 0.22674 0.5
67 4 0.287591 0.219641 0.5
8 1 0.366524 0.242909 0.5
24 2 0.324789 0.256654 0.5
42 3 0.343948 0.261042 0.5
79 4 0.607499 0.23455 0.5
45 3 0.936424 0.254002 0.5
60 3 0.922787 0.237964 0.5
2 1 0.172852 0.297389 0.5
11 1 0.28727 0.308316 0.5
80 4 0.327714 0.297385 0.5
37 2 0.404527 0.286762 0.5
59 3 0.487315 0.295774 0.5
62 4 0.803789 0.280438 0.5
69 4 0.238535 0.351526 0.5
56 3 0.364566 0.342388 0.5
55 3 0.594773 0.358019 0.5
17 1 0.725786 0.342414 0.5
29 2 0.106468 0.408326 0.5
50 3 0.461974 0.399449 0.5
10 1 0.727806 0.391387 0.5
28 2 0.809461 0.417168 0.5
65 4 0.451454 0.460281 0.5
43 3 0.510888 0.467561 0.5
31 2 0.896518 0.461608 0.5
19 1 0.506178 0.484234 0.5
47 3 0.591152 0.490209 0.5
68 4 0.657419 0.490977 0.5
30 2 0.741214 0.480559 0.5
1 1 0.840223 0.503349 0.5
18 1 0.913627 0.516118 0.5
61 4 0.959316 0.493747 0.5
14 1 0.273251 0.531936 0.5
6 1 0.674283 0.536313 0.5
63 4 0.502686 0.638025 0.5
13 1 0.715216 0.639804 0.5
39 2 0.976275 0.680701 0.5
77 4 0.523394 0.691254 0.5
16 1 0.842617 0.726298 0.5
74 4 0.875176 0.688685 0.5
4 1 0.918641 0.691834 0.5
26 2 0.117658 0.783974 0.5
53 3 0.230782 0.750029 0.5
41 3 0.471772 0.749499 0.5
46 3 0.472378 0.760359 0.5
57 3 0.530669 0.768983 0.5
3 1 0.127445 0.797091 0.5
73 4 0.116735 0.804681 0.5
23 2 0.164478 0.868066 0.5
34 2 0.203711 0.849591 0.5
54 3 0.200829 0.857395 0.5
64 4 0.168961 0.840917 0.5
72 4 0.431955 0.859853 0.5
36 2 0.532848 0.88809 0.5
21 2 0.175127 0.908108 0.5
49 3 0.162247 0.946074 0.5
44 3 0.408575 0.922349 0.5
51 3 0.561091 0.945557 0.5
33 2 0.699291 0.923425 0.5
5 1 0.762287 0.939704 0.5
15 1 0.781877 0.907297 0.5
66 4 0.951155 0.946745 0.5
22 2 0.201152 0.98346 0.5
12 1 0.637451 0.979279 0.5
20 1 0.822497 0.95808 0.5
38 2 0.903816 0.959982 0.5
ITEM: TIMESTEP
40
ITEM: NUMBER OF ATOMS
80
ITEM: BOX BOUNDS pp pp pp
-7.2271118253274151e+00 7.2271118253274151e+00
-7.2271118253274151e+00 7.2271118253274151e+00
-1.0000000000000001e-01 1.0000000000000001e-01
ITEM: ATOMS id type xs ys zs
70 4 0.00743823 0.0142902 0.5
7 1 0.31707 0.0220621 0.5
32 2 0.338078 0.0508093 0.5
71 4 0.456629 0.0398703 0.5
27 2 0.90939 0.0371464 0.5
48 3 0.494111 0.0551318 0.5
40 2 0.197902 0.14189 0.5
78 4 0.296313 0.132866 0.5
25 2 0.987871 0.145089 0.5
9 1 0.409129 0.161493 0.5
35 2 0.76273 0.189958 0.5
76 4 0.761834 0.159657 0.5
75 4 0.930668 0.205508 0.5
58 3 0.0580843 0.222342 0.5
52 3 0.193012 0.226625 0.5
67 4 0.287484 0.219536 0.5
8 1 0.368538 0.240918 0.5
24 2 0.32237 0.255822 0.5
42 3 0.344386 0.261915 0.5
79 4 0.607499 0.23455 0.5
45 3 0.937231 0.255044 0.5
60 3 0.921874 0.237524 0.5
2 1 0.172819 0.297504 0.5
11 1 0.286054 0.309063 0.5
80 4 0.328362 0.298068 0.5
37 2 0.405214 0.287377 0.5
59 3 0.487315 0.295774 0.5
62 4 0.803789 0.280438 0.5
69 4 0.238462 0.35159 0.5
56 3 0.36454 0.342435 0.5
55 3 0.594773 0.358019 0.5
17 1 0.725725 0.340945 0.5
29 2 0.106468 0.408326 0.5
50 3 0.461974 0.399449 0.5
10 1 0.727789 0.392801 0.5
28 2 0.809527 0.417171 0.5
65 4 0.45125 0.460195 0.5
43 3 0.511434 0.465663 0.5
31 2 0.896613 0.460479 0.5
19 1 0.505831 0.486219 0.5
47 3 0.591156 0.490209 0.5
68 4 0.657209 0.490414 0.5
30 2 0.741265 0.480551 0.5
1 1 0.839279 0.503542 0.5
18 1 0.914025 0.517293 0.5
61 4 0.959775 0.493529 0.5
14 1 0.273251 0.531936 0.5
6 1 0.674447 0.536915 0.5
63 4 0.502686 0.638025 0.5
13 1 0.715216 0.639804 0.5
39 2 0.977078 0.680546 0.5
77 4 0.523394 0.691254 0.5
16 1 0.841985 0.726833 0.5
74 4 0.87479 0.688223 0.5
4 1 0.918855 0.691914 0.5
26 2 0.116408 0.780718 0.5
53 3 0.230782 0.750029 0.5
41 3 0.47166 0.74789 0.5
46 3 0.472415 0.761953 0.5
57 3 0.530744 0.768998 0.5
3 1 0.129991 0.797596 0.5
73 4 0.115243 0.807172 0.5
23 2 0.162174 0.868929 0.5
34 2 0.206323 0.847088 0.5
54 3 0.201697 0.858944 0.5
64 4 0.168033 0.839587 0.5
72 4 0.431955 0.859853 0.5
36 2 0.532793 0.887979 0.5
21 2 0.175328 0.908944 0.5
49 3 0.161696 0.946606 0.5
44 3 0.408575 0.922349 0.5
51 3 0.561135 0.945663 0.5
33 2 0.698705 0.923233 0.5
5 1 0.760921 0.94113 0.5
15 1 0.782354 0.904954 0.5
66 4 0.951421 0.946671 0.5
22 2 0.201451 0.983773 0.5
12 1 0.63738 0.979357 0.5
20 1 0.823919 0.959113 0.5
38 2 0.90368 0.959997 0.5
ITEM: TIMESTEP
50
ITEM: NUMBER OF ATOMS
80
ITEM: BOX BOUNDS pp pp pp
-6.9350684308242307e+00 6.9350684308242307e+00
-6.9350684308242307e+00 6.9350684308242307e+00
-1.0000000000000001e-01 1.0000000000000001e-01
ITEM: ATOMS id type xs ys zs
70 4 0.00743823 0.0142902 0.5
7 1 0.315646 0.0201129 0.5
32 2 0.339502 0.0527585 0.5
71 4 0.456199 0.039695 0.5
27 2 0.909402 0.0373051 0.5
48 3 0.494542 0.0553071 0.5
40 2 0.197902 0.14189 0.5
78 4 0.296313 0.132866 0.5
25 2 0.987871 0.145089 0.5
9 1 0.409257 0.161245 0.5
35 2 0.762771 0.191343 0.5
76 4 0.761793 0.158271 0.5
75 4 0.930827 0.204603 0.5
58 3 0.0580843 0.222342 0.5
52 3 0.19308 0.226386 0.5
67 4 0.287272 0.219322 0.5
8 1 0.371241 0.23816 0.5
24 2 0.319148 0.254601 0.5
42 3 0.345 0.263034 0.5
79 4 0.607499 0.23455 0.5
45 3 0.93835 0.256507 0.5
60 3 0.920596 0.236965 0.5
2 1 0.17275 0.297743 0.5
11 1 0.284269 0.310163 0.5
80 4 0.329252 0.29912 0.5
37 2 0.4063 0.288267 0.5
59 3 0.487315 0.295774 0.5
62 4 0.803789 0.280438 0.5
69 4 0.238298 0.351736 0.5
56 3 0.364502 0.342571 0.5
55 3 0.594773 0.358019 0.5
17 1 0.725641 0.338897 0.5
29 2 0.106468 0.408326 0.5
50 3 0.461974 0.399449 0.5
10 1 0.727672 0.394679 0.5
28 2 0.809682 0.417144 0.5
65 4 0.450902 0.46004 0.5
43 3 0.512168 0.463085 0.5
31 2 0.896796 0.458826 0.5
19 1 0.505409 0.48895 0.5
47 3 0.591193 0.490211 0.5
68 4 0.656903 0.489589 0.5
30 2 0.741399 0.480563 0.5
1 1 0.837852 0.503894 0.5
18 1 0.914618 0.519012 0.5
61 4 0.96046 0.493195 0.5
14 1 0.273251 0.531936 0.5
6 1 0.674629 0.537835 0.5
63 4 0.502686 0.638025 0.5
13 1 0.715219 0.63981 0.5
39 2 0.978256 0.680319 0.5
77 4 0.523394 0.691254 0.5
16 1 0.84098 0.727661 0.5
74 4 0.874244 0.687534 0.5
4 1 0.919228 0.692003 0.5
26 2 0.114683 0.776366 0.5
53 3 0.230782 0.750029 0.5
41 3 0.471473 0.745698 0.5
46 3 0.472402 0.764105 0.5
57 3 0.530944 0.769039 0.5
3 1 0.133308 0.798051 0.5
73 4 0.113205 0.810479 0.5
23 2 0.158993 0.870163 0.5
34 2 0.209986 0.843685 0.5
54 3 0.202953 0.860964 0.5
64 4 0.166835 0.837847 0.5
72 4 0.431955 0.859853 0.5
36 2 0.532685 0.887759 0.5
21 2 0.175587 0.910135 0.5
49 3 0.160857 0.947353 0.5
44 3 0.408575 0.922349 0.5
51 3 0.56119 0.94586 0.5
33 2 0.6978 0.92289 0.5
5 1 0.759092 0.943115 0.5
15 1 0.78305 0.901671 0.5
66 4 0.95185 0.946551 0.5
22 2 0.201937 0.984315 0.5
12 1 0.637254 0.979545 0.5
20 1 0.825842 0.960585 0.5
38 2 0.903535 0.959963 0.5
ITEM: TIMESTEP
60
ITEM: NUMBER OF ATOMS
80
ITEM: BOX BOUNDS pp pp pp
-6.7587645544522044e+00 6.7587645544522044e+00
-6.7587645544522044e+00 6.7587645544522044e+00
-1.0000000000000001e-01 1.0000000000000001e-01
ITEM: ATOMS id type xs ys zs
70 4 0.00743823 0.0142902 0.5
7 1 0.313856 0.0176636 0.5
32 2 0.341292 0.0552078 0.5
71 4 0.455609 0.0394547 0.5
27 2 0.909423 0.0375878 0.5
48 3 0.495132 0.0555474 0.5
40 2 0.197902 0.14189 0.5
78 4 0.296313 0.132866 0.5
25 2 0.987871 0.145089 0.5
9 1 0.409486 0.160792 0.5
35 2 0.762823 0.193099 0.5
76 4 0.761741 0.156516 0.5
75 4 0.931046 0.203391 0.5
58 3 0.0580843 0.222342 0.5
52 3 0.19319 0.225999 0.5
67 4 0.28693 0.218964 0.5
8 1 0.374543 0.234701 0.5
24 2 0.315211 0.252993 0.5
42 3 0.345782 0.264372 0.5
79 4 0.607499 0.23455 0.5
45 3 0.939771 0.258371 0.5
60 3 0.918954 0.236313 0.5
2 1 0.172617 0.298128 0.5
11 1 0.281944 0.3116 0.5
80 4 0.330375 0.300528 0.5
37 2 0.407796 0.289433 0.5
59 3 0.487327 0.295775 0.5
62 4 0.803789 0.280438 0.5
69 4 0.238014 0.351991 0.5
56 3 0.364469 0.342845 0.5
55 3 0.594773 0.358019 0.5
17 1 0.725536 0.336287 0.5
29 2 0.106468 0.408326 0.5
50 3 0.461974 0.399448 0.5
10 1 0.727411 0.396948 0.5
28 2 0.809955 0.41706 0.5
65 4 0.450397 0.459806 0.5
43 3 0.513073 0.459871 0.5
31 2 0.897077 0.456646 0.5
19 1 0.504915 0.492397 0.5
47 3 0.591286 0.490213 0.5
68 4 0.656498 0.488498 0.5
30 2 0.741609 0.480617 0.5
1 1 0.835965 0.504446 0.5
18 1 0.915406 0.521288 0.5
61 4 0.961379 0.492733 0.5
14 1 0.273251 0.531936 0.5
6 1 0.674799 0.539068 0.5
63 4 0.502686 0.638025 0.5
13 1 0.715236 0.639853 0.5
39 2 0.979822 0.680016 0.5
77 4 0.523394 0.691254 0.5
16 1 0.83958 0.728798 0.5
74 4 0.873535 0.686603 0.5
4 1 0.919771 0.6921 0.5
26 2 0.112501 0.771038 0.5
53 3 0.230782 0.750029 0.5
41 3 0.4712 0.742954 0.5
46 3 0.472315 0.766776 0.5
57 3 0.531303 0.769111 0.5
3 1 0.13726 0.798316 0.5
73 4 0.110659 0.814503 0.5
23 2 0.154966 0.871738 0.5
34 2 0.214651 0.839473 0.5
54 3 0.20459 0.863397 0.5
64 4 0.165449 0.835791 0.5
72 4 0.431955 0.859853 0.5
36 2 0.532513 0.887408 0.5
21 2 0.175925 0.911638 0.5
49 3 0.159704 0.948342 0.5
44 3 0.408575 0.922349 0.5
51 3 0.561237 0.946155 0.5
33 2 0.696563 0.922358 0.5
5 1 0.756848 0.945655 0.5
15 1 0.783969 0.897479 0.5
66 4 0.952457 0.946381 0.5
22 2 0.202638 0.985122 0.5
12 1 0.637076 0.979879 0.5
20 1 0.828202 0.962486 0.5
38 2 0.903411 0.959854 0.5
ITEM: TIMESTEP
70
ITEM: NUMBER OF ATOMS
80
ITEM: BOX BOUNDS pp pp pp
-6.6778577050392567e+00 6.6778577050392567e+00
-6.6778577050392567e+00 6.6778577050392567e+00
-1.0000000000000001e-01 1.0000000000000001e-01
ITEM: ATOMS id type xs ys zs
70 4 0.00743823 0.0142902 0.5
7 1 0.311748 0.0147784 0.5
32 2 0.3434 0.058093 0.5
71 4 0.454866 0.0391522 0.5
27 2 0.909455 0.0380073 0.5
48 3 0.495875 0.0558499 0.5
40 2 0.197903 0.141884 0.5
78 4 0.296313 0.132866 0.5
25 2 0.987871 0.145089 0.5
9 1 0.409833 0.160091 0.5
35 2 0.762884 0.195183 0.5
76 4 0.76168 0.154432 0.5
75 4 0.931333 0.201902 0.5
58 3 0.0580843 0.222342 0.5
52 3 0.193345 0.225461 0.5
67 4 0.286442 0.218432 0.5
8 1 0.378296 0.230683 0.5
24 2 0.310699 0.251049 0.5
42 3 0.346711 0.265896 0.5
79 4 0.607499 0.23455 0.5
45 3 0.941464 0.260578 0.5
60 3 0.916975 0.235596 0.5
2 1 0.17238 0.298659 0.5
11 1 0.279194 0.313326 0.5
80 4 0.331708 0.302232 0.5
37 2 0.409659 0.290857 0.5
59 3 0.487375 0.295779 0.5
62 4 0.803789 0.280438 0.5
69 4 0.237591 0.352377 0.5
56 3 0.364451 0.343282 0.5
55 3 0.594773 0.358019 0.5
17 1 0.725415 0.333175 0.5
29 2 0.106468 0.408326 0.5
50 3 0.461976 0.399437 0.5
10 1 0.726975 0.399516 0.5
28 2 0.810366 0.416887 0.5
65 4 0.449742 0.459495 0.5
43 3 0.51412 0.45611 0.5
31 2 0.897459 0.453989 0.5
19 1 0.504356 0.496479 0.5
47 3 0.591451 0.490214 0.5
68 4 0.656004 0.487161 0.5
30 2 0.74187 0.480738 0.5
1 1 0.833688 0.505217 0.5
18 1 0.916371 0.524087 0.5
61 4 0.962517 0.49214 0.5
14 1 0.273251 0.531936 0.5
6 1 0.674928 0.540574 0.5
63 4 0.502686 0.638025 0.5
13 1 0.715279 0.63996 0.5
39 2 0.981763 0.679637 0.5
77 4 0.523394 0.691254 0.5
16 1 0.837801 0.730234 0.5
74 4 0.872666 0.685437 0.5
4 1 0.920478 0.692208 0.5
26 2 0.109914 0.76493 0.5
53 3 0.230782 0.750029 0.5
41 3 0.470847 0.739733 0.5
46 3 0.472138 0.769895 0.5
57 3 0.531833 0.769214 0.5
3 1 0.141673 0.798257 0.5
73 4 0.107677 0.81908 0.5
23 2 0.150192 0.873603 0.5
34 2 0.220164 0.834615 0.5
54 3 0.206569 0.86616 0.5
64 4 0.163985 0.833551 0.5
72 4 0.431955 0.859853 0.5
36 2 0.532274 0.886922 0.5
21 2 0.176376 0.91337 0.5
49 3 0.158234 0.949584 0.5
44 3 0.408575 0.922349 0.5
51 3 0.561263 0.946547 0.5
33 2 0.695015 0.921611 0.5
5 1 0.754275 0.948711 0.5
15 1 0.785093 0.892484 0.5
66 4 0.953244 0.946163 0.5
22 2 0.203558 0.986208 0.5
12 1 0.636851 0.980382 0.5
20 1 0.83089 0.964769 0.5
38 2 0.90334 0.959648 0.5
ITEM: TIMESTEP
80
ITEM: NUMBER OF ATOMS
80
ITEM: BOX BOUNDS pp pp pp
-6.6782763182125242e+00 6.6782763182125242e+00
-6.6782763182125242e+00 6.6782763182125242e+00
-1.0000000000000001e-01 1.0000000000000001e-01
ITEM: ATOMS id type xs ys zs
70 4 0.00743823 0.0142902 0.5
7 1 0.309392 0.0115547 0.5
32 2 0.345756 0.0613167 0.5
71 4 0.453991 0.0387961 0.5
27 2 0.909503 0.0385659 0.5
48 3 0.496749 0.056206 0.5
40 2 0.197904 0.141862 0.5
78 4 0.296313 0.132866 0.5
25 2 0.987871 0.145089 0.5
9 1 0.410303 0.159116 0.5
35 2 0.762953 0.197525 0.5
76 4 0.761611 0.15209 0.5
75 4 0.931691 0.200197 0.5
58 3 0.0580843 0.222342 0.5
52 3 0.19354 0.224794 0.5
67 4 0.285809 0.217706 0.5
8 1 0.38233 0.226298 0.5
24 2 0.305795 0.248862 0.5
42 3 0.34775 0.267557 0.5
79 4 0.607499 0.23455 0.5
45 3 0.943373 0.263033 0.5
60 3 0.914707 0.234846 0.5
2 1 0.17201 0.299319 0.5
11 1 0.276173 0.315274 0.5
80 4 0.333209 0.304136 0.5
37 2 0.411809 0.292501 0.5
59 3 0.487481 0.295787 0.5
62 4 0.803789 0.280438 0.5
69 4 0.237025 0.352912 0.5
56 3 0.36445 0.343888 0.5
55 3 0.594773 0.358019 0.5
17 1 0.725283 0.32966 0.5
29 2 0.106468 0.408326 0.5
50 3 0.461982 0.399411 0.5
10 1 0.726355 0.402273 0.5
28 2 0.810911 0.416607 0.5
65 4 0.448961 0.459119 0.5
43 3 0.51527 0.451932 0.5
31 2 0.897939 0.450955 0.5
19 1 0.503747 0.501063 0.5
47 3 0.591686 0.49021 0.5
68 4 0.655437 0.485618 0.5
30 2 0.742154 0.480943 0.5
1 1 0.831128 0.506197 0.5
18 1 0.917475 0.527327 0.5
61 4 0.963838 0.491423 0.5
14 1 0.273251 0.531936 0.5
6 1 0.674998 0.542294 0.5
63 4 0.502686 0.638025 0.5
13 1 0.715354 0.640147 0.5
39 2 0.984036 0.679191 0.5
77 4 0.523394 0.691254 0.5
16 1 0.835698 0.731928 0.5
74 4 0.871654 0.684062 0.5
4 1 0.921321 0.692335 0.5
26 2 0.107007 0.758297 0.5
53 3 0.230783 0.750019 0.5
41 3 0.470434 0.736147 0.5
46 3 0.471868 0.773358 0.5
57 3 0.532517 0.769337 0.5
3 1 0.146365 0.797784 0.5
73 4 0.10436 0.823986 0.5
23 2 0.144842 0.875686 0.5
34 2 0.226274 0.829351 0.5
54 3 0.20881 0.86914 0.5
64 4 0.162555 0.831288 0.5
72 4 0.431955 0.859853 0.5
36 2 0.531974 0.886308 0.5
21 2 0.176979 0.915218 0.5
49 3 0.156464 0.951065 0.5
44 3 0.408575 0.922349 0.5
51 3 0.561257 0.947025 0.5
33 2 0.693213 0.920634 0.5
5 1 0.751479 0.952203 0.5
15 1 0.786378 0.886869 0.5
66 4 0.954193 0.9459 0.5
22 2 0.204685 0.987551 0.5
12 1 0.63659 0.981057 0.5
20 1 0.833762 0.967346 0.5
38 2 0.90335 0.959337 0.5
ITEM: TIMESTEP
90
ITEM: NUMBER OF ATOMS
80
ITEM: BOX BOUNDS pp pp pp
-6.7382119509428966e+00 6.7382119509428966e+00
-6.7382119509428966e+00 6.7382119509428966e+00
-1.0000000000000001e-01 1.0000000000000001e-01
ITEM: ATOMS id type xs ys zs
70 4 0.00743823 0.0142902 0.5
7 1 0.30688 0.00810676 0.5
32 2 0.348277 0.0647667 0.5
71 4 0.453015 0.0383987 0.5
27 2 0.909584 0.039261 0.5
48 3 0.497725 0.0566034 0.5
40 2 0.197906 0.14182 0.5
78 4 0.296313 0.132866 0.5
25 2 0.987871 0.145089 0.5
9 1 0.410891 0.157855 0.5
35 2 0.763028 0.200044 0.5
76 4 0.761536 0.14957 0.5
75 4 0.93212 0.198352 0.5
58 3 0.0580843 0.222342 0.5
52 3 0.19377 0.224025 0.5
67 4 0.285044 0.21677 0.5
8 1 0.386478 0.221746 0.5
24 2 0.3007 0.246556 0.5
42 3 0.348853 0.2693 0.5
79 4 0.607499 0.23455 0.5
45 3 0.945433 0.265633 0.5
60 3 0.912219 0.23409 0.5
2 1 0.171502 0.300078 0.5
11 1 0.273054 0.317359 0.5
80 4 0.334804 0.306149 0.5
37 2 0.414152 0.294311 0.5
59 3 0.487655 0.295797 0.5
62 4 0.803789 0.280438 0.5
69 4 0.236319 0.353599 0.5
56 3 0.364457 0.344647 0.5
55 3 0.594773 0.358019 0.5
17 1 0.725148 0.325858 0.5
29 2 0.106468 0.408326 0.5
50 3 0.461989 0.399367 0.5
10 1 0.725554 0.405109 0.5
28 2 0.81157 0.416221 0.5
65 4 0.448093 0.458693 0.5
43 3 0.516483 0.447486 0.5
31 2 0.898503 0.44767 0.5
19 1 0.503105 0.50599 0.5
47 3 0.591976 0.490199 0.5
68 4 0.654817 0.483922 0.5
30 2 0.742442 0.481239 0.5
1 1 0.828404 0.507351 0.5
18 1 0.918676 0.530894 0.5
61 4 0.965293 0.490599 0.5
14 1 0.273251 0.531936 0.5
6 1 0.675 0.54416 0.5
63 4 0.502686 0.638025 0.5
13 1 0.715465 0.64042 0.5
39 2 0.986583 0.678687 0.5
77 4 0.523394 0.691254 0.5
16 1 0.833351 0.733821 0.5
74 4 0.870519 0.682519 0.5
4 1 0.922255 0.69249 0.5
26 2 0.103877 0.751413 0.5
53 3 0.230791 0.749962 0.5
41 3 0.469988 0.732325 0.5
46 3 0.471515 0.77705 0.5
57 3 0.533316 0.769466 0.5
3 1 0.151179 0.796866 0.5
73 4 0.100823 0.82899 0.5
23 2 0.139129 0.877897 0.5
34 2 0.232686 0.823951 0.5
54 3 0.211208 0.872202 0.5
64 4 0.161255 0.829161 0.5
72 4 0.431955 0.859853 0.5
36 2 0.531621 0.885585 0.5
21 2 0.177758 0.917076 0.5
49 3 0.154432 0.952758 0.5
44 3 0.408575 0.922349 0.5
51 3 0.561217 0.947572 0.5
33 2 0.691236 0.919423 0.5
5 1 0.748585 0.956025 0.5
15 1 0.787766 0.880858 0.5
66 4 0.955279 0.945601 0.5
22 2 0.205978 0.989111 0.5
12 1 0.636293 0.981897 0.5
20 1 0.836656 0.970106 0.5
38 2 0.903465 0.958916 0.5
ITEM: TIMESTEP
100
ITEM: NUMBER OF ATOMS
80
ITEM: BOX BOUNDS pp pp pp
-6.8242263523054367e+00 6.8242263523054367e+00
-6.8242263523054367e+00 6.8242263523054367e+00
-1.0000000000000001e-01 1.0000000000000001e-01
ITEM: ATOMS id type xs ys zs
70 4 0.00743823 0.0142902 0.5
7 1 0.304309 0.00453849 0.5
32 2 0.35089 0.0683428 0.5
71 4 0.451968 0.0379725 0.5
27 2 0.909705 0.0400804 0.5
48 3 0.498772 0.0570295 0.5
40 2 0.197909 0.141758 0.5
78 4 0.296313 0.132866 0.5
25 2 0.987871 0.145089 0.5
9 1 0.411587 0.156304 0.5
35 2 0.763105 0.202667 0.5
76 4 0.761459 0.146948 0.5
75 4 0.932612 0.196417 0.5
58 3 0.0580843 0.222342 0.5
52 3 0.194026 0.223182 0.5
67 4 0.284169 0.215611 0.5
8 1 0.390609 0.217202 0.5
24 2 0.295592 0.244255 0.5
42 3 0.349975 0.271076 0.5
79 4 0.607499 0.23455 0.5
45 3 0.947584 0.268308 0.5
60 3 0.909575 0.23335 0.5
2 1 0.17086 0.300909 0.5
11 1 0.27 0.319502 0.5
80 4 0.336416 0.308193 0.5
37 2 0.416602 0.296235 0.5
59 3 0.487906 0.295809 0.5
62 4 0.803789 0.280438 0.5
69 4 0.235472 0.354436 0.5
56 3 0.364464 0.34554 0.5
55 3 0.594773 0.358019 0.5
17 1 0.725015 0.321876 0.5
29 2 0.106468 0.408326 0.5
50 3 0.461992 0.399304 0.5
10 1 0.724589 0.407934 0.5
28 2 0.812317 0.415748 0.5
65 4 0.447175 0.458235 0.5
43 3 0.517731 0.442907 0.5
31 2 0.899125 0.444257 0.5
19 1 0.502447 0.511109 0.5
47 3 0.592301 0.490181 0.5
68 4 0.654165 0.482124 0.5
30 2 0.74272 0.481625 0.5
1 1 0.825629 0.508639 0.5
18 1 0.919929 0.534673 0.5
61 4 0.966837 0.489688 0.5
14 1 0.273251 0.531936 0.5
6 1 0.674936 0.546104 0.5
63 4 0.502686 0.638025 0.5
13 1 0.715611 0.640776 0.5
39 2 0.98935 0.678135 0.5
77 4 0.523394 0.691254 0.5
16 1 0.830844 0.73585 0.5
74 4 0.869279 0.680848 0.5
4 1 0.923235 0.692684 0.5
26 2 0.100613 0.744482 0.5
53 3 0.23082 0.749815 0.5
41 3 0.469539 0.728388 0.5
46 3 0.471097 0.780866 0.5
57 3 0.534183 0.769587 0.5
3 1 0.155991 0.795535 0.5
73 4 0.0971697 0.833913 0.5
23 2 0.133219 0.880168 0.5
34 2 0.239204 0.818593 0.5
54 3 0.213672 0.875232 0.5
64 4 0.160121 0.827287 0.5
72 4 0.431955 0.859853 0.5
36 2 0.531227 0.884777 0.5
21 2 0.178707 0.918889 0.5
49 3 0.152177 0.954626 0.5
44 3 0.408575 0.922349 0.5
51 3 0.56114 0.948169 0.5
33 2 0.689163 0.917982 0.5
5 1 0.745701 0.960071 0.5
15 1 0.789197 0.874671 0.5
66 4 0.956476 0.945274 0.5
22 2 0.20738 0.990836 0.5
12 1 0.635957 0.982885 0.5
20 1 0.839436 0.972947 0.5
38 2 0.903699 0.958387 0.5
ITEM: TIMESTEP
110
ITEM: NUMBER OF ATOMS
80
ITEM: BOX BOUNDS pp pp pp
-6.8961987937405187e+00 6.8961987937405187e+00
-6.8961987937405187e+00 6.8961987937405187e+00
-1.0000000000000001e-01 1.0000000000000001e-01
ITEM: ATOMS id type xs ys zs
70 4 0.00743823 0.0142902 0.5
7 1 0.301747 0.000915908 0.5
32 2 0.353547 0.0719784 0.5
71 4 0.450874 0.0375267 0.5
27 2 0.909874 0.0410126 0.5
48 3 0.499867 0.0574753 0.5
40 2 0.197913 0.141679 0.5
78 4 0.296313 0.132866 0.5
25 2 0.987871 0.145089 0.5
9 1 0.412384 0.154453 0.5
35 2 0.763185 0.205344 0.5
76 4 0.76138 0.144271 0.5
75 4 0.933159 0.194422 0.5
58 3 0.0580843 0.222342 0.5
52 3 0.194302 0.222286 0.5
67 4 0.283209 0.214213 0.5
8 1 0.394635 0.212795 0.5
24 2 0.290579 0.242047 0.5
42 3 0.351081 0.272845 0.5
79 4 0.607499 0.23455 0.5
45 3 0.949792 0.271016 0.5
60 3 0.906821 0.232637 0.5
2 1 0.170096 0.301789 0.5
11 1 0.267114 0.321642 0.5
80 4 0.337985 0.310231 0.5
37 2 0.419097 0.298234 0.5
59 3 0.488239 0.29582 0.5
62 4 0.803789 0.280438 0.5
69 4 0.23448 0.355424 0.5
56 3 0.364472 0.346555 0.5
55 3 0.594773 0.358019 0.5
17 1 0.724885 0.317779 0.5
29 2 0.106468 0.408326 0.5
50 3 0.461984 0.399222 0.5
10 1 0.723475 0.410691 0.5
28 2 0.813133 0.415204 0.5
65 4 0.446239 0.457761 0.5
43 3 0.518999 0.438283 0.5
31 2 0.899779 0.440808 0.5
19 1 0.501786 0.516311 0.5
47 3 0.592638 0.490159 0.5
68 4 0.653492 0.480261 0.5
30 2 0.742979 0.482103 0.5
1 1 0.822886 0.510021 0.5
18 1 0.921205 0.538574 0.5
61 4 0.968437 0.48871 0.5
14 1 0.273251 0.531936 0.5
6 1 0.674809 0.548081 0.5
63 4 0.502686 0.638025 0.5
13 1 0.715791 0.641212 0.5
39 2 0.992304 0.67754 0.5
77 4 0.523394 0.691254 0.5
16 1 0.828237 0.737969 0.5
74 4 0.867945 0.67908 0.5
4 1 0.924222 0.692928 0.5
26 2 0.0972749 0.737578 0.5
53 3 0.230879 0.749545 0.5
41 3 0.469097 0.724406 0.5
46 3 0.470632 0.784742 0.5
57 3 0.53509 0.769694 0.5
3 1 0.160732 0.793846 0.5
73 4 0.093465 0.838689 0.5
23 2 0.127217 0.882465 0.5
34 2 0.245768 0.813367 0.5
54 3 0.216161 0.878174 0.5
64 4 0.159104 0.825724 0.5
72 4 0.431955 0.859853 0.5
36 2 0.530802 0.883902 0.5
21 2 0.179812 0.920636 0.5
49 3 0.149725 0.956646 0.5
44 3 0.408575 0.922349 0.5
51 3 0.561027 0.948802 0.5
33 2 0.687041 0.916314 0.5
5 1 0.742898 0.964263 0.5
15 1 0.790638 0.868464 0.5
66 4 0.957769 0.944924 0.5
22 2 0.20884 0.992692 0.5
12 1 0.635577 0.984011 0.5
20 1 0.84201 0.975799 0.5
38 2 0.904063 0.957752 0.5
ITEM: TIMESTEP
120
ITEM: NUMBER OF ATOMS
80
ITEM: BOX BOUNDS pp pp pp
-6.9219925175306836e+00 6.9219925175306836e+00
-6.9219925175306836e+00 6.9219925175306836e+00
-1.0000000000000001e-01 1.0000000000000001e-01
ITEM: ATOMS id type xs ys zs
70 4 0.00743823 0.0142902 0.5
7 1 0.299237 -0.00273885 0.5
32 2 0.356216 0.0756311 0.5
71 4 0.44974 0.0370653 0.5
27 2 0.9101 0.0420566 0.5
48 3 0.501 0.0579368 0.5
40 2 0.197918 0.141582 0.5
78 4 0.296313 0.132866 0.5
25 2 0.987871 0.145089 0.5
9 1 0.413294 0.152293 0.5
35 2 0.763265 0.208058 0.5
76 4 0.761299 0.141557 0.5
75 4 0.933757 0.192372 0.5
58 3 0.0580843 0.222342 0.5
52 3 0.194596 0.22135 0.5
67 4 0.282189 0.212549 0.5
8 1 0.398543 0.208598 0.5
24 2 0.285665 0.239968 0.5
42 3 0.352165 0.274578 0.5
79 4 0.607499 0.23455 0.5
45 3 0.952041 0.27375 0.5
60 3 0.903975 0.231953 0.5
2 1 0.169207 0.302706 0.5
11 1 0.264437 0.323751 0.5
80 4 0.339492 0.312275 0.5
37 2 0.42161 0.300291 0.5
59 3 0.488663 0.295827 0.5
62 4 0.803789 0.280438 0.5
69 4 0.233331 0.356576 0.5
56 3 0.364494 0.347693 0.5
55 3 0.594773 0.358019 0.5
17 1 0.724761 0.313587 0.5
29 2 0.106468 0.408326 0.5
50 3 0.461958 0.399121 0.5
10 1 0.722215 0.413352 0.5
28 2 0.814008 0.4146 0.5
65 4 0.445302 0.457289 0.5
43 3 0.520288 0.433647 0.5
31 2 0.900453 0.437376 0.5
19 1 0.501124 0.521542 0.5
47 3 0.592972 0.490136 0.5
68 4 0.652806 0.478346 0.5