LAMMPS data file via write_data, version 23 Jun 2022, timestep = 10000

80 atoms
4 atom types

-4.823122041236687 4.823122041236687 xlo xhi
-4.823122041236687 4.823122041236687 ylo yhi
-0.1 0.1 zlo zhi

Atoms # sphere

44 3 1 1 -4.588642349597225 -4.436565043095188 0 1 0 0
36 2 1.3 0.4551661356395083 -3.597657652635003 -4.582683360691789 0 0 0 0
28 2 1.3 0.4551661356395083 -2.423365580604639 -4.488283223278235 0 0 1 0
1 1 1.6 0.2441406249999999 -1.1432664195999265 -4.08127918231324 0 0 1 0
63 4 0.7 2.915451895043732 -0.1325625216579729 -4.582305930506025 0 0 0 0
7 1 1.6 0.2441406249999999 1.4113091622984957 -4.3043813397318145 0 -1 0 0
55 3 1 1 2.589745482752096 4.799101083475213 0 0 0 0
60 3 1 1 3.4566728582004433 -4.483038246233906 0 0 1 0
22 2 1.3 0.4551661356395083 -3.9609363100619985 -3.5422987899961664 0 0 1 0
69 4 0.7 2.915451895043732 -3.103422058606068 -3.8196379232116007 0 1 0 0
16 1 1.6 0.2441406249999999 -2.2884054260400415 -3.151486855846187 0 0 0 0
77 4 0.7 2.915451895043732 -0.4672207293471651 -3.242373793976703 0 0 1 0
40 2 1.3 0.4551661356395083 0.23674768909555421 -3.7758720056159323 0 0 1 0
70 4 0.7 2.915451895043732 0.8199420870535343 -3.0289942030975308 0 0 0 0
8 1 1.6 0.2441406249999999 2.66153731484365 -3.3636834986901527 0 -1 1 0
52 3 1 1 3.4620147410753734 -2.3891561078050123 0 -1 0 0
11 1 1.6 0.2441406249999999 4.188061314517853 -3.599151920604908 0 -1 0 0
3 1 1.6 0.2441406249999999 4.670093093715286 -2.136463896695666 0 -1 0 0
13 1 1.6 0.2441406249999999 -3.5185837609966324 -2.3472756482577313 0 0 0 0
48 3 1 1 -1.9312269274812803 -2.0268709115115753 0 0 0 0
80 4 0.7 2.915451895043732 -1.15698698676682 -3.053089684719364 0 0 0 0
74 4 0.7 2.915451895043732 -1.2078239307114482 -1.7381802598287197 0 0 0 0
23 2 1.3 0.4551661356395083 -0.5276422589389265 -2.4001694484840073 0 0 0 0
68 4 0.7 2.915451895043732 0.24198419982172048 -2.884711272660065 0 0 0 0
43 3 1 1 1.678149135093551 -2.809237789054062 0 0 0 0
46 3 1 1 0.8333628584448398 -2.3202965704178107 0 0 0 0
49 3 1 1 2.478402487751021 -2.1752801070473473 0 0 0 0
4 1 1.6 0.2441406249999999 3.439269795404183 -1.2680793092942206 0 -1 0 0
19 1 1.6 0.2441406249999999 -4.062784224793445 -0.8813241583386064 0 0 0 0
33 2 1.3 0.4551661356395083 -2.70477165016921 -1.2701957052978625 0 0 0 0
71 4 0.7 2.915451895043732 -1.7442707381800027 -1.3633309399758806 0 0 0 0
30 2 1.3 0.4551661356395083 -0.9901179781976683 -0.8611842365390623 0 0 0 0
6 1 1.6 0.2441406249999999 0.3541364438955732 -1.1700830082346045 0 0 0 0
32 2 1.3 0.4551661356395083 1.6143026222067247 -1.5115921405515818 0 0 0 0
76 4 0.7 2.915451895043732 2.4592053076961102 -1.3551882958105623 0 0 0 0
78 4 0.7 2.915451895043732 4.458026660574848 -0.7340860292474121 0 0 0 0
5 1 1.6 0.2441406249999999 -4.6695601144186325 0.41574403180951425 0 1 0 0
9 1 1.6 0.2441406249999999 -3.0257832237623745 0.2766300459613591 0 1 0 0
42 3 1 1 -2.0373734778023898 -0.46774657184003043 0 0 0 0
41 3 1 1 -1.0743690800481156 0.41847530250371445 0 0 0 0
56 3 1 1 -0.31922261497970705 -0.11956469252631408 0 0 0 0
24 2 1.3 0.4551661356395083 0.773545026149586 0.24945766736448327 0 0 0 0
12 1 1.6 0.2441406249999999 2.0174121629694204 -0.25459058731778583 0 0 0 0
79 4 0.7 2.915451895043732 2.5832703786258353 0.8450219035812365 0 0 0 0
10 1 1.6 0.2441406249999999 3.542163220857333 0.12050095707624742 0 -1 0 0
29 2 1.3 0.4551661356395083 -4.498026532135235 1.5646392456251066 0 1 0 0
72 4 0.7 2.915451895043732 -1.8530790407795759 0.334045793883881 0 0 0 0
73 4 0.7 2.915451895043732 -1.2186345143525146 1.2926858152419323 0 0 0 0
59 3 1 1 -0.6056032323217329 1.6181574855327172 0 0 0 0
65 4 0.7 2.915451895043732 -0.12946456605932166 0.6852994626161495 0 0 0 0
31 2 1.3 0.4551661356395083 0.9121468438795253 1.5395621338287837 0 0 0 0
47 3 1 1 1.8795670783293863 0.9744152897229572 0 0 0 0
75 4 0.7 2.915451895043732 3.1911453392037643 0.9558835971684578 0 0 0 0
58 3 1 1 4.063149560502387 1.2788320662040267 0 0 0 0
54 3 1 1 -3.3034021556092847 1.4744400357480743 0 0 0 0
37 2 1.3 0.4551661356395083 -2.649116251994546 2.515204111900511 0 0 -1 0
38 2 1.3 0.4551661356395083 -2.230171410101374 1.3625762974557425 0 0 0 0
50 3 1 1 -1.6615839113277922 2.8926276734551255 0 0 0 0
51 3 1 1 -1.3877600948396331 2.0661954807418477 0 0 0 0
64 4 0.7 2.915451895043732 0.1890150812494582 2.019894627804037 0 0 -1 0
35 2 1.3 0.4551661356395083 0.8211083018848608 2.714472899797845 0 0 0 0
45 3 1 1 1.827300344868723 1.9698740459901156 0 0 0 0
20 1 1.6 0.2441406249999999 3.081699967681046 1.8004032045560878 0 0 0 0
25 2 1.3 0.4551661356395083 4.36403368330326 2.3432876111704815 0 0 0 0
15 1 1.6 0.2441406249999999 -4.01461928064382 2.839815626158991 0 0 0 0
17 1 1.6 0.2441406249999999 -1.5748172355815058 4.0533026777911445 0 0 0 0
2 1 1.6 0.2441406249999999 -0.5209310771438078 2.8531819792799586 0 0 0 0
34 2 1.3 0.4551661356395083 2.513456857438178 2.864288024300749 0 -1 0 0
57 3 1 1 1.587309394360405 3.297348192100541 0 0 -1 0
62 4 0.7 2.915451895043732 3.403130110990329 2.8661294330624774 0 -1 0 0
39 2 1.3 0.4551661356395083 4.318569361462895 3.394324010824459 0 -1 0 0
26 2 1.3 0.4551661356395083 -4.233122236314311 4.192757615816221 0 1 0 0
18 1 1.6 0.2441406249999999 -2.8729782491324007 3.900285275739156 0 1 0 0
53 3 1 1 -0.7654113320091414 4.599668052813591 0 0 -1 0
61 4 0.7 2.915451895043732 -0.47611587597468663 3.751422475864249 0 0 -1 0
14 1 1.6 0.2441406249999999 0.5135019536733356 4.123933110466098 0 0 -1 0
66 4 0.7 2.915451895043732 2.215609289782548 4.054891211057422 0 0 -1 0
67 4 0.7 2.915451895043732 1.58436330918257 4.24835964436776 0 0 -1 0
27 2 1.3 0.4551661356395083 3.150335589333899 3.9660327103614375 0 0 0 0
21 2 1.3 0.4551661356395083 4.209541637382186 4.534724946204166 0 0 0 0

Velocities

44 -0.18361202668916785 -0.04858276723038175 0 0 0 0
36 -0.01571719249707384 -0.0018675526561460678 0 0 0 0
28 -0.09272691127956849 -0.00026862725013048497 0 0 0 0
1 -0.012971523613849574 -0.12914295463132208 0 0 0 0
63 0.012739453368039064 -0.2235781936228768 0 0 0 0
7 0.20920228150861436 0.03838836868116451 0 0 0 0
55 -0.09561321609327005 0.045591782922102676 0 0 0 0
60 0.19906545551724716 0.21806764008497798 0 0 0 0
22 -0.015643716843496924 -0.006357360199342721 0 0 0 0
69 0.28160404360847174 -0.010802044617508179 0 0 0 0
16 0.01566914140073709 0.07677926057780443 0 0 0 0
77 -0.13982737168834525 -0.024702861151278264 0 0 0 0
40 -0.041898296665692294 0.07426887837510782 0 0 0 0
70 0.012229376601653647 -0.15650618681944858 0 0 0 0
8 -0.1115585428749165 0.16734355304892384 0 0 0 0
52 0.1121648931998389 0.020886786451722344 0 0 0 0
11 -0.0422694240060672 -0.12535015053832949 0 0 0 0
3 0.04293303081505627 -0.15034402690218895 0 0 0 0
13 -0.23535269571843803 -0.04238069527261715 0 0 0 0
48 0.1706307138397455 -0.03577769926365821 0 0 0 0
80 -0.11032910070134115 -0.08902781586676652 0 0 0 0
74 -0.1566926836660221 0.05019285706747904 0 0 0 0
23 0.05915469138894834 0.06476530003639 0 0 0 0
68 -0.0030916067867058396 -0.1021732497415473 0 0 0 0
43 -0.12372771271199258 -0.08037249964060302 0 0 0 0
46 0.14653442083681814 -0.07622318667314723 0 0 0 0
49 0.046417045616004154 -0.056530620431878224 0 0 0 0
4 -0.06871144287217215 -0.03690196394895693 0 0 0 0
19 0.0922583134675541 -0.11241593405902274 0 0 0 0
33 -0.10627392966009877 0.15681911287212388 0 0 0 0
71 0.007650818403117 -0.10630117960914429 0 0 0 0
30 0.10542002432383143 -0.03753108738889333 0 0 0 0
6 -0.003970899385812971 0.01901279929749165 0 0 0 0
32 0.01573925126004035 -0.11938914128032742 0 0 0 0
76 0.013757615106608685 0.014455686601587577 0 0 0 0
78 -0.04382272513398084 0.057976768315770505 0 0 0 0
5 0.16937020046927712 0.10994342903538672 0 0 0 0
9 -0.20702853743923716 -0.06012668540434369 0 0 0 0
42 0.04675453054561641 -0.08168658981328564 0 0 0 0
41 0.030896103491336497 -0.12309933174694762 0 0 0 0
56 0.019128115199473442 0.11267574875385768 0 0 0 0
24 0.2536300779272404 0.01430718480085012 0 0 0 0
12 0.04584362601933859 -0.1402743120711333 0 0 0 0
79 -0.0759029479182539 0.02246835443775967 0 0 0 0
10 -0.20411269029101686 0.24371038120665875 0 0 0 0
29 0.06882911853928504 0.07214379985302391 0 0 0 0
72 0.007001660701116003 0.14810206248958493 0 0 0 0
73 -0.18336409304537796 -0.1377740826825017 0 0 0 0
59 -0.02930609157534271 -0.12197057327301065 0 0 0 0
65 -0.1480517166632085 -0.017162167057233564 0 0 0 0
31 0.11181189466517157 -0.050817317819910085 0 0 0 0
47 0.0860058558352781 0.012554580598953164 0 0 0 0
75 0.07151528736959867 0.09171693928733317 0 0 0 0
58 0.05033505189985923 0.09694730123200222 0 0 0 0
54 0.17337947478634141 -0.10673775699704346 0 0 0 0
37 -0.001756102248184694 0.11690759435697458 0 0 0 0
38 0.0960729401794906 -0.05074991314311642 0 0 0 0
50 -0.06701320638404284 0.09376841773856706 0 0 0 0
51 -0.019325559257119065 0.030209233897578 0 0 0 0
64 -0.1558889527985023 0.023925578747512735 0 0 0 0
35 0.09150889256447821 0.08514726738864889 0 0 0 0
45 0.08289388450787485 -0.005289327045197918 0 0 0 0
20 -0.017744098508496217 0.03969849721594078 0 0 0 0
25 0.00420120950565267 0.13412025981817405 0 0 0 0
15 0.02059500414825512 0.054829246166765794 0 0 0 0
17 -0.08945766032558973 0.267413390789194 0 0 0 0
2 -0.06959464869825814 0.16226698438028037 0 0 0 0
34 -0.015052543489492585 -0.005638797554549272 0 0 0 0
57 -0.17268510778552607 0.02702816002271868 0 0 0 0
62 -0.12241151615455083 -0.013155021090535568 0 0 0 0
39 0.2149360758344012 0.032780952544788355 0 0 0 0
26 0.09944244554640917 -0.10683247644247354 0 0 0 0
18 0.00647866018298283 -0.052267561782147004 0 0 0 0
53 0.09573888003418064 -0.22383130233672818 0 0 0 0
61 0.052298451754886705 0.17904948632464446 0 0 0 0
14 -0.009815469824985991 0.048050182063376114 0 0 0 0
66 -0.03379313298509332 -0.11871934490095526 0 0 0 0
67 0.08793014352523794 0.08072474697862114 0 0 0 0
27 -0.20874752965697815 -0.09641426074731677 0 0 0 0
21 -0.09490553155783094 -0.019963953757899604 0 0 0 0
