ITEM: TIMESTEP
0
ITEM: NUMBER OF ATOMS
80
ITEM: BOX BOUNDS pp pp pp
-1.0000000000000000e+01 1.0000000000000000e+01
-1.0000000000000000e+01 1.0000000000000000e+01
-1.0000000000000001e-01 1.0000000000000001e-01
ITEM: ATOMS id type xs ys zs
37 2 0.312311 0.00366499 0.5
44 3 0.970191 0.00382348 0.5
16 1 0.198852 0.0976658 0.5
46 3 0.330047 0.100491 0.5
14 1 0.604276 0.0715431 0.5
69 4 0.983643 0.0954379 0.5
63 4 0.32642 0.13586 0.5
64 4 0.4002 0.155777 0.5
61 4 0.573818 0.157112 0.5
79 4 0.961749 0.122056 0.5
48 3 0.401987 0.190423 0.5
57 3 0.628321 0.191536 0.5
3 1 0.320415 0.216222 0.5
53 3 0.530446 0.210785 0.5
76 4 0.880658 0.226389 0.5
49 3 0.897734 0.214568 0.5
78 4 0.943132 0.225856 0.5
7 1 0.028459 0.311187 0.5
38 2 0.00310982 0.266811 0.5
23 2 0.308043 0.283208 0.5
36 2 0.270263 0.305773 0.5
70 4 0.414427 0.272583 0.5
32 2 0.660337 0.285657 0.5
66 4 0.725787 0.30586 0.5
12 1 0.788856 0.294943 0.5
39 2 0.000793802 0.341424 0.5
11 1 0.102834 0.332014 0.5
13 1 0.236885 0.323544 0.5
4 1 0.268242 0.344347 0.5
10 1 0.0862969 0.392237 0.5
73 4 0.140322 0.3956 0.5
30 2 0.170549 0.409338 0.5
59 3 0.304659 0.410775 0.5
65 4 0.289961 0.377996 0.5
31 2 0.397417 0.38159 0.5
24 2 0.610781 0.390371 0.5
47 3 0.864604 0.404013 0.5
5 1 0.556996 0.425852 0.5
28 2 0.52945 0.460367 0.5
17 1 0.779522 0.423175 0.5
52 3 0.113674 0.518847 0.5
42 3 0.0185381 0.569396 0.5
9 1 0.242728 0.526939 0.5
34 2 0.230828 0.530584 0.5
74 4 0.240943 0.52712 0.5
51 3 0.521721 0.558181 0.5
67 4 0.690161 0.537474 0.5
45 3 0.889304 0.53822 0.5
75 4 0.922208 0.548751 0.5
54 3 0.143191 0.609064 0.5
56 3 0.247194 0.590899 0.5
2 1 0.302351 0.615651 0.5
68 4 0.417066 0.625368 0.5
20 1 0.805475 0.61519 0.5
43 3 0.798097 0.60975 0.5
19 1 0.0166385 0.643006 0.5
77 4 0.826302 0.657624 0.5
1 1 0.404634 0.689124 0.5
80 4 0.530118 0.688671 0.5
21 2 0.763712 0.713673 0.5
18 1 0.891992 0.70332 0.5
71 4 0.0846533 0.767415 0.5
50 3 0.316342 0.760026 0.5
22 2 0.39857 0.760197 0.5
6 1 0.487284 0.788039 0.5
58 3 0.692377 0.773265 0.5
15 1 0.00195309 0.825507 0.5
41 3 0.19098 0.798075 0.5
33 2 0.214126 0.815679 0.5
55 3 0.444924 0.837369 0.5
29 2 0.829942 0.829614 0.5
25 2 0.965242 0.830665 0.5
40 2 0.258218 0.872287 0.5
35 2 0.741231 0.867843 0.5
8 1 0.149338 0.918946 0.5
62 4 0.130476 0.910685 0.5
72 4 0.685424 0.916212 0.5
60 3 0.768008 0.912563 0.5
27 2 0.807101 0.944684 0.5
26 2 0.959952 0.90853 0.5
ITEM: TIMESTEP
10
ITEM: NUMBER OF ATOMS
80
ITEM: BOX BOUNDS pp pp pp
-9.2479286485995686e+00 9.2479286485995686e+00
-9.2479286485995686e+00 9.2479286485995686e+00
-1.0000000000000001e-01 1.0000000000000001e-01
ITEM: ATOMS id type xs ys zs
37 2 0.312311 0.00366499 0.5
44 3 0.970191 0.00382348 0.5
16 1 0.198852 0.0976658 0.5
46 3 0.33005 0.100463 0.5
14 1 0.604276 0.0715431 0.5
69 4 0.983646 0.095435 0.5
63 4 0.326417 0.135888 0.5
64 4 0.400198 0.155746 0.5
61 4 0.573818 0.157112 0.5
79 4 0.961747 0.122059 0.5
48 3 0.401988 0.190454 0.5
57 3 0.628321 0.191536 0.5
3 1 0.320419 0.216202 0.5
53 3 0.530446 0.210785 0.5
76 4 0.880592 0.226436 0.5
49 3 0.897801 0.214522 0.5
78 4 0.943132 0.225856 0.5
7 1 0.0285655 0.311167 0.5
38 2 0.00306943 0.26674 0.5
23 2 0.308109 0.283185 0.5
36 2 0.270315 0.305627 0.5
70 4 0.414427 0.272583 0.5
32 2 0.660337 0.285657 0.5
66 4 0.725787 0.30586 0.5
12 1 0.788856 0.294943 0.5
39 2 0.000714048 0.341511 0.5
11 1 0.102866 0.331952 0.5
13 1 0.236639 0.323518 0.5
4 1 0.26833 0.344507 0.5
10 1 0.0862638 0.392301 0.5
73 4 0.14028 0.395575 0.5
30 2 0.170606 0.409364 0.5
59 3 0.30467 0.410799 0.5
65 4 0.289987 0.378028 0.5
31 2 0.397417 0.38159 0.5
24 2 0.610808 0.390352 0.5
47 3 0.864604 0.404013 0.5
5 1 0.557035 0.425787 0.5
28 2 0.529383 0.46045 0.5
17 1 0.779522 0.423175 0.5
52 3 0.113674 0.518847 0.5
42 3 0.0185381 0.569396 0.5
9 1 0.243143 0.526847 0.5
34 2 0.230479 0.530696 0.5
74 4 0.240876 0.527094 0.5
51 3 0.521721 0.558181 0.5
67 4 0.690161 0.537474 0.5
45 3 0.889275 0.53821 0.5
75 4 0.922238 0.548761 0.5
54 3 0.143191 0.609064 0.5
56 3 0.247176 0.590898 0.5
2 1 0.302369 0.615659 0.5
68 4 0.417066 0.625368 0.5
20 1 0.805623 0.615276 0.5
43 3 0.797931 0.609628 0.5
19 1 0.0166385 0.643006 0.5
77 4 0.82632 0.65766 0.5
1 1 0.404635 0.689116 0.5
80 4 0.530118 0.688671 0.5
21 2 0.763712 0.713673 0.5
18 1 0.891992 0.70332 0.5
71 4 0.0846533 0.767415 0.5
50 3 0.316342 0.760026 0.5
22 2 0.398569 0.760205 0.5
6 1 0.487286 0.788036 0.5
58 3 0.692377 0.773265 0.5
15 1 0.00208409 0.825488 0.5
41 3 0.190895 0.79801 0.5
33 2 0.21421 0.815743 0.5
55 3 0.444922 0.837372 0.5
29 2 0.829942 0.829614 0.5
25 2 0.965111 0.830684 0.5
40 2 0.258218 0.872287 0.5
35 2 0.741219 0.867823 0.5
8 1 0.149463 0.919001 0.5
62 4 0.130351 0.91063 0.5
72 4 0.685424 0.916212 0.5
60 3 0.767998 0.912565 0.5
27 2 0.807123 0.944701 0.5
26 2 0.959952 0.90853 0.5
ITEM: TIMESTEP
20
ITEM: NUMBER OF ATOMS
80
ITEM: BOX BOUNDS pp pp pp
-8.3202294685074865e+00 8.3202294685074865e+00
-8.3202294685074865e+00 8.3202294685074865e+00
-1.0000000000000001e-01 1.0000000000000001e-01
ITEM: ATOMS id type xs ys zs
37 2 0.312311 0.00366499 0.5
44 3 0.970191 0.00382348 0.5
16 1 0.198852 0.0976658 0.5
46 3 0.330061 0.10035 0.5
14 1 0.604276 0.0715431 0.5
69 4 0.983665 0.0954114 0.5
63 4 0.326405 0.136001 0.5
64 4 0.400192 0.155622 0.5
61 4 0.573818 0.157112 0.5
79 4 0.961728 0.122083 0.5
48 3 0.401995 0.190578 0.5
57 3 0.628321 0.191536 0.5
3 1 0.320437 0.2161 0.5
53 3 0.530446 0.210785 0.5
76 4 0.88035 0.226603 0.5
49 3 0.898038 0.214354 0.5
78 4 0.943137 0.225857 0.5
7 1 0.0289268 0.311092 0.5
38 2 0.00291491 0.26647 0.5
23 2 0.308376 0.283095 0.5
36 2 0.270495 0.305099 0.5
70 4 0.414427 0.272583 0.5
32 2 0.660337 0.285657 0.5
66 4 0.725784 0.305861 0.5
12 1 0.788859 0.294943 0.5
39 2 0.000420906 0.341831 0.5
11 1 0.103023 0.331717 0.5
13 1 0.235746 0.323425 0.5
4 1 0.268619 0.345105 0.5
10 1 0.0861117 0.392555 0.5
73 4 0.140143 0.395481 0.5
30 2 0.170824 0.409463 0.5
59 3 0.304715 0.4109 0.5
65 4 0.29008 0.378141 0.5
31 2 0.397417 0.38159 0.5
24 2 0.610933 0.39027 0.5
47 3 0.864604 0.404013 0.5
5 1 0.557156 0.42556 0.5
28 2 0.529137 0.460759 0.5
17 1 0.779522 0.423175 0.5
52 3 0.113674 0.518847 0.5
42 3 0.0185381 0.569394 0.5
9 1 0.244596 0.52649 0.5
34 2 0.229249 0.531083 0.5
74 4 0.240648 0.527003 0.5
51 3 0.521721 0.558181 0.5
67 4 0.690161 0.537474 0.5
45 3 0.889155 0.538172 0.5
75 4 0.922357 0.548799 0.5
54 3 0.143191 0.609064 0.5
56 3 0.247091 0.590919 0.5
2 1 0.30246 0.6157 0.5
68 4 0.417066 0.625366 0.5
20 1 0.806134 0.615556 0.5
43 3 0.797347 0.609199 0.5
19 1 0.0166384 0.643008 0.5
77 4 0.826392 0.657809 0.5
1 1 0.40464 0.689054 0.5
80 4 0.530118 0.688671 0.5
21 2 0.763712 0.713673 0.5
18 1 0.891992 0.70332 0.5
71 4 0.0846533 0.767415 0.5
50 3 0.316342 0.760026 0.5
22 2 0.398564 0.760269 0.5
6 1 0.487315 0.788002 0.5
58 3 0.692377 0.773265 0.5
15 1 0.00256028 0.825421 0.5
41 3 0.190589 0.797777 0.5
33 2 0.214513 0.815971 0.5
55 3 0.444893 0.837406 0.5
29 2 0.829942 0.829614 0.5
25 2 0.964635 0.83075 0.5
40 2 0.258222 0.872292 0.5
35 2 0.741165 0.867733 0.5
8 1 0.149911 0.919197 0.5
62 4 0.129903 0.910434 0.5
72 4 0.685424 0.916212 0.5
60 3 0.767956 0.912576 0.5
27 2 0.807218 0.94478 0.5
26 2 0.959952 0.90853 0.5
ITEM: TIMESTEP
30
ITEM: NUMBER OF ATOMS
80
ITEM: BOX BOUNDS pp pp pp
-7.6257515687978454e+00 7.6257515687978454e+00
-7.6257515687978454e+00 7.6257515687978454e+00
-1.0000000000000001e-01 1.0000000000000001e-01
ITEM: ATOMS id type xs ys zs
37 2 0.312311 0.00366499 0.5
44 3 0.970191 0.00382348 0.5
16 1 0.198852 0.0976658 0.5
46 3 0.330087 0.1001 0.5
14 1 0.604276 0.0715431 0.5
69 4 0.983724 0.0953396 0.5
63 4 0.32638 0.136251 0.5
64 4 0.400178 0.155352 0.5
61 4 0.573818 0.157112 0.5
79 4 0.961669 0.122154 0.5
48 3 0.402009 0.190848 0.5
57 3 0.628321 0.191536 0.5
3 1 0.320485 0.215837 0.5
53 3 0.530446 0.210785 0.5
76 4 0.879877 0.226931 0.5
49 3 0.898474 0.214016 0.5
78 4 0.943174 0.225867 0.5
7 1 0.029588 0.310943 0.5
38 2 0.00259493 0.265893 0.5
23 2 0.308975 0.282899 0.5
36 2 0.270824 0.304071 0.5
70 4 0.414427 0.272583 0.5
32 2 0.660337 0.285657 0.5
66 4 0.725742 0.305868 0.5
12 1 0.788901 0.294936 0.5
39 2 0.999835 0.342487 0.5
11 1 0.103418 0.331234 0.5
13 1 0.233969 0.32326 0.5
4 1 0.26912 0.34629 0.5
10 1 0.0857398 0.393094 0.5
73 4 0.13991 0.395292 0.5
30 2 0.171278 0.409667 0.5
59 3 0.304828 0.411147 0.5
65 4 0.290268 0.378362 0.5
31 2 0.397417 0.38159 0.5
24 2 0.611226 0.390078 0.5
47 3 0.864604 0.404013 0.5
5 1 0.557358 0.425132 0.5
28 2 0.528643 0.461379 0.5
17 1 0.779522 0.423175 0.5
52 3 0.113674 0.518847 0.5
42 3 0.018539 0.569358 0.5
9 1 0.247342 0.52574 0.5
34 2 0.2269 0.531776 0.5
74 4 0.240227 0.526834 0.5
51 3 0.521721 0.558181 0.5
67 4 0.690161 0.537474 0.5
45 3 0.888894 0.538088 0.5
75 4 0.922618 0.548883 0.5
54 3 0.143191 0.609064 0.5
56 3 0.246886 0.59104 0.5
2 1 0.30269 0.615802 0.5
68 4 0.417073 0.625333 0.5
20 1 0.807088 0.61604 0.5
43 3 0.796233 0.608385 0.5
19 1 0.0166375 0.643044 0.5
77 4 0.826552 0.658139 0.5
1 1 0.40465 0.688894 0.5
80 4 0.530118 0.688671 0.5
21 2 0.763712 0.713673 0.5
18 1 0.891992 0.70332 0.5
71 4 0.0846533 0.767415 0.5
50 3 0.316342 0.760026 0.5
22 2 0.398547 0.760462 0.5
6 1 0.487414 0.787888 0.5
58 3 0.692377 0.773265 0.5
15 1 0.00349815 0.82529 0.5
41 3 0.189985 0.797318 0.5
33 2 0.215081 0.816385 0.5
55 3 0.444795 0.83752 0.5
29 2 0.829942 0.829614 0.5
25 2 0.963698 0.830873 0.5
40 2 0.258257 0.872337 0.5
35 2 0.741035 0.867516 0.5
8 1 0.150776 0.919576 0.5
62 4 0.129038 0.910055 0.5
72 4 0.685424 0.916212 0.5
60 3 0.767865 0.912612 0.5
27 2 0.80744 0.944962 0.5
26 2 0.959951 0.908539 0.5
ITEM: TIMESTEP
40
ITEM: NUMBER OF ATOMS
80
ITEM: BOX BOUNDS pp pp pp
-7.1329606818757227e+00 7.1329606818757227e+00
-7.1329606818757227e+00 7.1329606818757227e+00
-1.0000000000000001e-01 1.0000000000000001e-01
ITEM: ATOMS id type xs ys zs
37 2 0.312311 0.00366499 0.5
44 3 0.970191 0.00382348 0.5
16 1 0.198852 0.0976658 0.5
46 3 0.330132 0.0996665 0.5
14 1 0.604276 0.0715431 0.5
69 4 0.983845 0.0951925 0.5
63 4 0.326335 0.136684 0.5
64 4 0.400154 0.154889 0.5
61 4 0.573818 0.157112 0.5
79 4 0.961548 0.122302 0.5
48 3 0.40204 0.191309 0.5
57 3 0.628321 0.191536 0.5
3 1 0.320567 0.215336 0.5
53 3 0.530446 0.210785 0.5
76 4 0.879123 0.227453 0.5
49 3 0.899117 0.213465 0.5
78 4 0.943285 0.225896 0.5
7 1 0.030561 0.310674 0.5
38 2 0.00206224 0.264889 0.5
23 2 0.310051 0.282559 0.5
36 2 0.271305 0.302447 0.5
70 4 0.414427 0.272583 0.5
32 2 0.660337 0.285657 0.5
66 4 0.725613 0.30589 0.5
12 1 0.78903 0.294913 0.5
39 2 0.998888 0.343592 0.5
11 1 0.104155 0.330426 0.5
13 1 0.231094 0.323029 0.5
4 1 0.269809 0.348143 0.5
10 1 0.085034 0.394025 0.5
73 4 0.139592 0.394993 0.5
30 2 0.172072 0.410011 0.5
59 3 0.305059 0.411641 0.5
65 4 0.290578 0.378713 0.5
31 2 0.397417 0.38159 0.5
24 2 0.611757 0.38973 0.5
47 3 0.864606 0.404013 0.5
5 1 0.557627 0.424474 0.5
28 2 0.527842 0.462386 0.5
17 1 0.77952 0.423175 0.5
52 3 0.113674 0.518847 0.5
42 3 0.0185423 0.569233 0.5
9 1 0.251568 0.524483 0.5
34 2 0.223248 0.532784 0.5
74 4 0.239592 0.526582 0.5
51 3 0.521721 0.558181 0.5
67 4 0.690161 0.537474 0.5
45 3 0.888448 0.537945 0.5
75 4 0.923064 0.549026 0.5
54 3 0.143191 0.609064 0.5
56 3 0.246513 0.591344 0.5
2 1 0.303123 0.616 0.5
68 4 0.417095 0.625218 0.5
20 1 0.808548 0.616717 0.5
43 3 0.794497 0.607128 0.5
19 1 0.0166343 0.643169 0.5
77 4 0.826828 0.658719 0.5
1 1 0.404661 0.688614 0.5
80 4 0.530118 0.688671 0.5
21 2 0.763712 0.713673 0.5
18 1 0.891992 0.70332 0.5
71 4 0.0846533 0.767415 0.5
50 3 0.316342 0.760026 0.5
22 2 0.398496 0.760852 0.5
6 1 0.48764 0.78765 0.5
58 3 0.692377 0.773265 0.5
15 1 0.00499986 0.825069 0.5
41 3 0.189023 0.796586 0.5
33 2 0.215938 0.816979 0.5
55 3 0.444586 0.837763 0.5
29 2 0.829942 0.829614 0.5
25 2 0.962205 0.831018 0.5
40 2 0.258364 0.872475 0.5
35 2 0.740798 0.867117 0.5
8 1 0.152136 0.920171 0.5
62 4 0.127678 0.90946 0.5
72 4 0.685424 0.916212 0.5
60 3 0.767706 0.912685 0.5
27 2 0.807836 0.945287 0.5
26 2 0.959943 0.908615 0.5
ITEM: TIMESTEP
50
ITEM: NUMBER OF ATOMS
80
ITEM: BOX BOUNDS pp pp pp
-6.7947651010433487e+00 6.7947651010433487e+00
-6.7947651010433487e+00 6.7947651010433487e+00
-1.0000000000000001e-01 1.0000000000000001e-01
ITEM: ATOMS id type xs ys zs
37 2 0.312311 0.00366499 0.5
44 3 0.970191 0.00382348 0.5
16 1 0.198852 0.0976658 0.5
46 3 0.330198 0.0990198 0.5
14 1 0.604276 0.0715431 0.5
69 4 0.984045 0.09495 0.5
63 4 0.32627 0.137316 0.5
64 4 0.400118 0.154203 0.5
61 4 0.573818 0.157112 0.5
79 4 0.961348 0.122544 0.5
48 3 0.402125 0.19198 0.5
57 3 0.628321 0.191536 0.5
3 1 0.32066 0.214549 0.5
53 3 0.530446 0.210785 0.5
76 4 0.878069 0.228185 0.5
49 3 0.899952 0.212674 0.5
78 4 0.9435 0.225952 0.5
7 1 0.031815 0.31023 0.5
38 2 0.00129041 0.263386 0.5
23 2 0.311699 0.282068 0.5
36 2 0.271907 0.300207 0.5
70 4 0.414427 0.272583 0.5
32 2 0.660324 0.285653 0.5
66 4 0.725366 0.305939 0.5
12 1 0.78929 0.294868 0.5
39 2 0.997529 0.345203 0.5
11 1 0.105303 0.329228 0.5
13 1 0.227026 0.322737 0.5
4 1 0.270633 0.350657 0.5
10 1 0.0839294 0.395447 0.5
73 4 0.139222 0.394602 0.5
30 2 0.173279 0.410518 0.5
59 3 0.30545 0.412466 0.5
65 4 0.291035 0.379212 0.5
31 2 0.397417 0.38159 0.5
24 2 0.61258 0.389194 0.5
47 3 0.864636 0.404006 0.5
5 1 0.55794 0.423578 0.5
28 2 0.526706 0.463818 0.5
17 1 0.77949 0.423182 0.5
52 3 0.113674 0.518847 0.5
42 3 0.0185491 0.568969 0.5
9 1 0.257282 0.522626 0.5
34 2 0.218251 0.534078 0.5
74 4 0.238749 0.52625 0.5
51 3 0.521721 0.558181 0.5
67 4 0.690161 0.537474 0.5
45 3 0.887788 0.537734 0.5
75 4 0.923724 0.549237 0.5
54 3 0.143191 0.609064 0.5
56 3 0.245935 0.59189 0.5
2 1 0.303828 0.616351 0.5
68 4 0.417142 0.624977 0.5
20 1 0.810528 0.617548 0.5
43 3 0.792108 0.605417 0.5
19 1 0.0166275 0.643433 0.5
77 4 0.827226 0.659592 0.5
1 1 0.40467 0.688203 0.5
80 4 0.530118 0.688671 0.5
21 2 0.763712 0.713673 0.5
18 1 0.892003 0.703328 0.5
71 4 0.0846533 0.767415 0.5
50 3 0.316341 0.760026 0.5
22 2 0.398365 0.761482 0.5
6 1 0.488068 0.787264 0.5
58 3 0.692377 0.773265 0.5
15 1 0.0071239 0.824722 0.5
41 3 0.187674 0.795561 0.5
33 2 0.217074 0.817728 0.5
55 3 0.444234 0.838172 0.5
29 2 0.829942 0.829614 0.5
25 2 0.960116 0.831142 0.5
40 2 0.258576 0.872751 0.5
35 2 0.74043 0.866499 0.5
8 1 0.154018 0.920996 0.5
62 4 0.125796 0.908635 0.5
72 4 0.685424 0.916212 0.5
60 3 0.767467 0.912808 0.5
27 2 0.808443 0.945783 0.5
26 2 0.959908 0.908837 0.5
ITEM: TIMESTEP
60
ITEM: NUMBER OF ATOMS
80
ITEM: BOX BOUNDS pp pp pp
-6.5567190552953800e+00 6.5567190552953800e+00
-6.5567190552953800e+00 6.5567190552953800e+00
-1.0000000000000001e-01 1.0000000000000001e-01
ITEM: ATOMS id type xs ys zs
37 2 0.312311 0.00366499 0.5
44 3 0.970191 0.00382348 0.5
16 1 0.198852 0.0976658 0.5
46 3 0.330288 0.0981458 0.5
14 1 0.604276 0.0715431 0.5
69 4 0.984333 0.0945994 0.5
63 4 0.326185 0.138124 0.5
64 4 0.400071 0.153281 0.5
61 4 0.573818 0.157112 0.5
79 4 0.96106 0.122895 0.5
48 3 0.402304 0.192866 0.5
57 3 0.628321 0.191536 0.5
3 1 0.320746 0.213442 0.5
53 3 0.530446 0.210785 0.5
76 4 0.876715 0.229128 0.5
49 3 0.900952 0.211631 0.5
78 4 0.943821 0.226031 0.5
7 1 0.0333109 0.309575 0.5
38 2 0.000285543 0.261368 0.5
23 2 0.313973 0.281451 0.5
36 2 0.272566 0.297391 0.5
70 4 0.414427 0.272583 0.5
32 2 0.660273 0.285637 0.5
66 4 0.724996 0.306028 0.5
12 1 0.789711 0.294795 0.5
39 2 0.995717 0.347323 0.5
11 1 0.106903 0.327599 0.5
13 1 0.221781 0.322362 0.5
4 1 0.271526 0.353769 0.5
10 1 0.082408 0.397436 0.5
73 4 0.138831 0.394132 0.5
30 2 0.174926 0.411226 0.5
59 3 0.306037 0.41369 0.5
65 4 0.291664 0.37987 0.5
31 2 0.397417 0.38159 0.5
24 2 0.61373 0.388451 0.5
47 3 0.864725 0.403986 0.5
5 1 0.55827 0.422449 0.5
28 2 0.525226 0.465689 0.5
17 1 0.779401 0.423202 0.5
52 3 0.113674 0.518847 0.5
42 3 0.0185604 0.568532 0.5
9 1 0.264398 0.520122 0.5
34 2 0.211956 0.535618 0.5
74 4 0.237716 0.525847 0.5
51 3 0.521721 0.558181 0.5
67 4 0.690161 0.537474 0.5
45 3 0.886901 0.53745 0.5
75 4 0.924611 0.549521 0.5
54 3 0.143191 0.609064 0.5
56 3 0.245124 0.592701 0.5
2 1 0.30485 0.616905 0.5
68 4 0.417222 0.624573 0.5
20 1 0.813014 0.618471 0.5
43 3 0.78907 0.603266 0.5
19 1 0.0166162 0.64387 0.5
77 4 0.827725 0.660777 0.5
1 1 0.404671 0.687661 0.5
80 4 0.530118 0.688671 0.5
21 2 0.763711 0.713676 0.5
18 1 0.892057 0.703366 0.5
71 4 0.0846533 0.767415 0.5
50 3 0.316321 0.760026 0.5
22 2 0.398129 0.762375 0.5
6 1 0.488758 0.786716 0.5
58 3 0.692377 0.773265 0.5
15 1 0.00988855 0.824225 0.5
41 3 0.185934 0.794241 0.5
33 2 0.218469 0.818596 0.5
55 3 0.443719 0.838771 0.5
29 2 0.829943 0.829614 0.5
25 2 0.957424 0.831208 0.5
40 2 0.258921 0.873203 0.5
35 2 0.739918 0.865635 0.5
8 1 0.156416 0.922046 0.5
62 4 0.123398 0.907585 0.5
72 4 0.685423 0.916213 0.5
60 3 0.767141 0.912989 0.5
27 2 0.809281 0.946465 0.5
26 2 0.959834 0.909269 0.5
ITEM: TIMESTEP
70
ITEM: NUMBER OF ATOMS
80
ITEM: BOX BOUNDS pp pp pp
-6.4016938821732214e+00 6.4016938821732214e+00
-6.4016938821732214e+00 6.4016938821732214e+00
-1.0000000000000001e-01 1.0000000000000001e-01
ITEM: ATOMS id type xs ys zs
37 2 0.312311 0.00366499 0.5
44 3 0.970191 0.00382348 0.5
16 1 0.198852 0.0976658 0.5
46 3 0.3304 0.0970454 0.5
14 1 0.604276 0.0715431 0.5
69 4 0.984714 0.0941363 0.5
63 4 0.326084 0.139068 0.5
64 4 0.40001 0.152125 0.5
61 4 0.573815 0.15711 0.5
79 4 0.960679 0.123358 0.5
48 3 0.402605 0.193957 0.5
57 3 0.628324 0.191537 0.5
3 1 0.320807 0.211998 0.5
53 3 0.530446 0.210785 0.5
76 4 0.875078 0.230273 0.5
49 3 0.902082 0.210335 0.5
78 4 0.944236 0.226124 0.5
7 1 0.0350024 0.308688 0.5
38 2 0.999073 0.258868 0.5
23 2 0.316874 0.280764 0.5
36 2 0.273207 0.294074 0.5
70 4 0.414427 0.272583 0.5
32 2 0.660164 0.285603 0.5
66 4 0.724506 0.306166 0.5
12 1 0.79031 0.294692 0.5
39 2 0.993441 0.349914 0.5
11 1 0.108927 0.325528 0.5
13 1 0.215515 0.321857 0.5
4 1 0.272408 0.357365 0.5
10 1 0.0804801 0.400029 0.5
73 4 0.138446 0.393599 0.5
30 2 0.177002 0.412182 0.5
59 3 0.306843 0.415353 0.5
65 4 0.29249 0.380692 0.5
31 2 0.397417 0.38159 0.5
24 2 0.615223 0.387495 0.5
47 3 0.864899 0.403947 0.5
5 1 0.558588 0.421103 0.5
28 2 0.523415 0.467991 0.5
17 1 0.779227 0.423241 0.5
52 3 0.113674 0.518847 0.5
42 3 0.0185766 0.567901 0.5
9 1 0.272745 0.516991 0.5
34 2 0.204498 0.537355 0.5
74 4 0.236523 0.525387 0.5
51 3 0.521721 0.558181 0.5
67 4 0.690161 0.537474 0.5
45 3 0.885791 0.537095 0.5
75 4 0.925721 0.549876 0.5
54 3 0.143191 0.609064 0.5
56 3 0.244071 0.593765 0.5
2 1 0.306203 0.617693 0.5
68 4 0.417338 0.623984 0.5
20 1 0.815959 0.619384 0.5
43 3 0.785424 0.600715 0.5
19 1 0.0165999 0.644501 0.5
77 4 0.828292 0.66228 0.5
1 1 0.404667 0.687001 0.5
80 4 0.530118 0.688671 0.5
21 2 0.763698 0.7137 0.5
18 1 0.892204 0.703478 0.5
71 4 0.0846533 0.767415 0.5
50 3 0.31626 0.760024 0.5
22 2 0.397783 0.763544 0.5
6 1 0.489743 0.786004 0.5
58 3 0.692377 0.773265 0.5
15 1 0.0132685 0.823572 0.5
41 3 0.183821 0.792641 0.5
33 2 0.220084 0.81954 0.5
55 3 0.443034 0.839569 0.5
29 2 0.829958 0.829608 0.5
25 2 0.95416 0.831183 0.5
40 2 0.259419 0.873859 0.5
35 2 0.739254 0.864512 0.5
8 1 0.159296 0.923308 0.5
62 4 0.120518 0.906324 0.5
72 4 0.685412 0.916223 0.5
60 3 0.766724 0.913235 0.5
27 2 0.810357 0.947338 0.5
26 2 0.959719 0.909947 0.5
ITEM: TIMESTEP
80
ITEM: NUMBER OF ATOMS
80
ITEM: BOX BOUNDS pp pp pp
-6.3201844393000961e+00 6.3201844393000961e+00
-6.3201844393000961e+00 6.3201844393000961e+00
-1.0000000000000001e-01 1.0000000000000001e-01
ITEM: ATOMS id type xs ys zs
37 2 0.312311 0.00366499 0.5
44 3 0.970191 0.00382348 0.5
16 1 0.198852 0.0976658 0.5
46 3 0.330535 0.0957365 0.5
14 1 0.604276 0.0715431 0.5
69 4 0.985184 0.0935654 0.5
63 4 0.325969 0.140099 0.5
64 4 0.399936 0.150755 0.5
61 4 0.573801 0.157101 0.5
79 4 0.960209 0.123929 0.5
48 3 0.403049 0.195232 0.5
57 3 0.628338 0.191546 0.5
3 1 0.320822 0.210224 0.5
53 3 0.530446 0.210785 0.5
76 4 0.873196 0.231598 0.5
49 3 0.9033 0.208803 0.5
78 4 0.94472 0.226221 0.5
7 1 0.0368348 0.307574 0.5
38 2 0.997694 0.25596 0.5
23 2 0.32035 0.280088 0.5
36 2 0.273749 0.290359 0.5
70 4 0.414427 0.272583 0.5
32 2 0.65998 0.285545 0.5
66 4 0.72391 0.30636 0.5
12 1 0.79109 0.294556 0.5
39 2 0.990728 0.352897 0.5
11 1 0.111289 0.32305 0.5
13 1 0.208505 0.321178 0.5
4 1 0.273204 0.361281 0.5
10 1 0.0781881 0.403211 0.5
73 4 0.138085 0.393014 0.5
30 2 0.179441 0.413417 0.5
59 3 0.307877 0.417468 0.5
65 4 0.29354 0.38167 0.5
31 2 0.397417 0.38159 0.5
24 2 0.617057 0.386335 0.5
47 3 0.865173 0.403885 0.5
5 1 0.558862 0.419571 0.5
28 2 0.521307 0.470681 0.5
17 1 0.778953 0.423303 0.5
52 3 0.113671 0.518846 0.5
42 3 0.018598 0.567074 0.5
9 1 0.282048 0.513326 0.5
34 2 0.196113 0.53923 0.5
74 4 0.235215 0.524884 0.5
51 3 0.521721 0.558184 0.5
67 4 0.690161 0.537474 0.5
45 3 0.884477 0.536674 0.5
75 4 0.927035 0.550297 0.5
54 3 0.14319 0.609064 0.5
56 3 0.242788 0.595028 0.5
2 1 0.307849 0.618703 0.5
68 4 0.417493 0.623198 0.5
20 1 0.819283 0.620176 0.5
43 3 0.78125 0.597829 0.5
19 1 0.0165786 0.645328 0.5
77 4 0.828887 0.664091 0.5
1 1 0.404675 0.686256 0.5
80 4 0.530118 0.688671 0.5
21 2 0.763668 0.713757 0.5
18 1 0.892491 0.703704 0.5
71 4 0.0846554 0.767413 0.5
50 3 0.31614 0.76002 0.5
22 2 0.397329 0.764973 0.5
6 1 0.491029 0.785136 0.5
58 3 0.692377 0.773265 0.5
15 1 0.0171861 0.82278 0.5
41 3 0.181379 0.790795 0.5
33 2 0.22187 0.82051 0.5
55 3 0.442188 0.840564 0.5
29 2 0.830001 0.829591 0.5
25 2 0.95039 0.831049 0.5
40 2 0.260086 0.874729 0.5
35 2 0.738439 0.863135 0.5
8 1 0.162577 0.924754 0.5
62 4 0.117226 0.904882 0.5
72 4 0.685384 0.916249 0.5
60 3 0.766218 0.913548 0.5
27 2 0.811663 0.948392 0.5
26 2 0.959569 0.910874 0.5
ITEM: TIMESTEP
90
ITEM: NUMBER OF ATOMS
80
ITEM: BOX BOUNDS pp pp pp
-6.3023002315621399e+00 6.3023002315621399e+00
-6.3023002315621399e+00 6.3023002315621399e+00
-1.0000000000000001e-01 1.0000000000000001e-01
ITEM: ATOMS id type xs ys zs
37 2 0.312311 0.00366499 0.5
44 3 0.970191 0.00382348 0.5
16 1 0.198852 0.0976658 0.5
46 3 0.330687 0.0942518 0.5
14 1 0.604277 0.071542 0.5
69 4 0.985731 0.0929002 0.5
63 4 0.325848 0.14116 0.5
64 4 0.39985 0.149209 0.5
61 4 0.573771 0.157083 0.5
79 4 0.959662 0.124594 0.5
48 3 0.40364 0.19666 0.5
57 3 0.628368 0.191565 0.5
3 1 0.320775 0.20815 0.5
53 3 0.530446 0.210785 0.5
76 4 0.871122 0.233065 0.5
49 3 0.904558 0.207064 0.5
78 4 0.945243 0.226318 0.5
7 1 0.0387477 0.306264 0.5
38 2 0.996198 0.252756 0.5
23 2 0.324322 0.279504 0.5
36 2 0.27412 0.286369 0.5
70 4 0.414427 0.272583 0.5
32 2 0.659716 0.285461 0.5
66 4 0.723228 0.306608 0.5
12 1 0.792036 0.294392 0.5
39 2 0.987641 0.356161 0.5
11 1 0.113886 0.320244 0.5
13 1 0.201062 0.320311 0.5
4 1 0.273842 0.365324 0.5
10 1 0.0756059 0.40691 0.5
73 4 0.137759 0.392388 0.5
30 2 0.182134 0.414931 0.5
59 3 0.30914 0.41999 0.5
65 4 0.294836 0.382783 0.5
31 2 0.397417 0.38159 0.5
24 2 0.619205 0.384993 0.5
47 3 0.865548 0.403801 0.5
5 1 0.559064 0.417893 0.5
28 2 0.518957 0.473674 0.5
17 1 0.778578 0.423387 0.5
52 3 0.113627 0.518835 0.5
42 3 0.018624 0.566064 0.5
9 1 0.291947 0.509314 0.5
34 2 0.187165 0.541167 0.5
74 4 0.233843 0.524356 0.5
51 3 0.521721 0.558211 0.5
67 4 0.690161 0.537474 0.5
45 3 0.882994 0.5362 0.5
75 4 0.928518 0.550771 0.5
54 3 0.143176 0.609085 0.5
56 3 0.241312 0.596402 0.5
2 1 0.309721 0.619895 0.5
68 4 0.417688 0.62222 0.5
20 1 0.822891 0.620763 0.5
43 3 0.776661 0.594692 0.5
19 1 0.0165525 0.646338 0.5
77 4 0.829465 0.666181 0.5
1 1 0.404718 0.685468 0.5
80 4 0.530118 0.688671 0.5
21 2 0.763616 0.713849 0.5
18 1 0.892945 0.704072 0.5
71 4 0.0846769 0.767396 0.5
50 3 0.315951 0.760012 0.5
22 2 0.396774 0.766628 0.5
6 1 0.492593 0.784132 0.5
58 3 0.692377 0.773265 0.5
15 1 0.0215049 0.821898 0.5
41 3 0.178672 0.788754 0.5
33 2 0.223765 0.821457 0.5
55 3 0.441207 0.841742 0.5
29 2 0.830079 0.829562 0.5
25 2 0.94622 0.830799 0.5
40 2 0.260939 0.875803 0.5
35 2 0.737486 0.861529 0.5
8 1 0.16614 0.926355 0.5
62 4 0.113622 0.903303 0.5
72 4 0.685336 0.916296 0.5
60 3 0.765632 0.913926 0.5
27 2 0.813173 0.949603 0.5
26 2 0.959398 0.912024 0.5
ITEM: TIMESTEP
100
ITEM: NUMBER OF ATOMS
80
ITEM: BOX BOUNDS pp pp pp
-6.3305219013924834e+00 6.3305219013924834e+00
-6.3305219013924834e+00 6.3305219013924834e+00
-1.0000000000000001e-01 1.0000000000000001e-01
ITEM: ATOMS id type xs ys zs
37 2 0.312311 0.00366499 0.5
44 3 0.970191 0.00382348 0.5
16 1 0.198852 0.0976658 0.5
46 3 0.330853 0.0926326 0.5
14 1 0.604278 0.0715385 0.5
69 4 0.98634 0.0921599 0.5
63 4 0.325725 0.142192 0.5
64 4 0.399754 0.147531 0.5
61 4 0.573723 0.157058 0.5
79 4 0.959053 0.125334 0.5
48 3 0.404373 0.198202 0.5
57 3 0.628414 0.191594 0.5
3 1 0.320653 0.205824 0.5
53 3 0.530446 0.210785 0.5
76 4 0.868917 0.234635 0.5
49 3 0.905809 0.205159 0.5
78 4 0.94577 0.226411 0.5
7 1 0.0406822 0.304809 0.5
38 2 0.99464 0.249373 0.5
23 2 0.328708 0.279079 0.5
36 2 0.274267 0.282232 0.5
70 4 0.414427 0.272583 0.5
32 2 0.659372 0.28535 0.5
66 4 0.722484 0.306908 0.5
12 1 0.793123 0.294202 0.5
39 2 0.984268 0.359584 0.5
11 1 0.116601 0.317206 0.5
13 1 0.193478 0.319273 0.5
4 1 0.274252 0.369312 0.5
10 1 0.0728293 0.411011 0.5
73 4 0.137469 0.391728 0.5
30 2 0.184968 0.416696 0.5
59 3 0.310624 0.422818 0.5
65 4 0.296398 0.383996 0.5
31 2 0.397417 0.38159 0.5
24 2 0.621627 0.383502 0.5
47 3 0.866014 0.403696 0.5
5 1 0.559172 0.416113 0.5
28 2 0.516425 0.476872 0.5
17 1 0.778112 0.423492 0.5
52 3 0.11349 0.518795 0.5
42 3 0.0186541 0.564901 0.5
9 1 0.302053 0.505208 0.5
34 2 0.178067 0.543085 0.5
74 4 0.232458 0.523812 0.5
51 3 0.521723 0.558283 0.5
67 4 0.690161 0.537474 0.5
45 3 0.881388 0.535685 0.5
75 4 0.930125 0.551286 0.5
54 3 0.143124 0.609164 0.5
56 3 0.239696 0.597791 0.5
2 1 0.311739 0.621208 0.5
68 4 0.417919 0.621066 0.5
20 1 0.826682 0.62109 0.5
43 3 0.771784 0.591394 0.5
19 1 0.0165225 0.647501 0.5
77 4 0.829984 0.668513 0.5
1 1 0.40481 0.684677 0.5
80 4 0.530118 0.688671 0.5
21 2 0.763548 0.713967 0.5
18 1 0.893579 0.704594 0.5
71 4 0.0847386 0.767343 0.5
50 3 0.315695 0.759998 0.5
22 2 0.396135 0.768468 0.5
6 1 0.49439 0.783019 0.5
58 3 0.692377 0.773265 0.5
15 1 0.0260613 0.820991 0.5
41 3 0.175775 0.786574 0.5
33 2 0.225709 0.822334 0.5
55 3 0.440125 0.843072 0.5
29 2 0.830189 0.829521 0.5
25 2 0.941771 0.830442 0.5
40 2 0.26198 0.87706 0.5
35 2 0.736416 0.859728 0.5
8 1 0.169861 0.928068 0.5
62 4 0.109813 0.901635 0.5
72 4 0.685271 0.91636 0.5
60 3 0.764975 0.914364 0.5
27 2 0.814854 0.950942 0.5
26 2 0.95923 0.913342 0.5
ITEM: TIMESTEP
110
ITEM: NUMBER OF ATOMS
80
ITEM: BOX BOUNDS pp pp pp
-6.3808914552280562e+00 6.3808914552280562e+00
-6.3808914552280562e+00 6.3808914552280562e+00
-1.0000000000000001e-01 1.0000000000000001e-01
ITEM: ATOMS id type xs ys zs
37 2 0.31231 0.00366411 0.5
44 3 0.970191 0.0038236 0.5
16 1 0.198852 0.0976658 0.5
46 3 0.33103 0.0909184 0.5
14 1 0.604279 0.0715345 0.5
69 4 0.986994 0.0913647 0.5
63 4 0.325606 0.143144 0.5
64 4 0.399649 0.145765 0.5
61 4 0.573662 0.157024 0.5
79 4 0.958399 0.126129 0.5
48 3 0.405232 0.199821 0.5
57 3 0.628473 0.191632 0.5
3 1 0.32045 0.203302 0.5
53 3 0.530446 0.210785 0.5
76 4 0.866636 0.236268 0.5
49 3 0.907018 0.203124 0.5
78 4 0.946268 0.226501 0.5
7 1 0.0425881 0.303272 0.5
38 2 0.993073 0.245884 0.5
23 2 0.333425 0.278864 0.5
36 2 0.274155 0.278055 0.5
70 4 0.414427 0.272583 0.5
32 2 0.658954 0.285214 0.5
66 4 0.721702 0.307255 0.5
12 1 0.794324 0.293992 0.5
39 2 0.980693 0.363092 0.5
11 1 0.119316 0.314025 0.5
13 1 0.186002 0.318106 0.5
4 1 0.274377 0.373102 0.5
10 1 0.0699563 0.415384 0.5
73 4 0.137206 0.391041 0.5
30 2 0.187843 0.418674 0.5
59 3 0.312308 0.425854 0.5
65 4 0.298243 0.38527 0.5
31 2 0.397417 0.38159 0.5
24 2 0.624283 0.381892 0.5
47 3 0.866558 0.403573 0.5
5 1 0.559171 0.414272 0.5
28 2 0.513765 0.480189 0.5
17 1 0.777568 0.423615 0.5
52 3 0.113216 0.518702 0.5
42 3 0.0186872 0.563617 0.5
9 1 0.312131 0.501189 0.5
34 2 0.169099 0.544943 0.5
74 4 0.231105 0.523261 0.5
51 3 0.521729 0.558417 0.5
67 4 0.690161 0.537474 0.5
45 3 0.879703 0.535136 0.5
75 4 0.931814 0.551826 0.5
54 3 0.143022 0.609339 0.5
56 3 0.23797 0.599143 0.5
2 1 0.313834 0.622575 0.5
68 4 0.418182 0.619754 0.5
20 1 0.830565 0.621142 0.5
43 3 0.76673 0.588009 0.5
19 1 0.0164894 0.648785 0.5
77 4 0.830413 0.671048 0.5
1 1 0.404965 0.683917 0.5
80 4 0.530118 0.688671 0.5
21 2 0.763473 0.714095 0.5
18 1 0.894391 0.705271 0.5
71 4 0.0848562 0.767239 0.5
50 3 0.315374 0.759977 0.5
22 2 0.395434 0.770456 0.5
6 1 0.496364 0.781827 0.5
58 3 0.692377 0.773265 0.5
15 1 0.0307062 0.820118 0.5
41 3 0.172753 0.784307 0.5
33 2 0.227651 0.823105 0.5
55 3 0.438972 0.844519 0.5
29 2 0.830325 0.829472 0.5
25 2 0.937155 0.829992 0.5
40 2 0.263201 0.87848 0.5
35 2 0.735253 0.857771 0.5
8 1 0.173636 0.929859 0.5
62 4 0.105898 0.89992 0.5
72 4 0.685195 0.916437 0.5
60 3 0.76426 0.914856 0.5
27 2 0.816672 0.95238 0.5
26 2 0.959084 0.914768 0.5
ITEM: TIMESTEP
120
ITEM: NUMBER OF ATOMS
80
ITEM: BOX BOUNDS pp pp pp
-6.4259084656996608e+00 6.4259084656996608e+00
-6.4259084656996608e+00 6.4259084656996608e+00
-1.0000000000000001e-01 1.0000000000000001e-01
ITEM: ATOMS id type xs ys zs
37 2 0.312309 0.00365733 0.5
44 3 0.970192 0.00382637 0.5
16 1 0.198852 0.0976658 0.5
46 3 0.331214 0.0891418 0.5
14 1 0.604281 0.0715305 0.5
69 4 0.98768 0.0905304 0.5
63 4 0.325497 0.143975 0.5
64 4 0.399537 0.143944 0.5
61 4 0.573592 0.156985 0.5
79 4 0.957713 0.126964 0.5
48 3 0.406202 0.201493 0.5
57 3 0.628542 0.191675 0.5
3 1 0.320168 0.200631 0.5
53 3 0.530446 0.210785 0.5
76 4 0.864315 0.237937 0.5
49 3 0.908161 0.200987 0.5
78 4 0.946705 0.22659 0.5
7 1 0.0444269 0.301713 0.5
38 2 0.991536 0.242327 0.5
23 2 0.338409 0.278887 0.5
36 2 0.273766 0.273916 0.5
70 4 0.414427 0.272582 0.5
32 2 0.658466 0.285053 0.5
66 4 0.720899 0.307642 0.5
12 1 0.795615 0.293766 0.5
39 2 0.976981 0.366639 0.5
11 1 0.121933 0.310764 0.5
13 1 0.178824 0.316851 0.5
4 1 0.274179 0.376601 0.5
10 1 0.0670485 0.419908 0.5
73 4 0.136951 0.39034 0.5
30 2 0.190702 0.420827 0.5
59 3 0.314163 0.429018 0.5
65 4 0.300389 0.386567 0.5
31 2 0.397417 0.38159 0.5
24 2 0.627146 0.380183 0.5
47 3 0.867165 0.403437 0.5
5 1 0.559049 0.412397 0.5
28 2 0.511009 0.483564 0.5
17 1 0.776961 0.423751 0.5