ITEM: TIMESTEP
250
ITEM: NUMBER OF ATOMS
24
ITEM: BOX BOUNDS pp pp pp
-4.8042463061487899e+00 4.8042463061487899e+00
-4.7950008309202667e+00 4.7950008309202667e+00
-1.0000000000000001e-01 1.0000000000000001e-01
ITEM: ATOMS id type xs ys zs
19 1 0.730463 0.511554 0.498571
4 1 0.88741 0.539011 0.4988
1 1 0.642428 0.646739 0.500199
33 1 0.786345 0.635945 0.498725
40 1 0.908342 0.684281 0.500918
13 1 0.128794 0.704845 0.501219
15 1 0.251378 0.7418 0.499686
18 1 0.392717 0.723157 0.498248
25 1 0.526863 0.687305 0.49788
59 1 0.689865 0.772689 0.49947
37 1 0.799861 0.762441 0.50129
46 1 0.0124092 0.70638 0.502353
8 1 0.0580666 0.828962 0.500461
56 1 0.315953 0.850774 0.498853
58 1 0.409745 0.857473 0.499037
79 1 0.506873 0.773426 0.500421
34 1 0.524335 0.869993 0.50144
55 1 0.591421 0.770881 0.499038
57 1 0.626578 0.846248 0.499722
14 1 0.909171 0.833903 0.499791
27 1 0.364454 0.950511 0.501695
52 1 0.477713 0.968483 0.502838
7 1 0.610223 0.971198 0.499955
6 1 0.752151 0.890011 0.49935
ITEM: TIMESTEP
500
ITEM: NUMBER OF ATOMS
24
ITEM: BOX BOUNDS pp pp pp
-4.8030450043118860e+00 4.8030450043118860e+00
-4.7983220944615352e+00 4.7983220944615352e+00
-1.0000000000000001e-01 1.0000000000000001e-01
ITEM: ATOMS id type xs ys zs
19 1 0.729696 0.510787 0.496838
4 1 0.886905 0.539395 0.498391
1 1 0.643421 0.647375 0.50044
33 1 0.787333 0.636068 0.498694
40 1 0.90863 0.685085 0.502252
13 1 0.128689 0.705013 0.50292
15 1 0.250786 0.742854 0.501925
18 1 0.392184 0.723664 0.498064
25 1 0.526499 0.687868 0.498919
59 1 0.690246 0.773044 0.499876
37 1 0.799475 0.762095 0.501671
46 1 0.012633 0.707101 0.502161
8 1 0.0587503 0.829361 0.502285
56 1 0.316391 0.851057 0.499171
58 1 0.41057 0.857954 0.497277
79 1 0.507571 0.774718 0.500335
34 1 0.525093 0.871033 0.502597
55 1 0.592393 0.770757 0.498712
57 1 0.627546 0.846093 0.500383
14 1 0.909352 0.833912 0.500353
27 1 0.365068 0.950804 0.502854
52 1 0.478049 0.969394 0.503562
7 1 0.610945 0.971044 0.500245
6 1 0.752684 0.890067 0.50017
ITEM: TIMESTEP
750
ITEM: NUMBER OF ATOMS
24
ITEM: BOX BOUNDS pp pp pp
-4.8018437024749812e+00 4.8018437024749812e+00
-4.8088054012967163e+00 4.8088054012967163e+00
-1.0000000000000001e-01 1.0000000000000001e-01
ITEM: ATOMS id type xs ys zs
19 1 0.729749 0.511179 0.496689
4 1 0.886688 0.539324 0.498138
1 1 0.643489 0.647655 0.500757
33 1 0.786972 0.63597 0.49747
40 1 0.908158 0.684845 0.502221
13 1 0.128688 0.704049 0.506013
15 1 0.250553 0.743578 0.50311
18 1 0.392664 0.724782 0.49924
25 1 0.526917 0.688328 0.496436
59 1 0.690385 0.773095 0.500749
37 1 0.799815 0.76248 0.501369
46 1 0.011921 0.70785 0.503603
8 1 0.0584513 0.829092 0.503695
56 1 0.315777 0.851435 0.500079
58 1 0.409992 0.858336 0.495764
79 1 0.507625 0.774692 0.500309
34 1 0.524653 0.870572 0.500832
55 1 0.592182 0.77035 0.498376
57 1 0.627127 0.845627 0.499098
14 1 0.909791 0.833835 0.498541
27 1 0.365171 0.951276 0.505194
52 1 0.47806 0.969381 0.502663
7 1 0.610766 0.970634 0.49889
6 1 0.752155 0.889983 0.499301
ITEM: TIMESTEP
1000
ITEM: NUMBER OF ATOMS
24
ITEM: BOX BOUNDS pp pp pp
-4.8006424006380763e+00 4.8006424006380763e+00
-4.8046376266725446e+00 4.8046376266725446e+00
-1.0000000000000001e-01 1.0000000000000001e-01
ITEM: ATOMS id type xs ys zs
19 1 0.730301 0.51134 0.495884
4 1 0.887153 0.538385 0.498462
1 1 0.643926 0.648039 0.4992
33 1 0.787492 0.635408 0.50026
40 1 0.90876 0.684131 0.501379
13 1 0.128857 0.705862 0.50653
15 1 0.25108 0.743319 0.501231
18 1 0.393418 0.724591 0.500743
25 1 0.527547 0.688457 0.495639
59 1 0.690493 0.774115 0.500299
37 1 0.800268 0.762068 0.502224
46 1 0.0124506 0.708056 0.504226
8 1 0.0589635 0.830321 0.503596
56 1 0.315487 0.852333 0.499268
58 1 0.409924 0.858831 0.496287
79 1 0.507981 0.774692 0.501067
34 1 0.524573 0.870656 0.499214
55 1 0.592208 0.771254 0.499482
57 1 0.627198 0.846676 0.499505
14 1 0.910071 0.833714 0.49931
27 1 0.3644 0.951641 0.50676
52 1 0.477765 0.968298 0.501613
7 1 0.610647 0.97122 0.499471
6 1 0.752683 0.890604 0.499231
ITEM: TIMESTEP
1250
ITEM: NUMBER OF ATOMS
24
ITEM: BOX BOUNDS pp pp pp
-4.7994410988011715e+00 4.7994410988011715e+00
-4.8324740524123238e+00 4.8324740524123238e+00
-1.0000000000000001e-01 1.0000000000000001e-01
ITEM: ATOMS id type xs ys zs
19 1 0.729964 0.512468 0.496747
4 1 0.88632 0.53937 0.49886
1 1 0.64382 0.648282 0.498221
33 1 0.787999 0.63586 0.500474
40 1 0.909582 0.684296 0.501102
13 1 0.128915 0.706149 0.506706
15 1 0.251959 0.743252 0.500448
18 1 0.39406 0.726091 0.501507
25 1 0.527757 0.688951 0.495791
59 1 0.690556 0.772606 0.501292
37 1 0.800274 0.761529 0.502274
46 1 0.0128993 0.709242 0.504946
8 1 0.0599638 0.83032 0.504785
56 1 0.316913 0.851525 0.499532
58 1 0.411081 0.859565 0.494142
79 1 0.508124 0.774866 0.498981
34 1 0.525112 0.870281 0.499423
55 1 0.592816 0.771578 0.498949
57 1 0.628401 0.845794 0.49944
14 1 0.910288 0.833035 0.500494
27 1 0.365263 0.951063 0.50657
52 1 0.477941 0.967906 0.499888
7 1 0.611425 0.969729 0.500413
6 1 0.753783 0.889011 0.499549
ITEM: TIMESTEP
1500
ITEM: NUMBER OF ATOMS
24
ITEM: BOX BOUNDS pp pp pp
-4.7982397969642676e+00 4.7982397969642676e+00
-4.8328149538701650e+00 4.8328149538701650e+00
-1.0000000000000001e-01 1.0000000000000001e-01
ITEM: ATOMS id type xs ys zs
19 1 0.730307 0.5124 0.496511
4 1 0.8873 0.538964 0.499795
1 1 0.644026 0.647722 0.498784
33 1 0.788012 0.63548 0.501367
40 1 0.909545 0.683845 0.500839
13 1 0.129235 0.708323 0.505989
15 1 0.251346 0.744472 0.499282
18 1 0.393645 0.726447 0.502042
25 1 0.527853 0.689094 0.496745
59 1 0.691132 0.772756 0.501046
37 1 0.800574 0.761224 0.503182
46 1 0.0130811 0.710594 0.505489
8 1 0.0602084 0.831829 0.504093
56 1 0.318049 0.851402 0.500394
58 1 0.411807 0.858891 0.493298
79 1 0.508339 0.774906 0.499534
34 1 0.525884 0.87056 0.500031
55 1 0.592937 0.771083 0.500024
57 1 0.628319 0.84594 0.499632
14 1 0.911459 0.832308 0.50219
27 1 0.366453 0.951085 0.508074
52 1 0.479527 0.968017 0.498427
7 1 0.612272 0.97056 0.500476
6 1 0.753895 0.888547 0.500833
ITEM: TIMESTEP
1750
ITEM: NUMBER OF ATOMS
24
ITEM: BOX BOUNDS pp pp pp
-4.7970384951273628e+00 4.7970384951273628e+00
-4.8158331801574619e+00 4.8158331801574619e+00
-1.0000000000000001e-01 1.0000000000000001e-01
ITEM: ATOMS id type xs ys zs
19 1 0.730008 0.511306 0.497506
4 1 0.886966 0.538898 0.499735
1 1 0.644562 0.647656 0.499244
33 1 0.788268 0.63525 0.500587
40 1 0.909969 0.68332 0.499377
13 1 0.128918 0.706979 0.504962
15 1 0.251576 0.74313 0.496712
18 1 0.393521 0.725717 0.501965
25 1 0.528316 0.688101 0.496568
59 1 0.691412 0.772707 0.501446
37 1 0.801601 0.761325 0.502436
46 1 0.0127586 0.711353 0.503271
8 1 0.0611804 0.832365 0.502915
56 1 0.316434 0.851727 0.497854
58 1 0.410522 0.859048 0.492747
79 1 0.508585 0.774187 0.498802
34 1 0.525818 0.869403 0.499708
55 1 0.5935 0.771529 0.5004
57 1 0.628867 0.84624 0.500115
14 1 0.911501 0.832389 0.503193
27 1 0.36517 0.951649 0.507978
52 1 0.478872 0.96786 0.500927
7 1 0.611271 0.97035 0.501135
6 1 0.753989 0.889549 0.500582
ITEM: TIMESTEP
2000
ITEM: NUMBER OF ATOMS
24
ITEM: BOX BOUNDS pp pp pp
-4.7958371932904580e+00 4.7958371932904580e+00
-4.8267759528632279e+00 4.8267759528632279e+00
-1.0000000000000001e-01 1.0000000000000001e-01
ITEM: ATOMS id type xs ys zs
19 1 0.729393 0.511955 0.499087
4 1 0.887598 0.538586 0.499627
1 1 0.644783 0.647919 0.497239
33 1 0.788603 0.635527 0.501055
40 1 0.910412 0.683337 0.500123
13 1 0.129318 0.707704 0.505546
15 1 0.252698 0.742655 0.495969
18 1 0.394815 0.724662 0.502438
25 1 0.528866 0.688597 0.49612
59 1 0.691625 0.772826 0.500286
37 1 0.801365 0.761041 0.5037
46 1 0.0129214 0.712116 0.502978
8 1 0.0615427 0.833268 0.50272
56 1 0.317011 0.851084 0.498975
58 1 0.410869 0.857872 0.491537
79 1 0.508959 0.774249 0.50015
34 1 0.525212 0.870064 0.500997
55 1 0.593412 0.771539 0.501127
57 1 0.628442 0.846049 0.50162
14 1 0.912209 0.83166 0.50283
27 1 0.365359 0.950086 0.508307
52 1 0.478867 0.968015 0.500966
7 1 0.611716 0.970199 0.501236
6 1 0.754286 0.888969 0.501664
ITEM: TIMESTEP
2250
ITEM: NUMBER OF ATOMS
24
ITEM: BOX BOUNDS pp pp pp
-4.7946358914535532e+00 4.7946358914535532e+00
-4.8301009105167223e+00 4.8301009105167223e+00
-1.0000000000000001e-01 1.0000000000000001e-01
ITEM: ATOMS id type xs ys zs
19 1 0.730921 0.511831 0.498305
4 1 0.887763 0.53933 0.498161
1 1 0.645081 0.648103 0.49788
33 1 0.78875 0.635306 0.501513
40 1 0.910513 0.684021 0.500864
13 1 0.130005 0.708502 0.507072
15 1 0.251924 0.742516 0.496498
18 1 0.394248 0.72402 0.502509
25 1 0.528665 0.688061 0.495874
59 1 0.691548 0.773188 0.500495
37 1 0.801567 0.760907 0.503697
46 1 0.0136356 0.712437 0.503873
8 1 0.0612682 0.83386 0.504026
56 1 0.316395 0.850671 0.498573
58 1 0.410815 0.857374 0.49134
79 1 0.508207 0.774191 0.501552
34 1 0.525403 0.869572 0.500667
55 1 0.593114 0.771189 0.501574
57 1 0.628583 0.845517 0.499577
14 1 0.911652 0.831723 0.501171
27 1 0.365534 0.949117 0.508112
52 1 0.478844 0.967386 0.499512
7 1 0.611729 0.969412 0.499512
6 1 0.754611 0.889019 0.49977
ITEM: TIMESTEP
2500
ITEM: NUMBER OF ATOMS
24
ITEM: BOX BOUNDS pp pp pp
-4.7934345896166493e+00 4.7934345896166493e+00
-4.8265591602484452e+00 4.8265591602484452e+00
-1.0000000000000001e-01 1.0000000000000001e-01
ITEM: ATOMS id type xs ys zs
19 1 0.730105 0.512077 0.497868
4 1 0.888214 0.539244 0.497807
1 1 0.644817 0.647997 0.496609
33 1 0.787991 0.635685 0.50021
40 1 0.909057 0.68442 0.501988
13 1 0.128605 0.708052 0.507864
15 1 0.251836 0.743098 0.496514
18 1 0.394979 0.724734 0.503747
25 1 0.528451 0.68873 0.496673
59 1 0.691083 0.773374 0.49955
37 1 0.800314 0.761997 0.504764
46 1 0.0121535 0.71192 0.502664
8 1 0.060855 0.832495 0.501837
56 1 0.317444 0.851231 0.496996
58 1 0.411527 0.857926 0.491642
79 1 0.508165 0.774441 0.502598
34 1 0.525596 0.869407 0.501661
55 1 0.592814 0.771451 0.50172
57 1 0.628435 0.845681 0.500299
14 1 0.911488 0.832499 0.50208
27 1 0.366049 0.950084 0.506618
52 1 0.478724 0.966889 0.50033
7 1 0.611535 0.970079 0.498304
6 1 0.754188 0.890185 0.500081
ITEM: TIMESTEP
2750
ITEM: NUMBER OF ATOMS
24
ITEM: BOX BOUNDS pp pp pp
-4.7922332877797444e+00 4.7922332877797444e+00
-4.8302367648343418e+00 4.8302367648343418e+00
-1.0000000000000001e-01 1.0000000000000001e-01
ITEM: ATOMS id type xs ys zs
19 1 0.729396 0.511732 0.499016
4 1 0.887228 0.538945 0.498766
1 1 0.644259 0.648328 0.495251
33 1 0.787376 0.635128 0.501076
40 1 0.90909 0.683525 0.501335
13 1 0.127776 0.707876 0.506843
15 1 0.25103 0.742826 0.496024
18 1 0.3931 0.724713 0.503596
25 1 0.527636 0.688798 0.498259
59 1 0.690941 0.773159 0.500735
37 1 0.800636 0.760696 0.505211
46 1 0.0122424 0.711131 0.502026
8 1 0.0604501 0.832346 0.502504
56 1 0.317582 0.849361 0.495643
58 1 0.411894 0.857552 0.490422
79 1 0.508128 0.774583 0.502434
34 1 0.525965 0.86962 0.503183
55 1 0.592659 0.771468 0.501696
57 1 0.628537 0.845818 0.500689
14 1 0.91083 0.832079 0.502002
27 1 0.366348 0.949245 0.507839
52 1 0.479426 0.967232 0.503135
7 1 0.612481 0.96997 0.500409
6 1 0.753881 0.888706 0.500942
ITEM: TIMESTEP
3000
ITEM: NUMBER OF ATOMS
24
ITEM: BOX BOUNDS pp pp pp
-4.7910319859428396e+00 4.7910319859428396e+00
-4.8253355875036297e+00 4.8253355875036297e+00
-1.0000000000000001e-01 1.0000000000000001e-01
ITEM: ATOMS id type xs ys zs
19 1 0.728616 0.511821 0.499897
4 1 0.886317 0.537411 0.499022
1 1 0.643827 0.648442 0.496872
33 1 0.787494 0.634757 0.501289
40 1 0.908994 0.682186 0.500854
13 1 0.127925 0.705807 0.507391
15 1 0.249936 0.743176 0.497243
18 1 0.392227 0.72477 0.503181
25 1 0.527244 0.689532 0.498079
59 1 0.690572 0.772341 0.499244
37 1 0.800254 0.759991 0.504465
46 1 0.0116924 0.71099 0.501944
8 1 0.060741 0.831345 0.501871
56 1 0.318068 0.849475 0.495138
58 1 0.412264 0.858143 0.491815
79 1 0.507143 0.775018 0.501935
34 1 0.52672 0.869976 0.502289
55 1 0.591939 0.772163 0.503136
57 1 0.629139 0.846289 0.50193
14 1 0.911447 0.830928 0.50145
27 1 0.366576 0.949576 0.507257
52 1 0.479592 0.967959 0.50411
7 1 0.61295 0.969957 0.50011
6 1 0.754825 0.88819 0.501359
ITEM: TIMESTEP
3250
ITEM: NUMBER OF ATOMS
24
ITEM: BOX BOUNDS pp pp pp
-4.7898306841059357e+00 4.7898306841059357e+00
-4.8439537184746939e+00 4.8439537184746939e+00
-1.0000000000000001e-01 1.0000000000000001e-01
ITEM: ATOMS id type xs ys zs
19 1 0.728153 0.512733 0.499392
4 1 0.885397 0.538126 0.499543
1 1 0.642833 0.648762 0.49638
33 1 0.787076 0.63511 0.500022
40 1 0.90917 0.682547 0.501699
13 1 0.127712 0.706464 0.507481
15 1 0.250181 0.742311 0.496744
18 1 0.392852 0.724965 0.504208
25 1 0.527102 0.690087 0.499202
59 1 0.690833 0.772802 0.499906
37 1 0.8004 0.759813 0.504781
46 1 0.0113668 0.710627 0.504081
8 1 0.0601324 0.83119 0.502187
56 1 0.318332 0.84805 0.496548
58 1 0.412365 0.856978 0.489858
79 1 0.507787 0.775251 0.500518
34 1 0.526106 0.869947 0.503566
55 1 0.592382 0.772299 0.504233
57 1 0.628778 0.846346 0.502039
14 1 0.91069 0.8305 0.503047
27 1 0.365176 0.947934 0.507291
52 1 0.478155 0.96735 0.505293
7 1 0.611611 0.970172 0.503555
6 1 0.754213 0.887839 0.501411
ITEM: TIMESTEP
3500
ITEM: NUMBER OF ATOMS
24
ITEM: BOX BOUNDS pp pp pp
-4.7886293822690309e+00 4.7886293822690309e+00
-4.8534542464437669e+00 4.8534542464437669e+00
-1.0000000000000001e-01 1.0000000000000001e-01
ITEM: ATOMS id type xs ys zs
19 1 0.728135 0.512997 0.500289
4 1 0.885768 0.539532 0.500755
1 1 0.642978 0.649063 0.496813
33 1 0.785986 0.635592 0.49979
40 1 0.908512 0.682716 0.501059
13 1 0.12753 0.706421 0.507685
15 1 0.250244 0.742694 0.496765
18 1 0.391939 0.724804 0.503396
25 1 0.526893 0.689966 0.499003
59 1 0.690718 0.772952 0.498644
37 1 0.800048 0.760716 0.505249
46 1 0.0114392 0.710796 0.504285
8 1 0.0612384 0.831334 0.50062
56 1 0.316963 0.849265 0.496115
58 1 0.411222 0.85636 0.490465
79 1 0.507573 0.775404 0.501782
34 1 0.525607 0.87041 0.501907
55 1 0.592119 0.771958 0.504824
57 1 0.628067 0.845938 0.501742
14 1 0.911276 0.829927 0.501998
27 1 0.365795 0.948111 0.50801
52 1 0.47888 0.968224 0.50504
7 1 0.611902 0.969593 0.505873
6 1 0.754328 0.888281 0.501484
ITEM: TIMESTEP
3750
ITEM: NUMBER OF ATOMS
24
ITEM: BOX BOUNDS pp pp pp
-4.7874280804321261e+00 4.7874280804321261e+00
-4.8684662011827289e+00 4.8684662011827289e+00
-1.0000000000000001e-01 1.0000000000000001e-01
ITEM: ATOMS id type xs ys zs
19 1 0.727809 0.514038 0.499075
4 1 0.885595 0.539415 0.501514
1 1 0.642958 0.650001 0.497308
33 1 0.78724 0.636292 0.49977
40 1 0.908788 0.683184 0.501042
13 1 0.127769 0.706226 0.506296
15 1 0.249322 0.744239 0.495553
18 1 0.391564 0.724292 0.503775
25 1 0.526885 0.691068 0.499576
59 1 0.690821 0.774015 0.498163
37 1 0.800303 0.760702 0.505407
46 1 0.0116944 0.711443 0.5055
8 1 0.0605061 0.831239 0.500141
56 1 0.317503 0.849594 0.496804
58 1 0.411647 0.856505 0.491618
79 1 0.506829 0.775592 0.501833
34 1 0.52592 0.870268 0.499729
55 1 0.592188 0.772807 0.505424
57 1 0.62879 0.846698 0.502419
14 1 0.910747 0.830605 0.500537
27 1 0.366612 0.947953 0.509284
52 1 0.480039 0.967154 0.504955
7 1 0.613016 0.969528 0.506582
6 1 0.754743 0.888372 0.503737
ITEM: TIMESTEP
4000
ITEM: NUMBER OF ATOMS
24
ITEM: BOX BOUNDS pp pp pp
-4.7862267785952213e+00 4.7862267785952213e+00
-4.8999734079899548e+00 4.8999734079899548e+00
-1.0000000000000001e-01 1.0000000000000001e-01
ITEM: ATOMS id type xs ys zs
19 1 0.72789 0.514762 0.497642
4 1 0.886461 0.540827 0.500615
1 1 0.643191 0.650128 0.496121
33 1 0.786734 0.636292 0.502743
40 1 0.90882 0.683001 0.500663
13 1 0.128195 0.706544 0.50601
15 1 0.249374 0.745513 0.496267
18 1 0.391843 0.724957 0.502727
25 1 0.526519 0.691178 0.501682
59 1 0.690871 0.772608 0.499029
37 1 0.800575 0.759722 0.504606
46 1 0.0117815 0.711876 0.505327
8 1 0.0612008 0.830629 0.500053
56 1 0.317138 0.850162 0.496661
58 1 0.411621 0.856395 0.490183
79 1 0.507525 0.776007 0.501642
34 1 0.526185 0.870259 0.499784
55 1 0.591932 0.771918 0.502561
57 1 0.628539 0.84513 0.500488
14 1 0.911148 0.829592 0.501109
27 1 0.367002 0.947715 0.508852
52 1 0.480697 0.967708 0.506235
7 1 0.613508 0.968224 0.506667
6 1 0.754342 0.885888 0.503471
ITEM: TIMESTEP
4250
ITEM: NUMBER OF ATOMS
24
ITEM: BOX BOUNDS pp pp pp
-4.7850254767583174e+00 4.7850254767583174e+00
-4.8986712376856296e+00 4.8986712376856296e+00
-1.0000000000000001e-01 1.0000000000000001e-01
ITEM: ATOMS id type xs ys zs
19 1 0.72948 0.514726 0.498945
4 1 0.887275 0.540686 0.501654
1 1 0.643823 0.649922 0.497456
33 1 0.787444 0.636472 0.502375
40 1 0.90887 0.683447 0.501058
13 1 0.128011 0.707142 0.506146
15 1 0.24976 0.745863 0.496815
18 1 0.39217 0.725193 0.500733
25 1 0.526899 0.690688 0.500691
59 1 0.690533 0.772631 0.497904
37 1 0.800186 0.760031 0.502666
46 1 0.0116156 0.712447 0.505468
8 1 0.0606591 0.830833 0.498493
56 1 0.316874 0.85106 0.496512
58 1 0.411206 0.856698 0.490878
79 1 0.507253 0.775808 0.49851
34 1 0.526187 0.869481 0.500194
55 1 0.591997 0.771604 0.504136
57 1 0.628907 0.845229 0.501099
14 1 0.910909 0.830417 0.499633
27 1 0.367628 0.947905 0.508243
52 1 0.480631 0.966359 0.504965
7 1 0.613537 0.967957 0.508793
6 1 0.755174 0.886298 0.502175
ITEM: TIMESTEP
4500
ITEM: NUMBER OF ATOMS
24
ITEM: BOX BOUNDS pp pp pp
-4.7838241749214125e+00 4.7838241749214125e+00
-4.9004444708631754e+00 4.9004444708631754e+00
-1.0000000000000001e-01 1.0000000000000001e-01
ITEM: ATOMS id type xs ys zs
19 1 0.727996 0.515019 0.498147
4 1 0.886068 0.541525 0.500342
1 1 0.642603 0.649655 0.496239
33 1 0.787063 0.63701 0.501401
40 1 0.908795 0.683799 0.5012
13 1 0.127507 0.705983 0.506548
15 1 0.249488 0.745385 0.498621
18 1 0.391477 0.72645 0.501965
25 1 0.526163 0.690953 0.501821
59 1 0.690362 0.773039 0.496629
37 1 0.800326 0.760394 0.500279
46 1 0.011388 0.712291 0.505415
8 1 0.0615341 0.830686 0.497262
56 1 0.316953 0.850243 0.497414
58 1 0.410789 0.857063 0.492606
79 1 0.507419 0.775417 0.500593
34 1 0.525383 0.869733 0.499147
55 1 0.592328 0.771654 0.503146
57 1 0.62791 0.845007 0.499133
14 1 0.911664 0.829878 0.500586
27 1 0.366256 0.948004 0.509537
52 1 0.479372 0.966855 0.503731
7 1 0.612254 0.967419 0.509369
6 1 0.75494 0.887226 0.502895
ITEM: TIMESTEP
4750
ITEM: NUMBER OF ATOMS
24
ITEM: BOX BOUNDS pp pp pp
-4.7826228730845077e+00 4.7826228730845077e+00
-4.8914448682684339e+00 4.8914448682684339e+00
-1.0000000000000001e-01 1.0000000000000001e-01
ITEM: ATOMS id type xs ys zs
19 1 0.727439 0.515179 0.499194
4 1 0.885627 0.540912 0.499314
1 1 0.642444 0.649541 0.496553
33 1 0.78662 0.636915 0.500436
40 1 0.908935 0.683778 0.501976
13 1 0.127874 0.705981 0.50721
15 1 0.248904 0.746656 0.497579
18 1 0.391303 0.726851 0.502601
25 1 0.525651 0.691202 0.502791
59 1 0.690551 0.772229 0.495916
37 1 0.800402 0.760923 0.499505
46 1 0.012031 0.710566 0.504352
8 1 0.0614992 0.830138 0.496425
56 1 0.316151 0.85163 0.496307
58 1 0.410882 0.858065 0.492961
79 1 0.507252 0.776349 0.500973
34 1 0.525662 0.870133 0.497492
55 1 0.591742 0.771748 0.504235
57 1 0.628282 0.845197 0.498973
14 1 0.911745 0.829866 0.501275
27 1 0.366127 0.949054 0.508385
52 1 0.479144 0.966317 0.503481
7 1 0.612428 0.968196 0.507238
6 1 0.754299 0.886845 0.500273
ITEM: TIMESTEP
5000
ITEM: NUMBER OF ATOMS
24
ITEM: BOX BOUNDS pp pp pp
-4.7814215712476029e+00 4.7814215712476029e+00
-4.9054827386431628e+00 4.9054827386431628e+00
-1.0000000000000001e-01 1.0000000000000001e-01
ITEM: ATOMS id type xs ys zs
19 1 0.728034 0.515797 0.499913
4 1 0.886413 0.541678 0.50091
1 1 0.643072 0.650183 0.495907
33 1 0.786556 0.637934 0.502766
40 1 0.909092 0.683969 0.50323
13 1 0.127989 0.707469 0.508331
15 1 0.250588 0.74626 0.495343
18 1 0.392783 0.72661 0.503317
25 1 0.52667 0.69064 0.504594
59 1 0.690454 0.772887 0.496764
37 1 0.80037 0.76085 0.496788
46 1 0.0117764 0.712153 0.504518
8 1 0.0609675 0.830482 0.497569
56 1 0.315674 0.852276 0.496062
58 1 0.410026 0.857541 0.492811
79 1 0.506996 0.775204 0.502244
34 1 0.524942 0.869218 0.497497
55 1 0.591944 0.771759 0.505945
57 1 0.62764 0.845079 0.500233
14 1 0.911237 0.830419 0.500876
27 1 0.365896 0.948819 0.506595
52 1 0.479403 0.966265 0.504575
7 1 0.612421 0.966835 0.507112
6 1 0.754492 0.886957 0.498867
ITEM: TIMESTEP
5250
ITEM: NUMBER OF ATOMS
24
ITEM: BOX BOUNDS pp pp pp
-4.7802202694106990e+00 4.7802202694106990e+00
-4.9071329461887325e+00 4.9071329461887325e+00
-1.0000000000000001e-01 1.0000000000000001e-01
ITEM: ATOMS id type xs ys zs
19 1 0.727725 0.514951 0.499828
4 1 0.886096 0.540656 0.501805
1 1 0.643484 0.650115 0.493515
33 1 0.787122 0.635941 0.503581
40 1 0.908654 0.68321 0.501172
13 1 0.128197 0.706854 0.508535
15 1 0.249853 0.745453 0.49469
18 1 0.392114 0.725396 0.504565
25 1 0.526719 0.690035 0.5043
59 1 0.690408 0.772497 0.496001
37 1 0.799667 0.75951 0.496257
46 1 0.0112524 0.712103 0.503499
8 1 0.0605428 0.830458 0.495126
56 1 0.314802 0.85217 0.495696
58 1 0.409791 0.856801 0.489996
79 1 0.506803 0.774276 0.501934
34 1 0.524443 0.868245 0.497295
55 1 0.591658 0.771342 0.506022
57 1 0.628203 0.844485 0.499899
14 1 0.910505 0.828039 0.501022
27 1 0.365631 0.948424 0.505808
52 1 0.479038 0.965281 0.503978
7 1 0.612407 0.966201 0.508645
6 1 0.754732 0.886123 0.499547
ITEM: TIMESTEP
5500
ITEM: NUMBER OF ATOMS
24
ITEM: BOX BOUNDS pp pp pp
-4.7790189675737942e+00 4.7790189675737942e+00
-4.9003484280776757e+00 4.9003484280776757e+00
-1.0000000000000001e-01 1.0000000000000001e-01
ITEM: ATOMS id type xs ys zs
19 1 0.727486 0.513902 0.501055
4 1 0.885514 0.539992 0.501364
1 1 0.643046 0.649409 0.494004
33 1 0.78706 0.635569 0.504733
40 1 0.90942 0.682476 0.499964
13 1 0.128596 0.706802 0.508755
15 1 0.25006 0.74559 0.493888
18 1 0.391995 0.726222 0.503959
25 1 0.526359 0.689303 0.50497
59 1 0.690173 0.771814 0.495499
37 1 0.800341 0.759349 0.49841
46 1 0.0121754 0.711536 0.503382
8 1 0.0611436 0.830965 0.49671
56 1 0.314604 0.851902 0.49422
58 1 0.409486 0.857128 0.489748
79 1 0.506912 0.773998 0.502093
34 1 0.524729 0.868066 0.497843
55 1 0.591615 0.770726 0.505897
57 1 0.627743 0.844037 0.500074
14 1 0.911495 0.827824 0.503012
27 1 0.365786 0.948248 0.504967
52 1 0.479317 0.965727 0.505943
7 1 0.612168 0.966233 0.509408
6 1 0.754629 0.88522 0.498657
ITEM: TIMESTEP
5750
ITEM: NUMBER OF ATOMS
24
ITEM: BOX BOUNDS pp pp pp
-4.7778176657368894e+00 4.7778176657368894e+00
-4.8937708358727221e+00 4.8937708358727221e+00
-1.0000000000000001e-01 1.0000000000000001e-01
ITEM: ATOMS id type xs ys zs
19 1 0.726679 0.513182 0.502634
4 1 0.885158 0.54031 0.502799
1 1 0.642331 0.64828 0.495287
33 1 0.785532 0.635645 0.502229
40 1 0.908591 0.682609 0.500973
13 1 0.128135 0.705364 0.507403
15 1 0.249752 0.74664 0.494507
18 1 0.391745 0.727285 0.50421
25 1 0.525548 0.689838 0.504041
59 1 0.689552 0.771551 0.494682
37 1 0.800276 0.759293 0.49809
46 1 0.0115797 0.710066 0.504053
8 1 0.0606353 0.829242 0.498793
56 1 0.315165 0.852704 0.492688
58 1 0.409798 0.858573 0.490592
79 1 0.506268 0.774769 0.502385
34 1 0.52551 0.868258 0.49813
55 1 0.590951 0.770614 0.504726
57 1 0.627497 0.843534 0.498861
14 1 0.910969 0.82925 0.501967
27 1 0.365328 0.950026 0.505088
52 1 0.479573 0.965159 0.505457
7 1 0.612374 0.966724 0.509537
6 1 0.753511 0.885301 0.500048
ITEM: TIMESTEP
6000
ITEM: NUMBER OF ATOMS
24
ITEM: BOX BOUNDS pp pp pp
-4.7766163638999846e+00 4.7766163638999846e+00
-4.8971771184691359e+00 4.8971771184691359e+00
-1.0000000000000001e-01 1.0000000000000001e-01
ITEM: ATOMS id type xs ys zs
19 1 0.727716 0.51357 0.502407
4 1 0.885623 0.5387 0.504374
1 1 0.641975 0.649066 0.496153
33 1 0.786161 0.635253 0.504574
40 1 0.90827 0.681827 0.501391
13 1 0.128155 0.705023 0.508084
15 1 0.248791 0.747909 0.493835
18 1 0.391148 0.727566 0.506257
25 1 0.525228 0.689826 0.503555
59 1 0.689594 0.771764 0.496805
37 1 0.799488 0.75879 0.498168
46 1 0.0117059 0.709246 0.504088
8 1 0.0602123 0.827992 0.498219
56 1 0.31504 0.853093 0.489512
58 1 0.40926 0.859238 0.489716
79 1 0.506626 0.774674 0.501432
34 1 0.524486 0.868933 0.49667
55 1 0.591298 0.770272 0.50397
57 1 0.626966 0.843567 0.499035
14 1 0.910205 0.828144 0.500791
27 1 0.365326 0.950749 0.506619
52 1 0.479135 0.966776 0.504821
7 1 0.612752 0.966018 0.510297
6 1 0.75402 0.885643 0.501113
ITEM: TIMESTEP
6250
ITEM: NUMBER OF ATOMS
24
ITEM: BOX BOUNDS pp pp pp
-4.7754150620630806e+00 4.7754150620630806e+00
-4.9015396869216694e+00 4.9015396869216694e+00
-1.0000000000000001e-01 1.0000000000000001e-01
ITEM: ATOMS id type xs ys zs
19 1 0.725888 0.513991 0.499303
4 1 0.884193 0.538519 0.504341
1 1 0.641533 0.649027 0.495469
33 1 0.785299 0.635118 0.502789
40 1 0.907842 0.681381 0.500521
13 1 0.128479 0.703335 0.508011
15 1 0.248356 0.747489 0.493057
18 1 0.39076 0.727296 0.506841
25 1 0.524983 0.690123 0.502406
59 1 0.689493 0.771437 0.496789
37 1 0.79938 0.75889 0.497308
46 1 0.011279 0.70707 0.503691
8 1 0.0606861 0.826069 0.498154
56 1 0.31397 0.853882 0.488904
58 1 0.4092 0.858378 0.488029
79 1 0.505756 0.775001 0.502657
34 1 0.524025 0.869028 0.498214
55 1 0.590819 0.770479 0.502397
57 1 0.626936 0.843557 0.499205
14 1 0.910555 0.827475 0.498866
27 1 0.365307 0.94985 0.507014
52 1 0.478467 0.966779 0.5063
7 1 0.611752 0.966622 0.510068
6 1 0.753038 0.88539 0.501734
ITEM: TIMESTEP
6500
ITEM: NUMBER OF ATOMS
24
ITEM: BOX BOUNDS pp pp pp
-4.7742137602261758e+00 4.7742137602261758e+00
-4.8895683258108189e+00 4.8895683258108189e+00
-1.0000000000000001e-01 1.0000000000000001e-01
ITEM: ATOMS id type xs ys zs
19 1 0.725492 0.513096 0.500076
4 1 0.883856 0.538016 0.505096
1 1 0.641597 0.648654 0.49546
33 1 0.785276 0.635081 0.502708
40 1 0.907827 0.681017 0.501911
13 1 0.128461 0.701598 0.504479
15 1 0.247889 0.747913 0.492498
18 1 0.3907 0.727426 0.508782
25 1 0.524423 0.689629 0.503618
59 1 0.688943 0.771388 0.497719
37 1 0.799694 0.759694 0.497136
46 1 0.0113292 0.707326 0.504599
8 1 0.0621954 0.826387 0.498307
56 1 0.313182 0.854425 0.487671
58 1 0.407861 0.859446 0.489441
79 1 0.505279 0.774406 0.502126
34 1 0.522712 0.868697 0.498187
55 1 0.589912 0.770502 0.503077
57 1 0.626016 0.843637 0.498571
14 1 0.912247 0.827343 0.498185
27 1 0.36402 0.951039 0.505363
52 1 0.477979 0.966821 0.506077
7 1 0.611448 0.966307 0.509499
6 1 0.753019 0.885339 0.501877
ITEM: TIMESTEP
6750
ITEM: NUMBER OF ATOMS
24
ITEM: BOX BOUNDS pp pp pp
-4.7730124583892710e+00 4.7730124583892710e+00
-4.8785494861216341e+00 4.8785494861216341e+00
-1.0000000000000001e-01 1.0000000000000001e-01
ITEM: ATOMS id type xs ys zs
19 1 0.72618 0.512046 0.502022
4 1 0.884607 0.538861 0.503969
1 1 0.640542 0.647704 0.495092
33 1 0.784923 0.635473 0.502873
40 1 0.907535 0.682287 0.500407
13 1 0.127736 0.701919 0.503529
15 1 0.24751 0.74772 0.489752
18 1 0.389974 0.727378 0.510729
25 1 0.524178 0.688953 0.50395
59 1 0.689463 0.771098 0.495493
37 1 0.799798 0.759889 0.497134
46 1 0.0118822 0.706522 0.505909
8 1 0.0619064 0.826133 0.498061
56 1 0.311699 0.855564 0.484891
58 1 0.407169 0.85956 0.490141
79 1 0.505318 0.773789 0.501892
34 1 0.52287 0.868169 0.497542
55 1 0.590473 0.769592 0.505687
57 1 0.626317 0.843387 0.497346
14 1 0.911284 0.828825 0.498233
27 1 0.363608 0.951678 0.505134
52 1 0.477333 0.966367 0.506078
7 1 0.610312 0.96652 0.508599
6 1 0.752061 0.886048 0.501628
ITEM: TIMESTEP
7000
ITEM: NUMBER OF ATOMS
24
ITEM: BOX BOUNDS pp pp pp
-4.7718111565523662e+00 4.7718111565523662e+00
-4.8815080743279466e+00 4.8815080743279466e+00
-1.0000000000000001e-01 1.0000000000000001e-01
ITEM: ATOMS id type xs ys zs
19 1 0.72677 0.513678 0.502976
4 1 0.884593 0.539311 0.504292
1 1 0.640782 0.648151 0.494643
33 1 0.78548 0.635559 0.503808
40 1 0.907327 0.682342 0.500579
13 1 0.127315 0.702547 0.503921
15 1 0.247457 0.747325 0.489406
18 1 0.390028 0.728928 0.510648
25 1 0.523903 0.689175 0.505985
59 1 0.688143 0.771533 0.494457
37 1 0.798144 0.759864 0.498011
46 1 0.0110385 0.706789 0.506079
8 1 0.060862 0.827172 0.497339
56 1 0.311333 0.855085 0.485177
58 1 0.406026 0.860573 0.488972
79 1 0.504728 0.774465 0.503526
34 1 0.521832 0.869143 0.498755
55 1 0.589782 0.769821 0.506259
57 1 0.624855 0.843953 0.497985
14 1 0.910802 0.828551 0.498915
27 1 0.361963 0.952583 0.504428
52 1 0.476192 0.966835 0.506064
7 1 0.609243 0.9671 0.509808
6 1 0.751186 0.886226 0.503619
ITEM: TIMESTEP
7250
ITEM: NUMBER OF ATOMS
24
ITEM: BOX BOUNDS pp pp pp
-4.7706098547154623e+00 4.7706098547154623e+00
-4.8802520145007824e+00 4.8802520145007824e+00
-1.0000000000000001e-01 1.0000000000000001e-01
ITEM: ATOMS id type xs ys zs
19 1 0.726149 0.512902 0.504495
4 1 0.884771 0.539548 0.506851
1 1 0.641047 0.648129 0.4937
33 1 0.785124 0.635367 0.502447
40 1 0.906907 0.681991 0.502501
13 1 0.127155 0.703149 0.504897
15 1 0.247176 0.748787 0.491066
18 1 0.390759 0.729343 0.509204
25 1 0.52427 0.689352 0.504552
59 1 0.688273 0.771655 0.49391
37 1 0.798126 0.759746 0.498869
46 1 0.0106779 0.708172 0.505961
8 1 0.0603278 0.827448 0.497123
56 1 0.310763 0.85601 0.485302
58 1 0.406228 0.861205 0.490024
79 1 0.504793 0.774052 0.502604
34 1 0.522066 0.868786 0.497089
55 1 0.590073 0.770536 0.505878
57 1 0.625769 0.84452 0.498426
14 1 0.910101 0.828818 0.499671
27 1 0.362236 0.953096 0.505369
52 1 0.476367 0.966209 0.506574
7 1 0.609638 0.967661 0.509704
6 1 0.752141 0.886613 0.502625
ITEM: TIMESTEP
7500
ITEM: NUMBER OF ATOMS
24
ITEM: BOX BOUNDS pp pp pp
-4.7694085528785575e+00 4.7694085528785575e+00
-4.8824050023543277e+00 4.8824050023543277e+00
-1.0000000000000001e-01 1.0000000000000001e-01
ITEM: ATOMS id type xs ys zs
19 1 0.72647 0.513219 0.504727
4 1 0.885008 0.539177 0.506991
1 1 0.640458 0.64827 0.492501
33 1 0.784909 0.634842 0.500759
40 1 0.907225 0.68222 0.501158
13 1 0.127576 0.70282 0.503619
15 1 0.247323 0.748848 0.490719
18 1 0.390026 0.729134 0.507363
25 1 0.523805 0.689568 0.504476
59 1 0.687809 0.771517 0.494327
37 1 0.798615 0.759038 0.498055
46 1 0.0107125 0.708746 0.505424
8 1 0.0605672 0.827477 0.49642
56 1 0.310821 0.855807 0.484084
58 1 0.405983 0.861024 0.488941
79 1 0.503511 0.774075 0.502852
34 1 0.522584 0.868286 0.497122
55 1 0.588919 0.770635 0.507197
57 1 0.625882 0.844415 0.500649
14 1 0.909676 0.828778 0.499504
27 1 0.36169 0.953 0.504511
52 1 0.476245 0.965634 0.505879
7 1 0.610077 0.967169 0.511017
6 1 0.752173 0.886212 0.501974
ITEM: TIMESTEP
7750
ITEM: NUMBER OF ATOMS
24