LAMMPS (23 Jun 2022 - Update 4)
  using 1 OpenMP thread(s) per MPI task
# Compute elastic constant tensor for a crystal
#
# Written by Aidan Thompson (Sandia, athomps@sandia.gov)
#
#  This script uses the following three include files.
#
#   init.mod      (must be modified for different crystal structures)
# 	       	  Define units, deformation parameters and initial
#		  configuration of the atoms and simulation cell.
#
#
#   potential.mod    (must be modified for different pair styles)
# 		     Define pair style and other attributes
#		     not stored in restart file
#
#
#   displace.mod    (displace.mod should not need to be modified)
# 		    Perform positive and negative box displacements
# 		    in direction ${dir} and size ${up}.
# 		    It uses the resultant changes
#		    in stress to compute one
# 		    row of the elastic stiffness tensor
#
#		    Inputs variables:
#		    	   dir = the Voigt deformation component
#		    		    (1,2,3,4,5,6)
#		    Global constants:
#       	    	   up = the deformation magnitude (strain units)
#       		   cfac = conversion from LAMMPS pressure units to
#               	   output units for elastic constants
#
#
#  To run this on a different system, it should only be necessary to
#  modify the files init.mod and potential.mod. In order to calculate
#  the elastic constants correctly, care must be taken to specify
#  the correct units in init.mod (units, cfac and cunits). It is also
#  important to verify that the minimization of energy w.r.t atom
#  positions in the deformed cell is fully converged.
#  One indication of this is that the elastic constants are insensitive
#  to the choice of the variable ${up} in init.mod. Another is to check
#  the final max and two-norm forces reported in the log file. If you know
#  that minimization is not required, you can set maxiter = 0.0 in
#  init.mod.
#



variable dt equal 0.01
variable strain equal 0.05
variable srate equal 1e-4
variable M equal 1000 # averaging time for properties
variable strainsteps equal ${strain}/${dt}/${srate}
variable strainsteps equal 0.05/${dt}/${srate}
variable strainsteps equal 0.05/0.01/${srate}
variable strainsteps equal 0.05/0.01/0.0001


dimension 2
include init.mod
# NOTE: This script can be modified for different atomic structures,
# units, etc. See in.elastic for more info.
#

# Define the finite deformation size. Try several values of this
# variable to verify that results do not depend on it.
variable up equal 1.0e-1

# Define the amount of random jiggle for atoms
# This prevents atoms from staying on saddle points
variable atomjiggle equal 1.0e-6

# Uncomment one of these blocks, depending on what units
# you are using in LAMMPS and for output

# metal units, elastic constants in eV/A^3
#units		metal
#variable cfac equal 6.2414e-7
#variable cunits string eV/A^3

# Choose potential
# metal units, elastic constants in GPa
units		metal
atom_style	full
#pair_style      lj/cut 1.0
#pair_style      yukawa 1.0 2.0
#pair_modify     mix arithmetic
bond_style      harmonic
angle_style     harmonic
dihedral_style  zero
special_bonds   amber
variable cfac equal 1.0e-4
variable cunits string GPa
boundary	p p p

# Need to set mass to something, just to satisfy LAMMPS
#mass 1 1.0e-20
read_data network.lmp
Reading data file ...
  orthogonal box = (-4.805207 -4.805207 -0.1) to (4.805207 4.805207 0.1)
  1 by 1 by 1 MPI processor grid
WARNING: Atom style in data file differs from currently defined atom style (src/read_data.cpp:538)
  reading atoms ...
  24 atoms
WARNING: Bond style in data file differs from currently defined bond style (src/read_data.cpp:630)
  scanning bonds ...
  4 = max bonds/atom
  reading bonds ...
  48 bonds
Finding 1-2 1-3 1-4 neighbors ...
  special bond factors lj:    0        0        0.5     
  special bond factors coul:  0        0        0.8333333333333334
     6 = max # of 1-2 neighbors
    19 = max # of 1-3 neighbors
    85 = max # of 1-4 neighbors
    20 = max # of special neighbors
  special bonds CPU = 0.000 seconds
  read_data CPU = 0.003 seconds

# real units, elastic constants in GPa
#units		real
#variable cfac equal 1.01325e-4
#variable cunits string GPa

# Define minimization parameters
variable etol equal 0.0
variable ftol equal 5.0e-10
variable maxiter equal 100000
variable maxeval equal 20000
variable dmax equal 1.0e-2


include potential.mod
# NOTE: This script can be modified for different pair styles
# See in.elastic for more info.

# Setup neighbor style
neighbor 3.0 nsq
neigh_modify once no every 1 delay 0 check yes
comm_modify cutoff 2.0

# Setup minimization style
min_style	     cg
min_modify	     dmax ${dmax} line quadratic
min_modify	     dmax 0.01 line quadratic

timestep	0.001


# Setup output
thermo		500
thermo_style custom step temp pe ebond eangle edihed press pxx pyy pzz pxy pxz pyz lx ly lz vol
thermo_modify norm no


#change_box all triclinic
comm_modify mode single cutoff 10.0 vel yes
atom_modify sort 0 0



# Compute initial state

#dump rela all atom 1 traj_relax.lmpstrj
fix 3 all box/relax x 0 y 0 # xy 0  #MS comment: relax if the network is periodic
minimize ${etol} ${ftol} ${maxiter} ${maxeval}
minimize 0 ${ftol} ${maxiter} ${maxeval}
minimize 0 5e-10 ${maxiter} ${maxeval}
minimize 0 5e-10 100000 ${maxeval}
minimize 0 5e-10 100000 20000
Neighbor list info ...
  update every 1 steps, delay 0 steps, check yes
  max neighbors/atom: 2000, page size: 100000
  master list distance cutoff = 0
  ghost atom cutoff = 10
  0 neighbor lists, perpetual/occasional/extra = 0 0 0
WARNING: Inconsistent image flags (src/domain.cpp:819)
Per MPI rank memory allocation (min/avg/max) = 8.059 | 8.059 | 8.059 Mbytes
   Step          Temp          PotEng         E_bond        E_angle        E_dihed         Press           Pxx            Pyy            Pzz            Pxy            Pxz            Pyz             Lx             Ly             Lz           Volume    
         0   0              7.9275808e-12  7.9275808e-12  0              0             -0.021157264   -0.031765246   -0.010549282    0             -0.020035518    0              0              9.610414       9.610414       0.2            92.360057    
        50   0              1.0027106e-14  1.0027106e-14  0              0             -1.2217846e-06 -1.7660366e-06 -6.7753262e-07  0             -1.8070977e-07  0              0              9.6104147      9.6104145      0.2            92.360068    
Loop time of 0.00114777 on 1 procs for 50 steps with 24 atoms

0.0% CPU use with 1 MPI tasks x 1 OpenMP threads

Minimization stats:
  Stopping criterion = force tolerance
  Energy initial, next-to-last, final = 
    7.92758080333424e-12 1.00271240497706e-14 1.00271057209423e-14
  Force two-norm initial, final = 8.7237067e-06 3.7962435e-10
  Force max component initial, final = 3.4711697e-06 1.6959626e-10
  Final line search alpha, max atom move = 1 1.6959626e-10
  Iterations, force evaluations = 50 100

MPI task timing breakdown:
Section |  min time  |  avg time  |  max time  |%varavg| %total
---------------------------------------------------------------
Pair    | 0          | 0          | 0          |   0.0 |  0.00
Bond    | 0.00014047 | 0.00014047 | 0.00014047 |   0.0 | 12.24
Neigh   | 0          | 0          | 0          |   0.0 |  0.00
Comm    | 0.00034049 | 0.00034049 | 0.00034049 |   0.0 | 29.67
Output  | 0          | 0          | 0          |   0.0 |  0.00
Modify  | 0          | 0          | 0          |   0.0 |  0.00
Other   |            | 0.0006668  |            |       | 58.10

Nlocal:             24 ave          24 max          24 min
Histogram: 1 0 0 0 0 0 0 0 0 0
Nghost:            201 ave         201 max         201 min
Histogram: 1 0 0 0 0 0 0 0 0 0
Neighs:              0 ave           0 max           0 min
Histogram: 1 0 0 0 0 0 0 0 0 0

Total # of neighbors = 0
Ave neighs/atom = 0
Ave special neighs/atom = 15.833333
Neighbor list builds = 0
Dangerous builds = 0
#dump rela all atom 1 traj_relax.lmpstrj
thermo 100
unfix 3

fix 2d all enforce2d



#dump dump0 all xyz 1000000 cfg0.xyz
#dump_modify dump0 format line "%d %20.10g %20.10g %20.10g"
#minimize ${etol} ${ftol} ${maxiter} ${maxeval}

#undump rela

#write_restart restart.equil

# These formulas define the derivatives w.r.t. strain components
# Constants uses $, variables use v_


timestep        ${dt}
timestep        0.01
variable nsteps equal round(${strainsteps})
variable nsteps equal round(50000)

fix             4 all nve
fix             5 all langevin 0.1 0.1 1 904297
#fix		6 all press/berendsen y  0.0 0.0 1 x 0.0 0.0 10
fix             6 all nph y 0.0 0.0 10 ptemp 0.1 # x 0.0 0.0 10

# For PLUMED2
# fix 22 all plumed plumedfile plumed.dat outfile plumed.out

#fix             6 all nph x 0.0 0.0 10
fix     	9 all deform 1 x erate -${srate} units box remap x
fix     	9 all deform 1 x erate -0.0001 units box remap x

#fix     8 all deform 1 xy erate ${srate} units box remap x



#fix    10 all ave/time

dump 1 all atom 250 deform_dump.lammpstrj


#To avoid flying ice cube phenomenon:
#fix 21 all momentum 100 linear 1 1 1 angular


run  ${nsteps}
run  50000
WARNING: One or more atoms are time integrated more than once (src/modify.cpp:292)
WARNING: Inconsistent image flags (src/domain.cpp:819)
Per MPI rank memory allocation (min/avg/max) = 6.934 | 6.934 | 6.934 Mbytes
   Step          Temp          PotEng         E_bond        E_angle        E_dihed         Press           Pxx            Pyy            Pzz            Pxy            Pxz            Pyz             Lx             Ly             Lz           Volume    
        50   0              1.0027106e-14  1.0027106e-14  0              0             -1.2217846e-06 -1.7660366e-06 -6.7753262e-07  0             -1.8070977e-07  0              0              9.6104147      9.6104145      0.2            92.360068    
       100   0.11655664     0.00015354645  0.00015354645  0              0             -10.696385      9.4067186     -30.87346       0              193.88427      0              0              9.6099342      9.6161299      0.2            92.410375    
       200   0.13967419     0.00043172479  0.00043172479  0              0             -104.08428     -191.63759     -16.620377      0              214.23932      0              0              9.6089731      9.5997201      0.2            92.243452    
       300   0.17535062     0.00036485808  0.00036485808  0              0              158.32715      273.19924      43.380484      0             -425.83899      0              0              9.6080121      9.5842899      0.2            92.085974    
       400   0.18325769     0.00030543347  0.00030543347  0              0              243.37183      566.71694     -80.072216      0              144.41232      0              0              9.6070511      9.6002571      0.2            92.23016     
       500   0.1867086      0.00029781278  0.00029781278  0              0              99.807139      94.948029      104.58468      0             -210.04772      0              0              9.60609        9.5966442      0.2            92.186228    
       600   0.1879957      0.0003669297   0.0003669297   0              0             -313.47726     -624.86429     -2.1703849      0             -111.09765      0              0              9.605129       9.5977056      0.2            92.1872      
       700   0.17648485     0.00032993904  0.00032993904  0              0             -2.2169552      54.879299     -59.378738      0             -66.633859      0              0              9.6041679      9.6134935      0.2            92.329605    
       800   0.20070735     0.00029886949  0.00029886949  0              0             -76.612986     -221.19176      67.872924      0             -59.918379      0              0              9.6032069      9.6113401      0.2            92.299687    
       900   0.21556799     0.00042955604  0.00042955604  0              0             -272.87142     -519.0523      -26.763423      0              322.11553      0              0              9.6022458      9.6079812      0.2            92.258197    
      1000   0.15732286     0.00027883482  0.00027883482  0              0              154.01742      377.79793     -69.809937      0              1.3083629      0              0              9.6012848      9.6092753      0.2            92.261388    
      1100   0.15623758     0.00035217307  0.00035217307  0              0              345.18431      583.26177      107.02957      0             -393.84103      0              0              9.6003238      9.6267934      0.2            92.420333    
      1200   0.26784429     0.00041038081  0.00041038081  0              0             -232.32163     -463.66498     -1.037055       0             -304.28417      0              0              9.5993627      9.6440381      0.2            92.57662     
      1300   0.22346678     0.00035111147  0.00035111147  0              0              163.76667      502.52412     -175.08176      0              34.41006       0              0              9.5984017      9.6694741      0.2            92.811497    
      1400   0.21852512     0.00023290732  0.00023290732  0              0              55.111606     -144.34177      254.51125      0             -20.122253      0              0              9.5974406      9.654535       0.2            92.658826    
      1500   0.20086782     0.00037629085  0.00037629085  0              0              175.17739      599.40461     -249.11274      0             -114.5023       0              0              9.5964796      9.6656299      0.2            92.75602     
      1600   0.24684411     0.00037521932  0.00037521932  0              0              297.71777      552.77231      42.577067      0              272.59663      0              0              9.5955186      9.6338513      0.2            92.441799    
      1700   0.2345535      0.00033028812  0.00033028812  0              0              35.645954     -64.187124      135.40366      0             -59.771093      0              0              9.5945575      9.6284769      0.2            92.380976    
      1800   0.19635688     0.00036253074  0.00036253074  0              0             -97.566483      68.080232     -263.28318      0             -215.42403      0              0              9.5935965      9.6301054      0.2            92.387345    
      1900   0.28272807     0.00031854868  0.00031854868  0              0              98.325102     -40.534038      237.10904      0             -379.69979      0              0              9.5926354      9.622911       0.2            92.309077    
      2000   0.31219411     0.00027243206  0.00027243206  0              0             -46.488955      2.0622488     -95.105974      0              70.541513      0              0              9.5916744      9.6535519      0.2            92.593727    
      2100   0.20313071     0.00050083107  0.00050083107  0              0              134.22301      510.31542     -241.95679      0              304.2545       0              0              9.5907133      9.6702403      0.2            92.744503    
      2200   0.31251129     0.00033799567  0.00033799567  0              0              300.54751      227.12477      373.89279      0              542.32761      0              0              9.5897523      9.6690709      0.2            92.723995    
      2300   0.27560652     0.00032776187  0.00032776187  0              0             -85.831291      114.30685     -286.0389       0             -79.596985      0              0              9.5887913      9.6619202      0.2            92.646136    
      2400   0.1888528      0.00035556095  0.00035556095  0              0              574.2423       1094.871       53.534581      0              145.873        0              0              9.5878302      9.6650975      0.2            92.667314    
      2500   0.27531836     0.0005081211   0.0005081211   0              0              612.79792      936.00095      289.53292      0             -258.01468      0              0              9.5868692      9.6531183      0.2            92.543183    
      2600   0.15658565     0.00036936776  0.00036936776  0              0              25.589662      483.48342     -432.36447      0             -92.63469       0              0              9.5859081      9.6649559      0.2            92.647379    
      2700   0.15772209     0.00035255522  0.00035255522  0              0              699.04681      1045.3495      352.68945      0             -59.363876      0              0              9.5849471      9.6612545      0.2            92.602614    
      2800   0.15738559     0.00025999783  0.00025999783  0              0              554.21051      1091.1876      17.191567      0             -236.00866      0              0              9.5839861      9.671076       0.2            92.687458    
      2900   0.2207262      0.00033876487  0.00033876487  0              0             -16.630989      374.45405     -407.78029      0              32.865259      0              0              9.583025       9.6698154      0.2            92.666083    
      3000   0.22282462     0.0003569546   0.0003569546   0              0              555.51253      685.2593       425.69532      0              2.3324456      0              0              9.582064       9.6506712      0.2            92.473349    
      3100   0.24122972     0.00050568717  0.00050568717  0              0              320.8646       797.43771     -155.78195      0              150.75356      0              0              9.5811029      9.682148       0.2            92.765656    
      3200   0.23242436     0.00055736906  0.00055736906  0              0              49.979283      419.26444     -319.39207      0              157.4601       0              0              9.5801419      9.690764       0.2            92.838894    
      3300   0.18484211     0.00058468311  0.00058468311  0              0              968.77953      1343.6877      593.81368      0              263.74487      0              0              9.5791808      9.6938236      0.2            92.858889    
      3400   0.19702132     0.00047494231  0.00047494231  0              0              11.596813      515.61108     -492.52665      0              99.501849      0              0              9.5782198      9.7170309      0.2            93.071858    
      3500   0.12720014     0.00035433009  0.00035433009  0              0              313.26651      640.75835     -14.297271      0              35.721332      0              0              9.5772588      9.7069085      0.2            92.965574    
      3600   0.23716917     0.00047038831  0.00047038831  0              0              710.87059      974.42419      447.25909      0              139.8752       0              0              9.5762977      9.7103733      0.2            92.989426    
      3700   0.22262129     0.00034959886  0.00034959886  0              0             -74.610974      447.72286     -597.00972      0              172.55436      0              0              9.5753367      9.7286114      0.2            93.15473     
      3800   0.16151336     0.00039845751  0.00039845751  0              0              716.24663      1138.2462      294.19182      0              360.19803      0              0              9.5743756      9.7259726      0.2            93.120115    
      3900   0.2292942      0.0002728824   0.0002728824   0              0              340.59896      375.62148      305.50927      0              53.479703      0              0              9.5734146      9.7562717      0.2            93.400834    
      4000   0.229499       0.00044122684  0.00044122684  0              0             -285.12364      5.2423036     -575.57608      0              245.01302      0              0              9.5724536      9.7999468      0.2            93.809536    
      4100   0.19468357     0.00028919469  0.00028919469  0              0              593.25743      814.85765      371.59778      0              152.37741      0              0              9.5714925      9.8001066      0.2            93.801647    
      4200   0.20352989     0.00030943378  0.00030943378  0              0              460.3955       867.10121      53.628785      0              399.68281      0              0              9.5705315      9.786564       0.2            93.662619    
      4300   0.24276717     0.00040734253  0.00040734253  0              0             -5.5985158      365.95702     -377.22506      0             -48.510728      0              0              9.5695704      9.7971082      0.2            93.754117    
      4400   0.14791873     0.00042373442  0.00042373442  0              0              717.86756      973.37861      462.27038      0              167.29406      0              0              9.5686094      9.7851429      0.2            93.63021     
      4500   0.18487642     0.00039442781  0.00039442781  0              0              224.73809      634.01867     -184.62538      0             -150.41439      0              0              9.5676483      9.8008889      0.2            93.771459    
      4600   0.20173409     0.00042916059  0.00042916059  0              0              31.410725      292.74834     -229.99376      0             -101.81293      0              0              9.5666873      9.7927106      0.2            93.6838      
      4700   0.23904047     0.00036034163  0.00036034163  0              0              418.91157      450.53815      387.21865      0             -125.28372      0              0              9.5657263      9.7697386      0.2            93.454645    
      4800   0.14248918     0.00037509414  0.00037509414  0              0              252.83934      821.6093      -316.0005       0              147.63747      0              0              9.5647652      9.7877029      0.2            93.61708     
      4900   0.25355117     0.00035656435  0.00035656435  0              0              413.77551      859.2464      -31.787603      0             -151.64235      0              0              9.5638042      9.7875786      0.2            93.606485    
      5000   0.21566209     0.00033628925  0.00033628925  0              0              564.12715      829.1427       299.04053      0             -14.43383       0              0              9.5628431      9.8109655      0.2            93.820724    
      5100   0.22739897     0.00040888987  0.00040888987  0              0              244.39205      896.64186     -407.92806      0             -199.52562      0              0              9.5618821      9.8338493      0.2            94.030107    
      5200   0.24307492     0.00040118047  0.00040118047  0              0              284.90995      367.21576      202.52387      0              28.434282      0              0              9.5609211      9.8196704      0.2            93.885093    
      5300   0.13642354     0.00043134993  0.00043134993  0              0              476.81306      889.1101       64.440676      0              118.82233      0              0              9.55996        9.8186572      0.2            93.86597     
      5400   0.22889168     0.00034991873  0.00034991873  0              0              322.15545      927.42224     -283.16868      0              192.30875      0              0              9.558999       9.8203725      0.2            93.87293     
      5500   0.19426943     0.00031781705  0.00031781705  0              0              560.9534       766.83919      355.01656      0              63.360618      0              0              9.5580379      9.8006969      0.2            93.675432    
      5600   0.25231062     0.00024257417  0.00024257417  0              0             -52.687345      114.02695     -219.47933      0             -76.856399      0              0              9.5570769      9.8136117      0.2            93.789442    
      5700   0.22715842     0.00052666244  0.00052666244  0              0              395.05613      907.47046     -117.4323       0             -96.426951      0              0              9.5561159      9.7944003      0.2            93.596424    
      5800   0.18329423     0.00035991978  0.00035991978  0              0              528.26137      752.32975      304.13724      0             -415.31514      0              0              9.5551548      9.776083       0.2            93.411987    
      5900   0.2669367      0.00032694846  0.00032694846  0              0              41.603095      306.10031     -222.94227      0              227.88741      0              0              9.5541938      9.7899237      0.2            93.534828    
      6000   0.17571726     0.00041420503  0.00041420503  0              0              495.25549      948.00934      42.441117      0              134.92686      0              0              9.5532327      9.7943542      0.2            93.567745    
      6100   0.22522899     0.00039442133  0.00039442133  0              0              458.56361      686.70907      230.3623       0              199.18641      0              0              9.5522717      9.7887194      0.2            93.504507    
      6200   0.2229418      0.00033867918  0.00033867918  0              0              466.85054      1332.3508     -398.74327      0              244.93575      0              0              9.5513106      9.8157023      0.2            93.752822    
      6300   0.19552511     0.00034214976  0.00034214976  0              0              434.08012      643.94329      224.15837      0              5.5760948      0              0              9.5503496      9.7835003      0.2            93.435848    
      6400   0.24789171     0.00035344729  0.00035344729  0              0              102.92457      140.39776      65.400802      0             -166.35436      0              0              9.5493886      9.7790657      0.2            93.384098    
      6500   0.2154418      0.0003607392   0.0003607392   0              0             -33.321471      180.24254     -246.95749      0              128.2289       0              0              9.5484275      9.7791367      0.2            93.375378    
      6600   0.29137894     0.00044894943  0.00044894943  0              0              655.21682      965.97971      344.36384      0              125.87901      0              0              9.5474665      9.7471927      0.2            93.060996    
      6700   0.1824584      0.00034898386  0.00034898386  0              0             -37.227738      127.17602     -201.69301      0             -166.20257      0              0              9.5465054      9.7467639      0.2            93.047534    
      6800   0.19092996     0.0004222578   0.0004222578   0              0              276.99228      533.35513      20.554802      0              27.059588      0              0              9.5455444      9.7473867      0.2            93.044113    
      6900   0.26305589     0.0003973097   0.0003973097   0              0              121.77864      27.993139      215.50666      0              137.77733      0              0              9.5445834      9.7535837      0.2            93.093893    
      7000   0.25562904     0.00037708985  0.00037708985  0              0              409.92177      1053.7939     -234.00708      0              168.23836      0              0              9.5436223      9.7630161      0.2            93.174539    
      7100   0.23477849     0.00035428456  0.00035428456  0              0              402.21082      644.75666      159.5847       0              213.84679      0              0              9.5426613      9.7707699      0.2            93.239147    
      7200   0.17352547     0.00040593268  0.00040593268  0              0              471.68567      1000.1933     -56.87709       0              418.91446      0              0              9.5417002      9.76193        0.2            93.14541     
      7300   0.17883748     0.00040745416  0.00040745416  0              0              112.93763      275.65884     -49.871903      0             -126.47742      0              0              9.5407392      9.7648546      0.2            93.163931    
      7400   0.2578947      0.00028392985  0.00028392985  0              0              426.73344      746.24532      107.15467      0              64.763373      0              0              9.5397781      9.7496031      0.2            93.00905     
      7500   0.19223162     0.00040339051  0.00040339051  0              0             -305.51292     -553.2031      -57.878412      0              233.30538      0              0              9.5388171      9.76481        0.2            93.144737    
      7600   0.24594176     0.00043179464  0.00043179464  0              0              124.04355      262.46736     -14.435658      0             -63.282844      0              0              9.5378561      9.7755242      0.2            93.237543    
      7700   0.25674022     0.00043036214  0.00043036214  0              0              16.028492      59.775227     -27.788853      0              45.781838      0              0              9.536895       9.771943       0.2            93.193994    
      7800   0.22450295     0.00039123721  0.00039123721  0              0             -155.15307     -293.67213     -16.702109      0              243.16716      0              0              9.535934       9.7731249      0.2            93.195873    
      7900   0.2359203      0.00040234616  0.00040234616  0              0             -57.782703     -110.55532     -5.0838858      0              647.40361      0              0              9.5349729      9.7980694      0.2            93.424326    
      8000   0.14191589     0.00036496972  0.00036496972  0              0              9.7842316      3.493901       15.998418      0              279.17716      0              0              9.5340119      9.7997082      0.2            93.430535    
      8100   0.24780903     0.00045942482  0.00045942482  0              0             -40.560539     -88.30766       7.1331436      0              202.37223      0              0              9.5330509      9.7862488      0.2            93.292808    
      8200   0.17248496     0.00032931571  0.00032931571  0              0              338.12628      738.40719     -62.226168      0              94.002313      0              0              9.5320898      9.8040763      0.2            93.453336    
      8300   0.2127661      0.00039056641  0.00039056641  0              0              432.67913      774.41408      90.870427      0              308.50339      0              0              9.5311288      9.7896754      0.2            93.306657    
      8400   0.26681708     0.00036989715  0.00036989715  0              0              152.11361      413.04327     -108.90198      0              86.114463      0              0              9.5301677      9.7996584      0.2            93.392389    
      8500   0.14997411     0.00035423271  0.00035423271  0              0              52.013152      39.904807      64.048213      0              20.970449      0              0              9.5292067      9.807733       0.2            93.459915    
      8600   0.26704314     0.00051765955  0.00051765955  0              0              297.41662      640.08184     -45.323421      0              74.779499      0              0              9.5282456      9.7847792      0.2            93.23178     
      8700   0.21686997     0.00035157365  0.00035157365  0              0              196.23927      441.81212     -49.394683      0              158.12601      0              0              9.5272846      9.7779693      0.2            93.157496    
      8800   0.20798401     0.00037889064  0.00037889064  0              0              63.048967      41.241221      84.794147      0              169.35449      0              0              9.5263236      9.7950331      0.2            93.310654    
      8900   0.1942265      0.00027739749  0.00027739749  0              0              233.94252      565.74703     -97.936459      0              169.53024      0              0              9.5253625      9.7997151      0.2            93.345839    
      9000   0.15282093     0.00039417939  0.00039417939  0              0              180.3729       334.97415      25.679263      0              167.90884      0              0              9.5244015      9.7876923      0.2            93.221911    
      9100   0.1388962      0.00035862425  0.00035862425  0              0              91.666451      220.91694     -37.657126      0              157.11889      0              0              9.5234404      9.7927289      0.2            93.260471    
      9200   0.25162114     0.00031386741  0.00031386741  0              0              379.77598      817.66186     -58.176846      0             -82.065452      0              0              9.5224794      9.7754703      0.2            93.086714    
      9300   0.26640542     0.00041068165  0.00041068165  0              0              560.5244       1016.9088      104.04804      0              27.968066      0              0              9.5215184      9.7653388      0.2            92.980853    
      9400   0.18743644     0.00036976016  0.00036976016  0              0              331.8563       820.84155     -157.21391      0              0.11986353     0              0              9.5205573      9.7822122      0.2            93.132112    
      9500   0.20998077     0.0005438448   0.0005438448   0              0              218.26111      413.07274      23.388749      0              49.818235      0              0              9.5195963      9.7985535      0.2            93.278274    
      9600   0.23939044     0.00044582384  0.00044582384  0              0              218.2191       304.7089       131.6433       0             -280.54424      0              0              9.5186352      9.8109895      0.2            93.38723     
      9700   0.31835447     0.00044706294  0.00044706294  0              0             -23.400568      120.14817     -167.00365      0              34.292462      0              0              9.5176742      9.8161496      0.2            93.426914    
      9800   0.22415919     0.00038147059  0.00038147059  0              0              324.31101      470.6868       177.87755      0             -227.15761      0              0              9.5167132      9.8153476      0.2            93.409847    
      9900   0.2919888      0.00041474402  0.00041474402  0              0              353.80604      798.85655     -91.322217      0             -244.31629      0              0              9.5157521      9.7976487      0.2            93.231996    
     10000   0.14301531     0.00035935467  0.00035935467  0              0              288.85898      689.64358     -112.01068      0             -151.794        0              0              9.5147911      9.7941316      0.2            93.189116    
     10100   0.21642359     0.00034939247  0.00034939247  0              0              306.41341      395.36641      217.39388      0              118.6436       0              0              9.51383        9.8043592      0.2            93.277007    
     10200   0.21047471     0.00041863059  0.00041863059  0              0              116.91552      401.13528     -167.36055      0             -300.82907      0              0              9.512869       9.8116356      0.2            93.336804    
     10300   0.20201904     0.00044150418  0.00044150418  0              0              102.63056      177.59667      27.576847      0             -317.27153      0              0              9.5119079      9.8075089      0.2            93.288122    
     10400   0.23645206     0.00048963158  0.00048963158  0              0              76.187018      13.492841      138.81182      0             -120.83817      0              0              9.5109469      9.8051451      0.2            93.256214    
     10500   0.21210256     0.00033880303  0.00033880303  0              0             -70.772324      102.98814     -244.60168      0              28.452899      0              0              9.5099859      9.8031071      0.2            93.22741     
     10600   0.19769006     0.00037207834  0.00037207834  0              0              77.839312     -0.48418219     156.07274      0              254.68996      0              0              9.5090248      9.7955999      0.2            93.146602    
     10700   0.23571847     0.00053107818  0.00053107818  0              0             -139.15705     -295.19074      16.800725      0              570.25303      0              0              9.5080638      9.7906934      0.2            93.090537    
     10800   0.24868344     0.00042740146  0.00042740146  0              0             -84.880267      34.393347     -204.22446      0              255.9928       0              0              9.5071027      9.7873998      0.2            93.049815    
     10900   0.24764936     0.00038623056  0.00038623056  0              0              196.16126      140.07809      252.13776      0              120.5076       0              0              9.5061417      9.7980915      0.2            93.142046    
     11000   0.23841964     0.00036302817  0.00036302817  0              0              177.88266      473.10976     -117.38104      0             -355.89625      0              0              9.5051807      9.8044491      0.2            93.19306     
     11100   0.26378885     0.00033999267  0.00033999267  0              0              55.801966      125.85258     -14.311872      0             -340.13693      0              0              9.5042196      9.8147581      0.2            93.281617    
     11200   0.22185713     0.0004180621   0.0004180621   0              0              387.74633      509.66107      265.76771      0             -134.59616      0              0              9.5032586      9.8010318      0.2            93.141739    
     11300   0.21511471     0.00039955331  0.00039955331  0              0             -232.60483     -110.65855     -354.60656      0              78.361167      0              0              9.5022975      9.8035684      0.2            93.156424    
     11400   0.20656993     0.0004846662   0.0004846662   0              0             -75.848921     -332.18747      180.38506      0             -245.62534      0              0              9.5013365      9.7741493      0.2            92.867482    
     11500   0.17268889     0.00041676455  0.00041676455  0              0             -266.67008     -580.07677      46.656628      0              205.32029      0              0              9.5003754      9.7702356      0.2            92.820906    
     11600   0.28906499     0.00039054708  0.00039054708  0              0             -239.56648     -212.24845     -266.98025      0              358.05983      0              0              9.4994144      9.7845728      0.2            92.947712    
     11700   0.27359731     0.00036450659  0.00036450659  0              0              318.51783      299.21417      337.74583      0             -117.2582       0              0              9.4984534      9.7788307      0.2            92.883768    
     11800   0.18576524     0.00028362323  0.00028362323  0              0             -174.53011     -116.74441     -232.37614      0              410.41071      0              0              9.4974923      9.792457       0.2            93.003785    
     11900   0.12372054     0.0004299858   0.0004299858   0              0              154.69727      328.6256      -19.330005      0              1.7680812      0              0              9.4965313      9.7660109      0.2            92.743228    
     12000   0.1307581      0.00039144596  0.00039144596  0              0              690.95356      1068.3609      313.45993      0             -398.91035      0              0              9.4955702      9.761354       0.2            92.689623    
     12100   0.15959724     0.00050834733  0.00050834733  0              0              320.97069      1017.7231     -375.84768      0             -114.15963      0              0              9.4946092      9.7779854      0.2            92.83815     
     12200   0.22401816     0.00036989141  0.00036989141  0              0              238.94947      185.58437      292.24298      0              152.81154      0              0              9.4936482      9.7553598      0.2            92.613953    
     12300   0.28387451     0.00028837924  0.00028837924  0              0              208.83775      410.91259      6.7245421      0             -119.26408      0              0              9.4926871      9.7620187      0.2            92.667789    
     12400   0.17862622     0.00031386845  0.00031386845  0              0             -218.08413     -127.0749      -309.19261      0             -355.8159       0              0              9.4917261      9.7723022      0.2            92.756015    
     12500   0.20016635     0.00032365851  0.00032365851  0              0              434.74958      435.40348      434.00793      0             -80.288214      0              0              9.490765       9.7559866      0.2            92.591777    
     12600   0.19171524     0.00033674495  0.00033674495  0              0              162.97349      687.69268     -361.81871      0             -151.5673       0              0              9.489804       9.7729193      0.2            92.743088    
     12700   0.24774192     0.00029309992  0.00029309992  0              0              119.81966      168.75494      70.851223      0             -185.97456      0              0              9.4888429      9.7615533      0.2            92.625846    
     12800   0.16283663     0.00031213453  0.00031213453  0              0              447.51207      656.95381      238.01434      0              200.47752      0              0              9.4878819      9.7524251      0.2            92.529858    
     12900   0.21973977     0.00049303616  0.00049303616  0              0             -244.8211       30.440083     -520.14168      0             -328.45823      0              0              9.4869209      9.7607334      0.2            92.599305    
     13000   0.21768882     0.00050674135  0.00050674135  0              0              73.267117     -362.24771      508.69561      0              93.457586      0              0              9.4859598      9.7540277      0.2            92.526315    
     13100   0.15790932     0.00034748799  0.00034748799  0              0             -329.7637      -447.09012     -212.49878      0             -109.04891      0              0              9.4849988      9.7697729      0.2            92.666284    
     13200   0.19359377     0.00039961046  0.00039961046  0              0              24.942018      297.17247     -247.37971      0              180.78101      0              0              9.4840377      9.7959441      0.2            92.905103    
     13300   0.22962035     0.00038907151  0.00038907151  0              0              665.69311      794.93496      536.37277      0              110.19503      0              0              9.4830767      9.777094       0.2            92.716932    
     13400   0.1600298      0.00051042123  0.00051042123  0              0             -120.04239      238.71944     -478.89353      0             -312.68947      0              0              9.4821157      9.7821541      0.2            92.755516    
     13500   0.1869427      0.00039983294  0.00039983294  0              0              390.45234      627.16831      153.6544       0             -163.67663      0              0              9.4811546      9.7638859      0.2            92.572912    
     13600   0.22725337     0.0005748369   0.0005748369   0              0              274.68554      340.5873       208.71389      0             -426.45565      0              0              9.4801936      9.7406975      0.2            92.343698    
     13700   0.15974823     0.00044249946  0.00044249946  0              0              263.42425      989.82737     -463.04738      0              17.121565      0              0              9.4792325      9.7657692      0.2            92.571998    
     13800   0.20899888     0.00036507148  0.00036507148  0              0              715.95285      943.90915      487.93547      0              260.36477      0              0              9.4782715      9.7551774      0.2            92.46222     
     13900   0.29633431     0.0003818478   0.0003818478   0              0              168.58789      578.62432     -241.52323      0             -1.609567       0              0              9.4773105      9.7595896      0.2            92.49466     
     14000   0.17597409     0.00033189234  0.00033189234  0              0              269.82982      611.47146     -71.887717      0              145.88696      0              0              9.4763494      9.7621344      0.2            92.509397    
     14100   0.16759434     0.0003267945   0.0003267945   0              0              783.57745      1206.9788      360.11558      0              217.92875      0              0              9.4753884      9.7535541      0.2            92.418713    
     14200   0.24900948     0.00045621292  0.00045621292  0              0             -240.14885     -39.283005     -441.0948       0             -267.5987       0              0              9.4744273      9.7802878      0.2            92.662626    
     14300   0.19945657     0.00036307964  0.00036307964  0              0              433.32208      590.07251      276.51255      0              183.10017      0              0              9.4734663      9.781726       0.2            92.666851    
     14400   0.18873769     0.00041191757  0.00041191757  0              0              456.9064       881.74449      32.013922      0              458.51647      0              0              9.4725052      9.7814875      0.2            92.655192    
     14500   0.22380512     0.00052801099  0.00052801099  0              0             -151.34263      58.731552     -361.50494      0              247.34579      0              0              9.4715442      9.7849572      0.2            92.678654    
     14600   0.18863321     0.0003719294   0.0003719294   0              0              634.33408      836.26146      432.33587      0              90.426226      0              0              9.4705832      9.7566349      0.2            92.401022    
     14700   0.19256861     0.00036216667  0.00036216667  0              0              251.8964       673.93503     -170.2002       0              307.83765      0              0              9.4696221      9.7684539      0.2            92.503567    
     14800   0.19051802     0.00036380292  0.00036380292  0              0             -18.692639      114.80228     -152.26208      0              199.31716      0              0              9.4686611      9.7712973      0.2            92.521102    
     14900   0.25500651     0.00032883833  0.00032883833  0              0              767.93548      1142.9791      392.80012      0              8.0239459      0              0              9.4677         9.7740631      0.2            92.537897    
     15000   0.23069221     0.00047538474  0.00047538474  0              0              133.39907      657.56866     -390.83625      0             -201.79627      0              0              9.466739       9.7675632      0.2            92.466972    
     15100   0.22485165     0.00033797788  0.00033797788  0              0              550.78134      926.49183      175.02251      0             -33.065734      0              0              9.465778       9.7533472      0.2            92.323019    
     15200   0.19257153     0.00036000656  0.00036000656  0              0              568.85697      1066.7277      70.904871      0              285.08162      0              0              9.4648169      9.7623802      0.2            92.399141    
     15300   0.18849925     0.00034737703  0.00034737703  0              0              252.00217      741.38201     -237.45979      0              294.2751       0              0              9.4638559      9.7790908      0.2            92.547906    
     15400   0.15655207     0.00046595318  0.00046595318  0              0              725.73006      1127.3737      323.98757      0              576.11694      0              0              9.4628948      9.7607511      0.2            92.364962    
     15500   0.17030324     0.00046201654  0.00046201654  0              0              299.63675      809.59212     -210.40008      0              254.98509      0              0              9.4619338      9.7610354      0.2            92.35827     
     15600   0.20582279     0.00036201421  0.00036201421  0              0              380.20209      709.30641      51.016015      0              164.54922      0              0              9.4609727      9.7589898      0.2            92.329537    
     15700   0.17068689     0.00034807985  0.00034807985  0              0              450.00787      793.83986      106.11305      0              148.3336       0              0              9.4600117      9.7705079      0.2            92.42912     
     15800   0.20909456     0.00056688453  0.00056688453  0              0             -66.547461      125.00979     -258.18237      0              303.64964      0              0              9.4590507      9.7759671      0.2            92.471368    
     15900   0.23563862     0.00056147575  0.00056147575  0              0             -62.842624     -332.82485      207.05722      0              210.57489      0              0              9.4580896      9.7627987      0.2            92.337426    
     16000   0.21236871     0.00054290649  0.00054290649  0              0              248.11576      554.32814     -58.183628      0             -80.86173       0              0              9.4571286      9.7577996      0.2            92.280765    
     16100   0.16267564     0.00040323556  0.00040323556  0              0              334.58051      774.67918     -105.60557      0              110.42389      0              0              9.4561675      9.7283471      0.2            91.99288     
     16200   0.19324517     0.00038569207  0.00038569207  0              0              608.00417      989.79013      226.13704      0              77.38371       0              0              9.4552065      9.7375061      0.2            92.070131    
     16300   0.2843653      0.0005652234   0.0005652234   0              0              256.50893      712.39797     -199.46128      0              255.6839       0              0              9.4542455      9.7633672      0.2            92.30527     
     16400   0.273495       0.00039798944  0.00039798944  0              0              585.6571       1124.5712      46.653155      0              149.74561      0              0              9.4532844      9.7398677      0.2            92.07374     
     16500   0.24296771     0.00034812654  0.00034812654  0              0              279.85342      426.31845      133.31109      0              85.515072      0              0              9.4523234      9.7490997      0.2            92.151643    
     16600   0.16098136     0.00058876593  0.00058876593  0              0              134.22649      489.3592      -220.97324      0             -468.13341      0              0              9.4513623      9.7638657      0.2            92.281833    
     16700   0.20265967     0.00044743314  0.00044743314  0              0              622.5205       1068.462       176.52178      0             -228.72397      0              0              9.4504013      9.751961       0.2            92.159945    
     16800   0.17760684     0.00047998764  0.00047998764  0              0              136.71192      375.3107      -101.9743       0             -337.5075       0              0              9.4494402      9.7463059      0.2            92.097135    
     16900   0.25746894     0.00056764072  0.00056764072  0              0              500.17209      1010.9135     -10.627114      0             -293.64493      0              0              9.4484792      9.7387933      0.2            92.016786    
     17000   0.24903624     0.00036406968  0.00036406968  0              0              463.45377      810.19956      116.62959      0              25.153845      0              0              9.4475182      9.7492963      0.2            92.106654    
     17100   0.29618325     0.00050659881  0.00050659881  0              0              339.88483      787.56811     -107.86251      0              97.119574      0              0              9.4465571      9.7456723      0.2            92.06305     
     17200   0.24925384     0.00042140729  0.00042140729  0              0              346.63477      703.64265     -10.43085       0              30.070757      0              0              9.4455961      9.7355653      0.2            91.958217    
     17300   0.25873511     0.00035206254  0.00035206254  0              0              374.15294      636.82233      111.40642      0              80.342797      0              0              9.444635       9.7501924      0.2            92.087009    
     17400   0.21819423     0.00043511845  0.00043511845  0              0              7.5256647      220.70447     -205.71054      0             -34.584773      0              0              9.443674       9.7610226      0.2            92.179915    
     17500   0.22805444     0.00037458411  0.00037458411  0              0              82.24769      -14.505059      178.92898      0              110.63851      0              0              9.442713       9.7673371      0.2            92.230161    
     17600   0.27042269     0.00039218022  0.00039218022  0              0             -74.900469     -9.1004028     -140.79113      0              152.99047      0              0              9.4417519      9.7623303      0.2            92.173501    
     17700   0.25360725     0.0003344787   0.0003344787   0              0              478.53688      973.05886     -16.048515      0              21.716375      0              0              9.4407909      9.7528882      0.2            92.074978    
     17800   0.23255354     0.00052102459  0.00052102459  0              0             -255.02132     -667.58844      157.48531      0              188.36597      0              0              9.4398298      9.7578479      0.2            92.112424    
     17900   0.17407022     0.00041679359  0.00041679359  0              0             -183.54382     -95.875664     -271.29726      0              86.896015      0              0              9.4388688      9.7698558      0.2            92.216387    
     18000   0.19991205     0.00030108367  0.00030108367  0              0              394.91927      582.60012      207.17226      0             -136.11327      0              0              9.4379078      9.767063       0.2            92.18064     
     18100   0.20015095     0.00041048747  0.00041048747  0              0              335.20601      732.76482     -62.435045      0             -81.520036      0              0              9.4369467      9.7772827      0.2            92.267696    
     18200   0.22825874     0.00025382907  0.00025382907  0              0              20.806849      255.5717      -214.04841      0              46.382671      0              0              9.4359857      9.8086062      0.2            92.553867    
     18300   0.1756412      0.00041811415  0.00041811415  0              0              134.04863     -119.54283      387.57402      0              2.9052046      0              0              9.4350246      9.8325378      0.2            92.770237    
     18400   0.18429745     0.00037563109  0.00037563109  0              0             -53.790323      303.71428     -411.37632      0              33.70898       0              0              9.4340636      9.8467634      0.2            92.894992    
     18500   0.23936676     0.0002074789   0.0002074789   0              0             -208.57279     -516.79304      99.572383      0              344.51601      0              0              9.4331025      9.8443243      0.2            92.862521    
     18600   0.16746479     0.00041702366  0.00041702366  0              0             -59.929074     -515.63801      395.71501      0              241.41307      0              0              9.4321415      9.8470651      0.2            92.878911    
     18700   0.25508616     0.00037971928  0.00037971928  0              0             -288.02433      92.752726     -668.87931      0             -91.666448      0              0              9.4311805      9.8829826      0.2            93.208192    
     18800   0.23249493     0.00044059772  0.00044059772  0              0              313.78481      135.27328      492.23671      0             -144.61709      0              0              9.4302194      9.8615406      0.2            92.996492    
     18900   0.19970677     0.00039187353  0.00039187353  0              0              201.46869      366.07073      36.812603      0             -117.65045      0              0              9.4292584      9.8640045      0.2            93.010247    
     19000   0.25788068     0.00035300047  0.00035300047  0              0             -658.83135     -702.70019     -615.04551      0              187.24533      0              0              9.4282973      9.8736667      0.2            93.091866    
     19100   0.22881782     0.00045946968  0.00045946968  0              0              737.50779      558.41021      916.54218      0              50.369376      0              0              9.4273363      9.8467433      0.2            92.828561    
     19200   0.26598851     0.00031673282  0.00031673282  0              0             -133.74478      211.42174     -479.01401      0              292.69391      0              0              9.4263753      9.8641781      0.2            92.983444    
     19300   0.24559655     0.00052033162  0.00052033162  0              0             -469.17626     -664.33363     -274.09488      0              63.57536       0              0              9.4254142      9.8417636      0.2            92.762698    
     19400   0.23201355     0.00048824057  0.00048824057  0              0              800.48514      744.97981      855.92291      0             -222.12399      0              0              9.4244532      9.8197399      0.2            92.545678    
     19500   0.15814356     0.00060434477  0.00060434477  0              0             -311.474        237.76837     -860.79108      0              61.99167       0              0              9.4234921      9.8532853      0.2            92.852356    
     19600   0.26862754     0.00043079283  0.00043079283  0              0              266.98618      215.18224      318.73031      0             -37.086385      0              0              9.4225311      9.8323501      0.2            92.645624    
     19700   0.2140875      0.00045905468  0.00045905468  0              0              392.60812      335.95643      449.16085      0             -7.2504027      0              0              9.42157        9.8269743      0.2            92.585526    
     19800   0.17681081     0.00047252805  0.00047252805  0              0             -708.55219     -634.76611     -782.39292      0              205.97029      0              0              9.420609       9.8690385      0.2            92.972353    
     19900   0.15760573     0.00054249943  0.00054249943  0              0              255.55719      3.3707843      507.65729      0              400.30625      0              0              9.419648       9.8544371      0.2            92.825329    
     20000   0.1912668      0.00036750611  0.00036750611  0              0              276.64424      502.17051      51.058563      0             -108.80177      0              0              9.4186869      9.882741       0.2            93.082443    
     20100   0.23841568     0.00037729745  0.00037729745  0              0             -335.9698      -240.67737     -431.32463      0              189.32598      0              0              9.4177259      9.9015178      0.2            93.24978     
     20200   0.2331125      0.00041998814  0.00041998814  0              0              473.16584      463.89305      482.37102      0              39.773087      0              0              9.4167648      9.873913       0.2            92.980317    
     20300   0.21985383     0.00041249792  0.00041249792  0              0              534.51116      1301.195      -232.24587      0              80.520765      0              0              9.4158038      9.8695335      0.2            92.929591    
     20400   0.1923107      0.00027555703  0.00027555703  0              0              56.256313      353.16326     -240.71887      0             -261.36942      0              0              9.4148428      9.87674        0.2            92.987954    
     20500   0.23458184     0.00033346246  0.00033346246  0              0              566.50018      711.56231      421.37221      0             -73.696768      0              0              9.4138817      9.8870931      0.2            93.075925    
     20600   0.27169818     0.00033809398  0.00033809398  0              0             -4.7977141      404.7967      -414.45664      0              75.662036      0              0              9.4129207      9.9146908      0.2            93.326198    
     20700   0.24556535     0.00041751827  0.00041751827  0              0              509.91691      827.65947      192.07797      0             -41.439585      0              0              9.4119596      9.8890393      0.2            93.075238    
     20800   0.19852174     0.00031979372  0.00031979372  0              0              562.09724      926.60703      197.52855      0             -210.2093       0              0              9.4109986      9.8813243      0.2            92.993129    
     20900   0.2657494      0.00045889916  0.00045889916  0              0             -264.81714     -119.38038     -410.3203       0             -212.38958      0              0              9.4100375      9.8796004      0.2            92.967411    
     21000   0.13374534     0.00038810844  0.00038810844  0              0              170.95813     -50.795403      392.62224      0              95.735351      0              0              9.4090765      9.8654387      0.2            92.824668    
     21100   0.20950661     0.0003423491   0.0003423491   0              0             -76.151335      23.31112      -175.68123      0              171.00247      0              0              9.4081155      9.8996342      0.2            93.136901    
     21200   0.18324079     0.00034324702  0.00034324702  0              0             -274.40002     -398.49442     -150.37788      0             -319.1645       0              0              9.4071544      9.9257565      0.2            93.373124    
     21300   0.21719133     0.00049056239  0.00049056239  0              0             -162.15218     -809.74319      485.35832      0              147.92312      0              0              9.4061934      9.9187235      0.2            93.297431    
     21400   0.26089685     0.00035377745  0.00035377745  0              0             -606.26694     -750.5062      -462.13         0              34.589988      0              0              9.4052323      9.9270183      0.2            93.365913    
     21500   0.1833602      0.00043167803  0.00043167803  0              0              129.52486      109.58573      149.36976      0              111.49932      0              0              9.4042713      9.9364332      0.2            93.444914    
     21600   0.30728053     0.00041410235  0.00041410235  0              0             -129.49299     -563.0924       304.02143      0              374.80972      0              0              9.4033103      9.9254861      0.2            93.332425    
     21700   0.14336326     0.00031175754  0.00031175754  0              0             -600.31417     -702.92228     -497.77072      0              273.13382      0              0              9.4023492      9.9545256      0.2            93.595926    
     21800   0.21909568     0.00040425799  0.00040425799  0              0              121.28147     -173.18353      415.67363      0              229.01727      0              0              9.4013882      9.944156       0.2            93.488871    
     21900   0.20003949     0.00030240888  0.00030240888  0              0             -60.703201     -96.234192     -25.241013      0             -145.17359      0              0              9.4004271      9.9397183      0.2            93.437598    
     22000   0.19645538     0.00032605637  0.00032605637  0              0             -324.03058     -390.12143     -258.02745      0              76.093186      0              0              9.3994661      9.9465128      0.2            93.491909    
     22100   0.21939264     0.00037729298  0.00037729298  0              0             -21.450344     -460.86641      417.88474      0             -112.23375      0              0              9.3985051      9.9222093      0.2            93.253934    
     22200   0.23961979     0.00031929539  0.00031929539  0              0             -635.5224      -927.68894     -343.45259      0              60.699154      0              0              9.397544       9.9272645      0.2            93.291905    
     22300   0.22451969     0.00047202611  0.00047202611  0              0             -290.48211     -777.48713      196.47472      0              196.12391      0              0              9.396583       9.9249173      0.2            93.260309    
     22400   0.23217111     0.00035843318  0.00035843318  0              0             -282.69282     -655.62654      90.166389      0              271.08698      0              0              9.3956219      9.9195686      0.2            93.200517    
     22500   0.33672074     0.00038808706  0.00038808706  0              0             -511.40538     -688.22949     -334.66415      0              366.33111      0              0              9.3946609      9.929543       0.2            93.284689    
     22600   0.24917217     0.00022075251  0.00022075251  0              0              412.4429       570.70223      254.11644      0              173.71668      0              0              9.3936998      9.9349836      0.2            93.326254    
     22700   0.19767304     0.00024841935  0.00024841935  0              0             -316.936       -700.50304      66.561484      0              277.41536      0              0              9.3927388      9.9403403      0.2            93.36702     
     22800   0.16231013     0.00022077311  0.00022077311  0              0             -108.93018      56.047009     -273.94546      0              30.312226      0              0              9.3917778      9.9591802      0.2            93.534407    
     22900   0.14235427     0.00027047955  0.00027047955  0              0              408.15563      479.22998      337.01903      0              246.0279       0              0              9.3908167      9.9486315      0.2            93.425775    
     23000   0.29838483     0.00029762995  0.00029762995  0              0             -275.94931     -364.32204     -187.64155      0              143.17798      0              0              9.3898557      9.9606151      0.2            93.528739    
     23100   0.25463211     0.00038508797  0.00038508797  0              0             -74.550775     -142.31364     -6.8633084      0              30.565726      0              0              9.3888946      9.9480305      0.2            93.40101     
     23200   0.15479477     0.00032279876  0.00032279876  0              0              192.77768      171.09756      214.40244      0              148.19796      0              0              9.3879336      9.9188796      0.2            93.117783    
     23300   0.22575429     0.00041218083  0.00041218083  0              0             -161.6452      -55.160985     -268.21657      0             -9.5353343      0              0              9.3869726      9.9438123      0.2            93.342293    
     23400   0.12292569     0.00044447748  0.00044447748  0              0             -75.561191     -350.77532      199.58802      0             -74.932873      0              0              9.3860115      9.9341567      0.2            93.242109    
     23500   0.18351318     0.0002636982   0.0002636982   0              0              172.44504      294.46291      50.339726      0              330.46386      0              0              9.3850505      9.9484741      0.2            93.366932    
     23600   0.16958872     0.00028214172  0.00028214172  0              0             -128.00715      45.703314     -301.79133      0             -74.107617      0              0              9.3840894      9.969069       0.2            93.550635    
     23700   0.20101948     0.00029857907  0.00029857907  0              0              336.83737      298.35412      375.25984      0              144.74101      0              0              9.3831284      9.9499941      0.2            93.362072    
     23800   0.18917294     0.00033994973  0.00033994973  0              0              85.743918      422.75187     -251.34998      0              336.94177      0              0              9.3821673      9.9609034      0.2            93.454863    
     23900   0.1663599      0.00035914011  0.00035914011  0              0              359.62105      829.02891     -109.86326      0             -351.46264      0              0              9.3812063      9.9491226      0.2            93.334772    
     24000   0.17385303     0.00033246535  0.00033246535  0              0              884.28394      1382.598       385.89679      0             -176.73397      0              0              9.3802453      9.9274365      0.2            93.121789    
     24100   0.23623823     0.00035225374  0.00035225374  0              0             -28.183268      317.70769     -374.13846      0             -102.91287      0              0              9.3792842      9.9241305      0.2            93.08124     
     24200   0.285511       0.00027290468  0.00027290468  0              0              170.66727      234.96754      106.2802       0              142.7758       0              0              9.3783232      9.913218       0.2            92.969362    
     24300   0.24106652     0.00048854996  0.00048854996  0              0              94.283192      3.2599717      185.23904      0             -30.744054      0              0              9.3773621      9.9147273      0.2            92.973989    
     24400   0.23638937     0.00038260194  0.00038260194  0              0              282.00206      850.14618     -286.20343      0              224.05318      0              0              9.3764011      9.8971742      0.2            92.799875    
     24500   0.2224944      0.00036980539  0.00036980539  0              0              101.31273     -71.981919      274.52782      0              108.26087      0              0              9.3754401      9.8787789      0.2            92.6179      
     24600   0.2955096      0.00034838633  0.00034838633  0              0             -141.28158     -229.63456     -52.988142      0              100.88566      0              0              9.374479       9.8997014      0.2            92.804543    
     24700   0.22296424     0.00034924684  0.00034924684  0              0             -19.336069      109.56358     -148.30906      0              56.370945      0              0              9.373518       9.9033684      0.2            92.829402    
     24800   0.2257919      0.00025979938  0.00025979938  0              0              484.61384      696.90887      272.22425      0              96.037969      0              0              9.3725569      9.890708       0.2            92.701224    
     24900   0.29279529     0.00040973535  0.00040973535  0              0              286.39519      696.73882     -124.0264       0              277.25255      0              0              9.3715959      9.9047156      0.2            92.822992    
     25000   0.20426318     0.00040262896  0.00040262896  0              0              277.74228      545.00294      10.41677       0              227.10699      0              0              9.3706348      9.9068239      0.2            92.833229    
     25100   0.21959836     0.00031144101  0.00031144101  0              0              68.805648      74.614001      62.931109      0              5.6284075      0              0              9.3696738      9.8886432      0.2            92.653361    
     25200   0.19105612     0.00031241905  0.00031241905  0              0              54.086016      98.477923      9.6238404      0             -118.764        0              0              9.3687128      9.8874571      0.2            92.632746    
     25300   0.14426879     0.00033612132  0.00033612132  0              0              294.72084      603.91806     -14.546782      0              19.780042      0              0              9.3677517      9.8786386      0.2            92.540634    
     25400   0.22245527     0.0003523983   0.0003523983   0              0              68.850034      114.6904       22.950786      0              67.165056      0              0              9.3667907      9.8904094      0.2            92.641394    
     25500   0.19025622     0.00042573309  0.00042573309  0              0              99.645783      108.31572      90.901222      0              427.25201      0              0              9.3658296      9.8953601      0.2            92.678257    
     25600   0.19715503     0.00045410434  0.00045410434  0              0             -351.33246     -582.45642     -120.28046      0              341.0671       0              0              9.3648686      9.9053518      0.2            92.762318    
     25700   0.19484636     0.00045679678  0.00045679678  0              0              323.09244      507.84202      138.27477      0              138.19869      0              0              9.3639076      9.9153599      0.2            92.846514    
     25800   0.25172173     0.00049355532  0.00049355532  0              0              352.76701      775.80343     -70.33166       0             -191.54675      0              0              9.3629465      9.9163003      0.2            92.845789    
     25900   0.22851391     0.00034390657  0.00034390657  0              0             -25.146167     -91.41271       41.035996      0              75.105296      0              0              9.3619855      9.9177356      0.2            92.849697    
     26000   0.22258843     0.00030356813  0.00030356813  0              0              98.505202      227.53266     -30.587344      0              229.05602      0              0              9.3610244      9.9307773      0.2            92.962249    
     26100   0.21634216     0.00052170364  0.00052170364  0              0              444.97141      953.00895     -63.150112      0             -72.664932      0              0              9.3600634      9.9474298      0.2            93.108574    
     26200   0.21689623     0.0003288757   0.0003288757   0              0              252.40029      366.37912      138.34454      0             -4.0774485      0              0              9.3591024      9.932317       0.2            92.957572    
     26300   0.19448188     0.00039022981  0.00039022981  0              0             -309.50119     -489.30129     -129.77338      0             -138.56152      0              0              9.3581413      9.9326786      0.2            92.95141     
     26400   0.23467108     0.00036768622  0.00036768622  0              0              141.91058      168.20507      115.52539      0              323.76258      0              0              9.3571803      9.9474872      0.2            93.080431    
     26500   0.19753886     0.00028805017  0.00028805017  0              0             -75.411646     -226.28373      75.371155      0             -256.52983      0              0              9.3562192      9.9576201      0.2            93.165677    
     26600   0.20514171     0.00045328483  0.00045328483  0              0             -197.63601     -245.07902     -150.26732      0             -423.46928      0              0              9.3552582      9.9527023      0.2            93.1101      
     26700   0.19151269     0.00045792564  0.00045792564  0              0             -104.33541     -288.25083      79.529256      0             -301.97598      0              0              9.3542971      9.947812       0.2            93.054789    
     26800   0.18700613     0.0004722264   0.0004722264   0              0             -196.88569     -456.63143      62.762952      0              199.62853      0              0              9.3533361      9.9543417      0.2            93.106303    
     26900   0.2176107      0.00038529964  0.00038529964  0              0             -130.2148      -247.23769     -13.233866      0             -139.51735      0              0              9.3523751      9.9629584      0.2            93.177324    
     27000   0.18662177     0.00050819862  0.00050819862  0              0              150.37245      233.93841      66.75246       0              18.405591      0              0              9.351414       9.9460308      0.2            93.009452    
     27100   0.334442       0.00043245336  0.00043245336  0              0              134.92883      332.78393     -62.999615      0             -224.9965       0              0              9.350453       9.9180573      0.2            92.738329    
     27200   0.23212647     0.00048124224  0.00048124224  0              0              128.00755      144.52192      111.42402      0             -543.42875      0              0              9.3494919      9.909144       0.2            92.645461    
     27300   0.17105212     0.0005130905   0.0005130905   0              0              219.28331      547.2605      -108.78322      0             -441.99802      0              0              9.3485309      9.9040663      0.2            92.58847     
     27400   0.26337115     0.00026994241  0.00026994241  0              0              139.82824      277.63991      1.951738       0             -208.15595      0              0              9.3475699      9.9185081      0.2            92.713948    
     27500   0.19871728     0.00041170304  0.00041170304  0              0             -34.652114     -132.97057      63.581302      0             -35.423089      0              0              9.3466088      9.9351558      0.2            92.860015    
     27600   0.27370272     0.00044257735  0.00044257735  0              0             -165.24297     -199.84822     -130.72393      0             -344.52709      0              0              9.3456478      9.9506279      0.2            92.995063    
     27700   0.26533566     0.00029288526  0.00029288526  0              0              288.13929      437.41984      138.78755      0             -100.10354      0              0              9.3446867      9.9380492      0.2            92.867956    
     27800   0.3171515      0.00043854587  0.00043854587  0              0              194.68999      475.69194     -86.367992      0             -95.375971      0              0              9.3437257      9.9449162      0.2            92.922569    
[...]
     42800   0.21057715     0.00031968133  0.00031968133  0              0              212.07087      345.73273      78.334723      0             -59.434569      0              0              9.1995695      10.022518      0.2            92.202847    
     42900   0.17307487     0.00023929332  0.00023929332  0              0             -221.95073     -79.970124     -364.00768      0             -117.05876      0              0              9.1986084      10.009334      0.2            92.07194     
     43000   0.26170852     0.0005553043   0.0005553043   0              0              509.71737      544.6174       474.73322      0              69.0624        0              0              9.1976474      9.9898307      0.2            91.88294     
     43100   0.24917208     0.00036509077  0.00036509077  0              0             -41.568842      451.75033     -534.96228      0              92.494537      0              0              9.1966863      10.024769      0.2            92.194655    
     43200   0.20811044     0.000336854    0.000336854    0              0              44.26493      -289.29813      377.76323      0              92.399283      0              0              9.1957253      9.989639       0.2            91.861977    
     43300   0.20518227     0.00026816737  0.00026816737  0              0             -113.19845     -109.99377     -116.46016      0             -236.08401      0              0              9.1947643      9.9856715      0.2            91.815895    
     43400   0.15552881     0.00032254755  0.00032254755  0              0              360.18352      888.57502     -168.30008      0              236.07381      0              0              9.1938032      9.9909251      0.2            91.854599    
     43500   0.17425526     0.00043850339  0.00043850339  0              0              582.42321      813.83104      350.94965      0              138.66278      0              0              9.1928422      10.00512       0.2            91.975493    
     43600   0.14809608     0.00047565678  0.00047565678  0              0             -98.475082      290.11599     -487.1406       0             -114.50131      0              0              9.1918811      10.013575      0.2            92.043591    
     43700   0.28021312     0.00034134609  0.00034134609  0              0              437.64888      335.31557      539.90998      0              204.25561      0              0              9.1909201      10.003868      0.2            91.94475     
     43800   0.17444697     0.00049554894  0.00049554894  0              0             -251.61511     -51.41589      -451.89445      0              567.65086      0              0              9.1899591      10.01857       0.2            92.070246    
     43900   0.25180022     0.00051944199  0.00051944199  0              0              98.903051     -37.409389      235.14024      0              511.62916      0              0              9.188998       10.024866      0.2            92.118472    
     44000   0.19701065     0.00052359109  0.00052359109  0              0              320.45616      701.27432     -60.425795      0              231.24884      0              0              9.188037       10.035171      0.2            92.203518    
     44100   0.17412527     0.00042840377  0.00042840377  0              0              228.48639      679.4427      -222.52116      0              465.38243      0              0              9.1870759      10.039602      0.2            92.234587    
     44200   0.1993129      0.00042623849  0.00042623849  0              0              193.50584     -131.6128       518.5505       0              272.14629      0              0              9.1861149      10.007139      0.2            91.92673     
     44300   0.2544715      0.00038184789  0.00038184789  0              0             -284.764        87.090565     -656.68585      0              93.686525      0              0              9.1851538      10.031025      0.2            92.136504    
     44400   0.2194894      0.00039433266  0.00039433266  0              0              558.69354      564.77875      552.5515       0              51.673136      0              0              9.1841928      10.011785      0.2            91.950162    
     44500   0.20203646     0.00033209045  0.00033209045  0              0             -221.63824     -41.35967      -402.01126      0              5.9760574      0              0              9.1832318      10.011782      0.2            91.940518    
     44600   0.14303256     0.00028450029  0.00028450029  0              0             -10.452241     -48.117315      27.1248        0              395.6638       0              0              9.1822707      10.009296      0.2            91.908066    
     44700   0.18660008     0.00046000781  0.00046000781  0              0              217.1716       206.06318      228.20616      0              347.70264      0              0              9.1813097      10.006679      0.2            91.874419    
     44800   0.15863298     0.00024484735  0.00024484735  0              0             -184.3445       19.26906      -388.00044      0              210.04975      0              0              9.1803486      10.008179      0.2            91.878574    
     44900   0.194003       0.00038561494  0.00038561494  0              0              118.58149     -253.29723      490.39283      0              200.99394      0              0              9.1793876      10.00578       0.2            91.84693     
     45000   0.21890129     0.00040879659  0.00040879659  0              0             -234.19855     -58.069995     -410.40032      0             -57.079711      0              0              9.1784266      10.042794      0.2            92.177048    
     45100   0.26093902     0.00044670068  0.00044670068  0              0              43.278503     -77.078934      163.54827      0              67.085088      0              0              9.1774655      10.013887      0.2            91.902105    
     45200   0.25612837     0.00038210307  0.00038210307  0              0              46.358738     -51.395499      144.0067       0             -118.05564      0              0              9.1765045      9.9944012      0.2            91.713667    
     45300   0.16979477     0.00030656866  0.00030656866  0              0             -9.5135613      296.2741      -315.38026      0             -486.8193       0              0              9.1755434      10.008132      0.2            91.830048    
     45400   0.16426199     0.00044941779  0.00044941779  0              0              382.68074      298.42058      466.86545      0             -69.976708      0              0              9.1745824      10.015844      0.2            91.891188    
     45500   0.22295802     0.00026310273  0.00026310273  0              0             -367.6378      -289.96456     -445.3689       0             -95.241922      0              0              9.1736213      10.005752      0.2            91.788976    
     45600   0.19874406     0.00034611746  0.00034611746  0              0              351.43411      352.13195      350.64883      0             -150.84176      0              0              9.1726603      9.9983938      0.2            91.71187     
     45700   0.25573474     0.00030222838  0.00030222838  0              0             -19.714181      158.06071     -197.57894      0             -247.74553      0              0              9.1716993      9.995378       0.2            91.674601    
     45800   0.32337366     0.00027843106  0.00027843106  0              0              125.93072      241.69866      10.10399       0             -114.46527      0              0              9.1707382      9.998456       0.2            91.693223    
     45900   0.20226893     0.00032834322  0.00032834322  0              0              47.555051     -24.009692      119.06261      0             -464.19552      0              0              9.1697772      10.000314      0.2            91.700651    
     46000   0.23749193     0.0003361169   0.0003361169   0              0             -30.597585      183.1925      -244.44953      0              294.23131      0              0              9.1688161      10.028789      0.2            91.952124    
     46100   0.19048995     0.00037382973  0.00037382973  0              0             -33.840335     -340.95639      273.21177      0              97.725422      0              0              9.1678551      10.010794      0.2            91.777506    
     46200   0.24051021     0.0003840848   0.0003840848   0              0             -410.62177     -473.74519     -347.57645      0             -30.971789      0              0              9.1668941      10.02789       0.2            91.924604    
     46300   0.15396395     0.00045136128  0.00045136128  0              0              301.08624      377.04753      225.05128      0              80.238448      0              0              9.165933       10.000459      0.2            91.663533    
     46400   0.17867883     0.00054628433  0.00054628433  0              0             -422.94359     -761.36908     -84.59602       0             -15.32578       0              0              9.164972       9.9922823      0.2            91.578987    
     46500   0.25752461     0.00041011459  0.00041011459  0              0              272.41177      598.73758     -53.987149      0              7.6851645      0              0              9.1640109      9.9852305      0.2            91.504761    
     46600   0.24517742     0.00020599183  0.00020599183  0              0              234.81267      281.16194      188.40929      0             -218.34658      0              0              9.1630499      9.9707234      0.2            91.362236    
     46700   0.25233183     0.00057037311  0.00057037311  0              0              55.066112      408.65176     -298.57871      0             -127.83544      0              0              9.1620888      9.9984616      0.2            91.606793    
     46800   0.1912996      0.00035496147  0.00035496147  0              0             -26.423864     -430.41098      377.50508      0             -11.019504      0              0              9.1611278      9.9858404      0.2            91.48156     
     46900   0.25101203     0.00029095225  0.00029095225  0              0             -303.85034     -224.38655     -383.36853      0             -48.789753      0              0              9.1601668      10.008536      0.2            91.67986     
     47000   0.20117319     0.00047956965  0.00047956965  0              0              487.50803      725.58414      249.34964      0              229.68273      0              0              9.1592057      9.9780573      0.2            91.391079    
     47100   0.24170782     0.00036078444  0.00036078444  0              0             -130.32356     -95.192521     -165.51144      0              175.09334      0              0              9.1582447      9.9806769      0.2            91.405481    
     47200   0.21849029     0.00037676613  0.00037676613  0              0             -231.6026      -433.17497     -30.095989      0              103.5502       0              0              9.1572836      9.9830632      0.2            91.417742    
     47300   0.19882295     0.00029272808  0.00029272808  0              0              138.2282       66.694375      209.70815      0              70.438514      0              0              9.1563226      9.9698078      0.2            91.286776    
     47400   0.18687138     0.00027816933  0.00027816933  0              0              122.70691      492.8839      -247.53801      0              37.870939      0              0              9.1553616      9.9730283      0.2            91.30668     
     47500   0.14422845     0.00039226955  0.00039226955  0              0              196.96535      79.056292      314.81537      0              218.86162      0              0              9.1544005      9.9707795      0.2            91.276509    
     47600   0.19222082     0.00045898742  0.00045898742  0              0              69.22374       465.19836     -326.83639      0              44.101269      0              0              9.1534395      9.9852942      0.2            91.399786    
     47700   0.20918985     0.00048339997  0.00048339997  0              0              813.95385      1313.9105      313.92512      0              479.65661      0              0              9.1524784      9.9960152      0.2            91.488313    
     47800   0.13070991     0.0005363028   0.0005363028   0              0              4.0604454      171.87679     -163.83557      0              265.69221      0              0              9.1515174      10.019033      0.2            91.689356    
     47900   0.17863338     0.0002934723   0.0002934723   0              0             -131.6791      -238.07594     -25.34503       0             -84.272233      0              0              9.1505564      10.02295       0.2            91.715572    
     48000   0.21156548     0.00027743047  0.00027743047  0              0              253.74306      277.16138      230.25183      0              239.22275      0              0              9.1495953      10.027034      0.2            91.743306    
     48100   0.22763109     0.00035817825  0.00035817825  0              0              109.11579      658.12286     -439.97167      0              31.357087      0              0              9.1486343      10.042236      0.2            91.872746    
     48200   0.17095921     0.00043801929  0.00043801929  0              0              62.95196      -530.69996      656.53967      0              296.07148      0              0              9.1476732      10.023331      0.2            91.690161    
     48300   0.16559511     0.00036846874  0.00036846874  0              0             -495.4143      -280.03455     -710.863        0              381.29803      0              0              9.1467122      10.049629      0.2            91.92106     
     48400   0.14460532     0.00048318357  0.00048318357  0              0              296.53059     -46.783841      639.75346      0              176.10205      0              0              9.1457511      9.9966562      0.2            91.42693     
     48500   0.17524711     0.00030286841  0.00030286841  0              0             -41.244226      329.17758     -411.75363      0             -152.24419      0              0              9.1447901      9.9981138      0.2            91.430652    
     48600   0.17574389     0.00042821184  0.00042821184  0              0              448.30409      837.21865      59.323423      0             -267.04591      0              0              9.1438291      9.9825382      0.2            91.278623    
     48700   0.18836473     0.00043780634  0.00043780634  0              0              636.25397      961.31017      311.10222      0             -122.95146      0              0              9.142868       9.9878255      0.2            91.31737     
     48800   0.16895763     0.00059253634  0.00059253634  0              0              589.44782      1842.5592     -663.72996      0             -82.383746      0              0              9.141907       10.011263      0.2            91.522036    
     48900   0.22841865     0.00060651137  0.00060651137  0              0              1297.7135      1773.5857      821.78391      0             -222.90006      0              0              9.1409459      9.9671067      0.2            91.108783    
     49000   0.19519021     0.00044148049  0.00044148049  0              0             -256.75836      329.71407     -843.30254      0             -348.629        0              0              9.1399849      9.9846373      0.2            91.259434    
     49100   0.16649172     0.00060225749  0.00060225749  0              0              342.91619     -101.01305      786.79374      0             -183.47278      0              0              9.1390239      9.9629595      0.2            91.051725    
     49200   0.24833553     0.00036867799  0.00036867799  0              0              86.731293      766.41365     -593.03889      0              157.43387      0              0              9.1380628      9.9848857      0.2            91.242513    
     49300   0.28163574     0.00041195076  0.00041195076  0              0              619.38735      879.56856      359.14099      0              246.56815      0              0              9.1371018      9.9718802      0.2            91.114085    
     49400   0.19797683     0.00048448323  0.00048448323  0              0              144.19832      328.78733     -40.459978      0              90.957234      0              0              9.1361407      9.976485       0.2            91.146571    
     49500   0.21764961     0.00032548598  0.00032548598  0              0              68.146007      366.50385     -230.28433      0             -145.93639      0              0              9.1351797      9.9931527      0.2            91.289246    
     49600   0.21011123     0.00052018394  0.00052018394  0              0              743.77285      1055.1303      432.34332      0              328.44864      0              0              9.1342186      9.9734508      0.2            91.099681    
     49700   0.27259674     0.00053093392  0.00053093392  0              0             -775.60086     -1079.3483     -471.94723      0              109.30104      0              0              9.1332576      9.992058       0.2            91.26004     
     49800   0.20026171     0.00039433716  0.00039433716  0              0              336.92679      145.98661      527.7819       0              269.33223      0              0              9.1322966      9.9752436      0.2            91.096882    
     49900   0.20631237     0.00037408163  0.00037408163  0              0             -279.25368     -190.15503     -368.4113       0              284.1738       0              0              9.1313355      9.9932648      0.2            91.251854    
     50000   0.22964133     0.00045779864  0.00045779864  0              0              317.61557      450.99093      184.15754      0              457.83305      0              0              9.1303745      9.9735403      0.2            91.062158    
     50050   0.22872495     0.00045473098  0.00045473098  0              0              528.57937      732.42726      324.65619      0              397.05972      0              0              9.129894       9.9568963      0.2            90.905407    
Loop time of 0.565767 on 1 procs for 50000 steps with 24 atoms

Performance: 76356.534 ns/day, 0.000 hours/ns, 88375.618 timesteps/s
96.8% CPU use with 1 MPI tasks x 1 OpenMP threads

MPI task timing breakdown:
Section |  min time  |  avg time  |  max time  |%varavg| %total
---------------------------------------------------------------
Pair    | 0          | 0          | 0          |   0.0 |  0.00
Bond    | 0.068574   | 0.068574   | 0.068574   |   0.0 | 12.12
Neigh   | 0          | 0          | 0          |   0.0 |  0.00
Comm    | 0.16907    | 0.16907    | 0.16907    |   0.0 | 29.88
Output  | 0.010731   | 0.010731   | 0.010731   |   0.0 |  1.90
Modify  | 0.29921    | 0.29921    | 0.29921    |   0.0 | 52.89
Other   |            | 0.01819    |            |       |  3.21

Nlocal:             24 ave          24 max          24 min
Histogram: 1 0 0 0 0 0 0 0 0 0
Nghost:            201 ave         201 max         201 min
Histogram: 1 0 0 0 0 0 0 0 0 0
Neighs:              0 ave           0 max           0 min
Histogram: 1 0 0 0 0 0 0 0 0 0

Total # of neighbors = 0
Ave neighs/atom = 0
Ave special neighs/atom = 15.833333
Neighbor list builds = 0
Dangerous builds = 0


Total wall time: 0:00:00
