ITEM: TIMESTEP
500
ITEM: NUMBER OF ATOMS
68
ITEM: BOX BOUNDS pp pp pp
-4.8159893450979601e+00 4.8159893450979601e+00
-4.8169214417135171e+00 4.8169214417135171e+00
-1.0000000000000001e-01 1.0000000000000001e-01
ITEM: ATOMS id type xs ys zs
42 1 0.995318 0.968999 0.500922
76 1 0.263137 0.126005 0.500215
57 1 0.26078 0.0399963 0.499574
32 1 0.37207 0.00655303 0.49968
55 1 0.553656 0.0996071 0.499749
48 1 0.646656 0.099829 0.500186
8 1 0.807834 0.0629782 0.500206
51 1 0.946478 0.0398533 0.498815
5 1 0.211513 0.223603 0.500783
53 1 0.340471 0.108649 0.500521
16 1 0.445247 0.134818 0.499645
54 1 0.580663 0.193881 0.499609
49 1 0.884583 0.167697 0.499801
56 1 0.976474 0.124956 0.50066
4 1 0.359583 0.26279 0.500153
9 1 0.498973 0.281764 0.501237
7 1 0.737067 0.19877 0.500859
18 1 0.884036 0.288327 0.499921
78 1 0.950722 0.207064 0.499549
75 1 0.0374168 0.395664 0.499732
31 1 0.133041 0.36077 0.499518
41 1 0.210329 0.441494 0.500449
40 1 0.263413 0.352583 0.500209
29 1 0.417192 0.406365 0.500558
12 1 0.556563 0.442331 0.500147
34 1 0.629476 0.283895 0.499649
33 1 0.752918 0.330812 0.499547
66 1 0.815229 0.406973 0.50047
35 1 0.916033 0.431384 0.501083
71 1 0.0117776 0.451551 0.499836
3 1 0.00950898 0.565294 0.499619
52 1 0.0919246 0.460605 0.500674
38 1 0.328859 0.484177 0.499498
10 1 0.220186 0.567803 0.499678
6 1 0.434336 0.558053 0.499827
63 1 0.657189 0.383213 0.499647
45 1 0.712075 0.434346 0.500057
46 1 0.661645 0.52139 0.499291
26 1 0.797061 0.501759 0.499227
72 1 0.11782 0.534085 0.499459
14 1 0.326004 0.676396 0.500354
69 1 0.435117 0.684603 0.498805
47 1 0.49866 0.663788 0.500376
22 1 0.581495 0.587105 0.500347
43 1 0.663971 0.645955 0.500194
59 1 0.74147 0.588388 0.500858
15 1 0.987423 0.723542 0.500418
79 1 0.225784 0.678588 0.501244
58 1 0.32155 0.80519 0.500065
11 1 0.451098 0.784053 0.499837
17 1 0.593886 0.736452 0.500486
74 1 0.716344 0.709685 0.500432
25 1 0.729837 0.797314 0.499595
20 1 0.81873 0.679656 0.500118
64 1 0.103595 0.849532 0.499906
37 1 0.0127021 0.860994 0.499874
2 1 0.192965 0.790444 0.500029
80 1 0.382947 0.879101 0.501991
36 1 0.633295 0.884797 0.501083
13 1 0.874541 0.82629 0.499322
19 1 0.122812 0.962744 0.499894
1 1 0.284011 0.920552 0.499631
44 1 0.492502 0.0312106 0.499739
39 1 0.469307 0.924571 0.499147
23 1 0.579908 0.982057 0.499975
50 1 0.682929 0.0122976 0.500086
30 1 0.761266 0.927217 0.500149
21 1 0.891921 0.950266 0.499536
ITEM: TIMESTEP
750
ITEM: NUMBER OF ATOMS
68
ITEM: BOX BOUNDS pp pp pp
-4.8147852442090091e+00 4.8147852442090091e+00
-4.8184798807925153e+00 4.8184798807925153e+00
-1.0000000000000001e-01 1.0000000000000001e-01
ITEM: ATOMS id type xs ys zs
42 1 0.99535 0.969015 0.502248
76 1 0.264168 0.126205 0.500488
57 1 0.261748 0.0401916 0.498528
32 1 0.372486 0.00684182 0.501567
55 1 0.55324 0.0999263 0.499053
48 1 0.646395 0.0993822 0.499798
8 1 0.808186 0.0630181 0.499428
51 1 0.946448 0.0395324 0.498598
5 1 0.210694 0.223099 0.500791
53 1 0.341232 0.108453 0.49998
16 1 0.445623 0.134376 0.500947
54 1 0.579765 0.194255 0.50013
49 1 0.883899 0.168986 0.501062
56 1 0.97521 0.125428 0.500349
4 1 0.359175 0.260987 0.500236
9 1 0.497925 0.282024 0.50154
7 1 0.737212 0.19879 0.498555
18 1 0.885063 0.289876 0.498704
78 1 0.950897 0.208011 0.498278
75 1 0.037641 0.396371 0.501929
31 1 0.132693 0.361361 0.496041
41 1 0.210063 0.441769 0.500874
40 1 0.262999 0.351933 0.500133
29 1 0.41739 0.406609 0.500325
12 1 0.556049 0.443308 0.502044
34 1 0.628543 0.283935 0.49898
33 1 0.753073 0.330853 0.498878
66 1 0.815581 0.406894 0.501316
35 1 0.915777 0.433205 0.500649
71 1 0.0116126 0.45195 0.500283
3 1 0.00931915 0.565181 0.498811
52 1 0.0918907 0.461467 0.498368
38 1 0.329486 0.484952 0.499703
10 1 0.220494 0.568319 0.499121
6 1 0.434662 0.558525 0.49945
63 1 0.656573 0.383001 0.499056
45 1 0.711731 0.434234 0.501905
46 1 0.661504 0.520869 0.500782
26 1 0.797019 0.501647 0.499084
72 1 0.118522 0.534724 0.499286
14 1 0.326244 0.67701 0.500657
69 1 0.435271 0.68529 0.500545
47 1 0.499134 0.66465 0.49884
22 1 0.582061 0.587535 0.501232
43 1 0.663789 0.646436 0.500661
59 1 0.740639 0.587554 0.502217
15 1 0.987662 0.723008 0.499639
79 1 0.226123 0.679321 0.502889
58 1 0.32185 0.80568 0.501294
11 1 0.450955 0.784489 0.500402
17 1 0.594042 0.737599 0.501977
74 1 0.716259 0.709794 0.501418
25 1 0.731179 0.796619 0.499927
20 1 0.818524 0.678986 0.501087
64 1 0.10517 0.851963 0.500536
37 1 0.014059 0.861433 0.499485
2 1 0.194118 0.791423 0.499046
80 1 0.382961 0.879085 0.502727
36 1 0.634778 0.884306 0.500695
13 1 0.875035 0.826169 0.500056
19 1 0.122061 0.965367 0.499523
1 1 0.284462 0.920947 0.498537
44 1 0.492646 0.0308373 0.501034
39 1 0.469576 0.924231 0.498657
23 1 0.579797 0.981456 0.499334
50 1 0.683005 0.0116824 0.501003
30 1 0.762174 0.927482 0.501571
21 1 0.892469 0.949981 0.49879
ITEM: TIMESTEP
1000
ITEM: NUMBER OF ATOMS
68
ITEM: BOX BOUNDS pp pp pp
-4.8135811433200582e+00 4.8135811433200582e+00
-4.8196970204754201e+00 4.8196970204754201e+00
-1.0000000000000001e-01 1.0000000000000001e-01
ITEM: ATOMS id type xs ys zs
42 1 0.995566 0.969054 0.501606
76 1 0.263206 0.126637 0.500706
57 1 0.26128 0.0406517 0.498444
32 1 0.372403 0.00761105 0.503154
55 1 0.553722 0.0997101 0.500004
48 1 0.646523 0.0994149 0.500273
8 1 0.807458 0.0630194 0.49873
51 1 0.946606 0.0397216 0.49772
5 1 0.210973 0.223202 0.499955
53 1 0.340318 0.109351 0.50256
16 1 0.445474 0.134696 0.500889
54 1 0.580949 0.193606 0.502231
49 1 0.884653 0.168364 0.499675
56 1 0.97588 0.125142 0.500894
4 1 0.360001 0.262643 0.499898
9 1 0.499718 0.282283 0.502824
7 1 0.737339 0.19872 0.500711
18 1 0.884592 0.289122 0.49914
78 1 0.95142 0.207681 0.499017
75 1 0.0376403 0.396416 0.501662
31 1 0.132979 0.361402 0.496465
41 1 0.210343 0.441377 0.500482
40 1 0.263678 0.352249 0.501716
29 1 0.417921 0.40663 0.500144
12 1 0.556562 0.443529 0.503102
34 1 0.62999 0.28356 0.498247
33 1 0.753205 0.330886 0.498616
66 1 0.816018 0.406367 0.502122
35 1 0.916502 0.431755 0.499866
71 1 0.0120204 0.452094 0.499485
3 1 0.0087543 0.564948 0.497859
52 1 0.0925226 0.461827 0.498869
38 1 0.33044 0.485962 0.500455
10 1 0.221146 0.568114 0.499605
6 1 0.435024 0.558499 0.497046
63 1 0.656823 0.382579 0.499925
45 1 0.711588 0.434269 0.502041
46 1 0.662123 0.521195 0.5004
26 1 0.79745 0.501009 0.497444
72 1 0.118528 0.5351 0.498606
14 1 0.326741 0.677086 0.501441
69 1 0.435743 0.684685 0.498743
47 1 0.499374 0.664783 0.499457
22 1 0.58214 0.587606 0.499972
43 1 0.66437 0.645885 0.49949
59 1 0.740993 0.587137 0.502435
15 1 0.988151 0.72403 0.50018
79 1 0.226222 0.678337 0.502002
58 1 0.323292 0.806028 0.500316
11 1 0.451811 0.784334 0.499903
17 1 0.594836 0.736511 0.501718
74 1 0.716061 0.71031 0.500801
25 1 0.730712 0.797648 0.499845
20 1 0.817965 0.679332 0.501434
64 1 0.105444 0.850535 0.498355
37 1 0.0144448 0.861613 0.498235
2 1 0.195142 0.790617 0.499027
80 1 0.383564 0.879018 0.502841
36 1 0.634604 0.885209 0.500731
13 1 0.874881 0.826504 0.501589
19 1 0.122627 0.964716 0.499032
1 1 0.28531 0.921002 0.497786
44 1 0.492679 0.0311775 0.500495
39 1 0.46955 0.925 0.500345
23 1 0.579913 0.982327 0.501358
50 1 0.682755 0.012584 0.501361
30 1 0.761508 0.927081 0.501266
21 1 0.892042 0.95045 0.498844
ITEM: TIMESTEP
1250
ITEM: NUMBER OF ATOMS
68
ITEM: BOX BOUNDS pp pp pp
-4.8123770424311072e+00 4.8123770424311072e+00
-4.8216523766966004e+00 4.8216523766966004e+00
-1.0000000000000001e-01 1.0000000000000001e-01
ITEM: ATOMS id type xs ys zs
42 1 0.995364 0.969071 0.501079
76 1 0.263575 0.126292 0.499607
57 1 0.260846 0.0405317 0.498893
32 1 0.372382 0.00710034 0.501701
55 1 0.554049 0.0988776 0.50236
48 1 0.647004 0.0994356 0.500925
8 1 0.807297 0.0630572 0.496939
51 1 0.946505 0.0397034 0.498354
5 1 0.211582 0.223641 0.50059
53 1 0.340881 0.108552 0.505226
16 1 0.446265 0.134521 0.499941
54 1 0.580053 0.193061 0.503045
49 1 0.883091 0.168775 0.500659
56 1 0.975018 0.12576 0.500665
4 1 0.360243 0.261251 0.50165
9 1 0.499134 0.282232 0.504571
7 1 0.737487 0.198768 0.501217
18 1 0.883492 0.289121 0.499751
78 1 0.950294 0.207807 0.498726
75 1 0.0390652 0.396835 0.502849
31 1 0.134188 0.360864 0.497027
41 1 0.211419 0.441813 0.499974
40 1 0.264675 0.351908 0.500066
29 1 0.417898 0.406614 0.500105
12 1 0.557195 0.44312 0.503069
34 1 0.629514 0.283256 0.498336
33 1 0.752862 0.331499 0.500043
66 1 0.816143 0.407056 0.500416
35 1 0.917067 0.43156 0.499638
71 1 0.0133223 0.452555 0.498494
3 1 0.0101014 0.565223 0.49834
52 1 0.0938005 0.461301 0.495946
38 1 0.330068 0.484435 0.500476
10 1 0.220973 0.56798 0.497474
6 1 0.435195 0.55793 0.498406
63 1 0.657027 0.382134 0.500196
45 1 0.71107 0.434471 0.501148
46 1 0.662315 0.522197 0.500017
26 1 0.796648 0.501712 0.49458
72 1 0.119289 0.534938 0.499576
14 1 0.32636 0.677208 0.502042
69 1 0.435437 0.685062 0.49879
47 1 0.499215 0.664442 0.498162
22 1 0.582131 0.587447 0.502134
43 1 0.664851 0.646036 0.500182
59 1 0.741618 0.58801 0.501648
15 1 0.988956 0.72406 0.500016
79 1 0.226245 0.678733 0.50196
58 1 0.323086 0.806206 0.501622
11 1 0.451942 0.78438 0.498882
17 1 0.594863 0.736787 0.502388
74 1 0.71639 0.710706 0.501645
25 1 0.730844 0.79747 0.498315
20 1 0.818573 0.67939 0.502354
64 1 0.105851 0.850957 0.499707
37 1 0.0145594 0.861733 0.496906
2 1 0.19535 0.790903 0.499433
80 1 0.383733 0.879082 0.502857
36 1 0.634301 0.884896 0.499906
13 1 0.875663 0.826109 0.502725
19 1 0.123476 0.963931 0.498861
1 1 0.284459 0.921049 0.497637
44 1 0.492494 0.0310324 0.500435
39 1 0.469704 0.924867 0.49987
23 1 0.579829 0.9815 0.50196
50 1 0.682741 0.011855 0.5015
30 1 0.761538 0.927127 0.500197
21 1 0.891917 0.950511 0.498765
ITEM: TIMESTEP
1500
ITEM: NUMBER OF ATOMS
68
ITEM: BOX BOUNDS pp pp pp
-4.8111729415421562e+00 4.8111729415421562e+00
-4.8185770817736984e+00 4.8185770817736984e+00
-1.0000000000000001e-01 1.0000000000000001e-01
ITEM: ATOMS id type xs ys zs
42 1 0.995024 0.969952 0.499852
76 1 0.263195 0.125817 0.499237
57 1 0.260262 0.0402539 0.500354
32 1 0.371753 0.00654506 0.503148
55 1 0.553584 0.0991945 0.502466
48 1 0.646777 0.0981892 0.50206
8 1 0.807028 0.0626349 0.498857
51 1 0.945779 0.0403288 0.497505
5 1 0.211813 0.223101 0.501164
53 1 0.341024 0.108665 0.506656
16 1 0.445391 0.133881 0.500703
54 1 0.580715 0.192945 0.503097
49 1 0.883563 0.167848 0.499841
56 1 0.975272 0.125524 0.501201
4 1 0.360151 0.261476 0.502503
9 1 0.499506 0.281174 0.50389
7 1 0.736834 0.198198 0.502339
18 1 0.88447 0.289212 0.502165
78 1 0.950514 0.207777 0.498408
75 1 0.0394001 0.396685 0.502938
31 1 0.134645 0.361711 0.496344
41 1 0.212098 0.441862 0.50024
40 1 0.264718 0.351969 0.499388
29 1 0.418277 0.40578 0.500199
12 1 0.557542 0.442769 0.50456
34 1 0.629467 0.283425 0.496593
33 1 0.753206 0.33093 0.500337
66 1 0.816279 0.406749 0.500864
35 1 0.917102 0.431896 0.500715
71 1 0.012954 0.452279 0.498594
3 1 0.00875335 0.565323 0.497311
52 1 0.0934225 0.462134 0.495439
38 1 0.329424 0.483719 0.501458
10 1 0.220988 0.56812 0.500781
6 1 0.434627 0.558413 0.498469
63 1 0.657463 0.382328 0.500885
45 1 0.711449 0.434761 0.500204
46 1 0.661587 0.52221 0.499565
26 1 0.79741 0.501405 0.494721
72 1 0.118523 0.535781 0.498289
14 1 0.32607 0.677346 0.500031
69 1 0.435358 0.684822 0.499511
47 1 0.499104 0.664388 0.499285
22 1 0.58118 0.586931 0.502376
43 1 0.663991 0.645042 0.500279
59 1 0.742131 0.58801 0.501797
15 1 0.989022 0.723797 0.499749
79 1 0.226668 0.679243 0.501169
58 1 0.322648 0.806138 0.501336
11 1 0.451407 0.784063 0.498717
17 1 0.594352 0.736417 0.504058
74 1 0.716682 0.708947 0.502681
25 1 0.730713 0.796768 0.499797
20 1 0.819299 0.679236 0.501809
64 1 0.104367 0.851325 0.499849
37 1 0.0130831 0.862375 0.497276
2 1 0.194007 0.791399 0.500884
80 1 0.382278 0.87822 0.501264
36 1 0.634465 0.884748 0.499089
13 1 0.875556 0.826409 0.501187
19 1 0.122435 0.965102 0.498623
1 1 0.283841 0.920957 0.499234
44 1 0.492284 0.0304844 0.500658
39 1 0.468899 0.9244 0.498829
23 1 0.579365 0.980752 0.501686
50 1 0.682494 0.0111384 0.500488
30 1 0.761541 0.926994 0.499997
21 1 0.89184 0.950222 0.499892
ITEM: TIMESTEP
1750
ITEM: NUMBER OF ATOMS
68
ITEM: BOX BOUNDS pp pp pp
-4.8099688406532053e+00 4.8099688406532053e+00
-4.8166829598348224e+00 4.8166829598348224e+00
-1.0000000000000001e-01 1.0000000000000001e-01
ITEM: ATOMS id type xs ys zs
42 1 0.995327 0.970933 0.499578
76 1 0.263528 0.126049 0.500549
57 1 0.259836 0.0404231 0.501828
32 1 0.371488 0.0070366 0.503476
55 1 0.553967 0.0992778 0.499397
48 1 0.647182 0.0994227 0.502244
8 1 0.807045 0.0624833 0.49782
51 1 0.945056 0.040705 0.497209
5 1 0.210568 0.223196 0.501866
53 1 0.340785 0.109018 0.508191
16 1 0.445734 0.133664 0.501072
54 1 0.580819 0.19329 0.505685
49 1 0.8842 0.167758 0.49851
56 1 0.976413 0.125782 0.498373
4 1 0.359239 0.260933 0.502854
9 1 0.498582 0.281418 0.505756
7 1 0.737749 0.199283 0.504713
18 1 0.884195 0.289082 0.501177
78 1 0.950759 0.207857 0.499305
75 1 0.038161 0.396181 0.504219
31 1 0.133674 0.362091 0.496664
41 1 0.212125 0.441667 0.500426
40 1 0.263975 0.351803 0.500685
29 1 0.417566 0.405902 0.501756
12 1 0.556396 0.443025 0.502977
34 1 0.629103 0.28418 0.496884
33 1 0.752909 0.33137 0.499772
66 1 0.816178 0.407565 0.499506
35 1 0.916935 0.431826 0.500711
71 1 0.0123906 0.452327 0.500257
3 1 0.00922947 0.565693 0.497295
52 1 0.0923601 0.46197 0.495827
38 1 0.33002 0.48422 0.501709
10 1 0.220658 0.568013 0.500312
6 1 0.434607 0.558507 0.498548
63 1 0.657774 0.383076 0.499495
45 1 0.712278 0.43496 0.501478
46 1 0.662011 0.521619 0.499621
26 1 0.797312 0.501954 0.493965
72 1 0.118363 0.535305 0.499538
14 1 0.326207 0.677549 0.498358
69 1 0.435598 0.684474 0.500004
47 1 0.499611 0.664269 0.500078
22 1 0.581696 0.587345 0.50534
43 1 0.664556 0.64576 0.50028
59 1 0.742031 0.588435 0.502746
15 1 0.989469 0.724628 0.500694
79 1 0.225578 0.678549 0.49927
58 1 0.3221 0.806277 0.503431
11 1 0.451853 0.783988 0.498327
17 1 0.594703 0.73659 0.503194
74 1 0.716805 0.709719 0.50261
25 1 0.731189 0.796779 0.499277
20 1 0.819454 0.678805 0.503118
64 1 0.103969 0.851009 0.499547
37 1 0.0128503 0.86312 0.497045
2 1 0.193395 0.790955 0.500869
80 1 0.382167 0.878023 0.501367
36 1 0.63418 0.884318 0.499796
13 1 0.874688 0.826099 0.501602
19 1 0.122716 0.964726 0.496692
1 1 0.283596 0.920992 0.500017
44 1 0.492413 0.0305988 0.499475
39 1 0.468156 0.924311 0.498732
23 1 0.579382 0.981047 0.500533
50 1 0.682395 0.011501 0.500604
30 1 0.761621 0.92671 0.501554
21 1 0.892104 0.950224 0.499041
ITEM: TIMESTEP
2000
ITEM: NUMBER OF ATOMS
68
ITEM: BOX BOUNDS pp pp pp
-4.8087647397642543e+00 4.8087647397642543e+00
-4.8184407927919057e+00 4.8184407927919057e+00
-1.0000000000000001e-01 1.0000000000000001e-01
ITEM: ATOMS id type xs ys zs
42 1 0.995673 0.970906 0.500969
76 1 0.264096 0.126111 0.500495
57 1 0.260467 0.0401748 0.503231
32 1 0.37184 0.00757187 0.502992
55 1 0.55362 0.0988467 0.499883
48 1 0.646294 0.0988669 0.501545
8 1 0.807517 0.0629196 0.498486
51 1 0.94581 0.0410099 0.498603
5 1 0.211155 0.22246 0.501741
53 1 0.34137 0.109608 0.508616
16 1 0.446528 0.134651 0.501303
54 1 0.58017 0.193205 0.506803
49 1 0.883808 0.168081 0.497834
56 1 0.975652 0.126139 0.496525
4 1 0.359807 0.261215 0.505868
9 1 0.498752 0.282014 0.505817
7 1 0.736431 0.198244 0.504432
18 1 0.883897 0.289253 0.500297
78 1 0.950508 0.207916 0.499837
75 1 0.0370729 0.396355 0.504593
31 1 0.132607 0.361698 0.498227
41 1 0.211094 0.441149 0.498325
40 1 0.263547 0.351427 0.499997
29 1 0.418234 0.406912 0.502314
12 1 0.557213 0.442421 0.503117
34 1 0.629218 0.283481 0.49683
33 1 0.753163 0.330559 0.498485
66 1 0.815365 0.407423 0.498703
35 1 0.915858 0.43204 0.499074
71 1 0.0115021 0.452202 0.500543
3 1 0.00759762 0.565317 0.499095
52 1 0.0917969 0.461531 0.494221
38 1 0.329297 0.484102 0.500495
10 1 0.220191 0.568059 0.501971
6 1 0.433865 0.559331 0.49772
63 1 0.658518 0.38218 0.501624
45 1 0.712334 0.434474 0.502016
46 1 0.661956 0.521505 0.501279
26 1 0.798204 0.502043 0.493799
72 1 0.117215 0.535914 0.49723
14 1 0.325834 0.677932 0.496441
69 1 0.435065 0.68522 0.497415
47 1 0.498847 0.664494 0.498732
22 1 0.581554 0.587431 0.505563
43 1 0.664837 0.645528 0.500774
59 1 0.7425 0.588588 0.50121
15 1 0.98823 0.72432 0.498109
79 1 0.225488 0.678526 0.498044
58 1 0.322273 0.806471 0.502092
11 1 0.451616 0.78442 0.498496
17 1 0.594704 0.736094 0.504727
74 1 0.717822 0.709583 0.501926
25 1 0.731095 0.79697 0.498897
20 1 0.820344 0.678909 0.504181
64 1 0.104723 0.850808 0.498995
37 1 0.0138554 0.862807 0.494599
2 1 0.194045 0.791127 0.500935
80 1 0.382729 0.877751 0.501067
36 1 0.63423 0.884541 0.498986
13 1 0.875405 0.826731 0.500936
19 1 0.123095 0.964616 0.496751
1 1 0.284123 0.921091 0.498345
44 1 0.492276 0.0304023 0.499014
39 1 0.468319 0.924541 0.498865
23 1 0.579529 0.981285 0.502211
50 1 0.682418 0.0115692 0.500838
30 1 0.761655 0.927104 0.499881
21 1 0.892627 0.950684 0.500158
ITEM: TIMESTEP
2250
ITEM: NUMBER OF ATOMS
68
ITEM: BOX BOUNDS pp pp pp
-4.8075606388753034e+00 4.8075606388753034e+00
-4.8206767642538306e+00 4.8206767642538306e+00
-1.0000000000000001e-01 1.0000000000000001e-01
ITEM: ATOMS id type xs ys zs
42 1 0.996151 0.970573 0.500919
76 1 0.263854 0.126386 0.500127
57 1 0.260243 0.0409086 0.500973
32 1 0.371813 0.00770596 0.503322
55 1 0.554255 0.0979733 0.499711
48 1 0.647376 0.0984256 0.501811
8 1 0.807241 0.0631368 0.497303
51 1 0.946368 0.0405057 0.500369
5 1 0.21079 0.223149 0.502463
53 1 0.341204 0.110005 0.509306
16 1 0.446286 0.134148 0.499486
54 1 0.57963 0.192201 0.505428
49 1 0.883481 0.168516 0.497784
56 1 0.975664 0.126187 0.496375
4 1 0.359443 0.260716 0.505857
9 1 0.498589 0.281094 0.504484
7 1 0.73587 0.198797 0.502619
18 1 0.883283 0.289549 0.501668
78 1 0.950392 0.208589 0.50157
75 1 0.0359832 0.396772 0.505424
31 1 0.131651 0.361806 0.499438
41 1 0.209616 0.44159 0.497581
40 1 0.262835 0.351394 0.499564
29 1 0.419108 0.407724 0.503722
12 1 0.558277 0.442705 0.502093
34 1 0.628292 0.282838 0.496652
33 1 0.751966 0.331017 0.497726
66 1 0.814998 0.406548 0.497915
35 1 0.915023 0.432259 0.499468
71 1 0.0105429 0.452697 0.501093
3 1 0.00814927 0.565511 0.498352
52 1 0.0906834 0.461478 0.493449
38 1 0.329629 0.484747 0.501447
10 1 0.220348 0.568268 0.502207
6 1 0.434416 0.557954 0.497215
63 1 0.657781 0.381604 0.500063
45 1 0.71161 0.434828 0.50102
46 1 0.66246 0.521943 0.503113
26 1 0.798339 0.501446 0.492647
72 1 0.117968 0.534748 0.497859
14 1 0.325636 0.677168 0.496979
69 1 0.4347 0.684619 0.497444
47 1 0.498743 0.663986 0.498772
22 1 0.581841 0.587327 0.506047
43 1 0.664718 0.645803 0.499363
59 1 0.741665 0.587238 0.50205
15 1 0.990659 0.7242 0.496409
79 1 0.225216 0.678007 0.499131
58 1 0.322677 0.806403 0.500855
11 1 0.451521 0.78394 0.497345
17 1 0.594503 0.736892 0.503935
74 1 0.716917 0.709912 0.502347
25 1 0.731981 0.797049 0.497388
20 1 0.81905 0.678633 0.505284
64 1 0.105117 0.850744 0.498663
37 1 0.0136462 0.86278 0.495305
2 1 0.194506 0.790899 0.501972
80 1 0.381943 0.877683 0.50056
36 1 0.634951 0.88437 0.498938
13 1 0.876952 0.825801 0.502036
19 1 0.123483 0.96474 0.49579
1 1 0.284747 0.921166 0.498108
44 1 0.492465 0.0304067 0.497842
39 1 0.468013 0.924057 0.497368
23 1 0.5791 0.980179 0.504429
50 1 0.68209 0.0110639 0.501728
30 1 0.762219 0.92742 0.497914
21 1 0.892585 0.95063 0.500087
ITEM: TIMESTEP
2500
ITEM: NUMBER OF ATOMS
68
ITEM: BOX BOUNDS pp pp pp
-4.8063565379863524e+00 4.8063565379863524e+00
-4.8228562144031217e+00 4.8228562144031217e+00
-1.0000000000000001e-01 1.0000000000000001e-01
ITEM: ATOMS id type xs ys zs
42 1 0.995891 0.969681 0.499708
76 1 0.263048 0.125733 0.501352
57 1 0.260627 0.0405912 0.503329
32 1 0.371444 0.00702468 0.503549
55 1 0.554474 0.0978222 0.49974
48 1 0.647341 0.0994948 0.499967
8 1 0.807466 0.0626148 0.49682
51 1 0.946459 0.0400308 0.500021
5 1 0.210914 0.223124 0.50292
53 1 0.340732 0.108435 0.508939
16 1 0.44596 0.133969 0.499652
54 1 0.578383 0.192668 0.506358
49 1 0.882611 0.168969 0.498262
56 1 0.974569 0.126033 0.494797
4 1 0.35912 0.262075 0.503324
9 1 0.498471 0.281837 0.502872
7 1 0.73745 0.198714 0.503511
18 1 0.88424 0.289735 0.502136
78 1 0.95004 0.208166 0.503748
75 1 0.035288 0.395666 0.505155
31 1 0.130642 0.35958 0.500874
41 1 0.206926 0.441317 0.494934
40 1 0.261656 0.352 0.499245
29 1 0.418841 0.407674 0.50467
12 1 0.558034 0.442344 0.503495
34 1 0.629255 0.282226 0.497514
33 1 0.75311 0.330417 0.496372
66 1 0.813785 0.407697 0.497885
35 1 0.913988 0.432666 0.499283
71 1 0.0105269 0.452078 0.50062
3 1 0.00977497 0.565136 0.498933
52 1 0.0910159 0.460369 0.492093
38 1 0.329516 0.483962 0.501415
10 1 0.220553 0.567917 0.502232
6 1 0.434572 0.558435 0.498238
63 1 0.658057 0.380987 0.498861
45 1 0.711771 0.434365 0.501839
46 1 0.662381 0.521417 0.503558
26 1 0.797204 0.501873 0.491018
72 1 0.118762 0.533326 0.501306
14 1 0.325801 0.677322 0.495242
69 1 0.435321 0.684297 0.498863
47 1 0.499293 0.663472 0.499283
22 1 0.581994 0.586418 0.508287
43 1 0.663952 0.645333 0.501336
59 1 0.741645 0.587833 0.498533
15 1 0.9901 0.723549 0.497432
79 1 0.22526 0.67854 0.499069
58 1 0.322339 0.806463 0.500578
11 1 0.451428 0.784077 0.498537
17 1 0.593799 0.736734 0.505966
74 1 0.716198 0.709629 0.503592
25 1 0.731467 0.796732 0.496891
20 1 0.819089 0.679165 0.505136
64 1 0.105097 0.851234 0.498639
37 1 0.0134482 0.862088 0.497014
2 1 0.194351 0.791091 0.501693
80 1 0.381481 0.878019 0.500669
36 1 0.635083 0.884257 0.497937
13 1 0.876318 0.826352 0.503575
19 1 0.123678 0.964977 0.496527
1 1 0.283483 0.921103 0.498286
44 1 0.492627 0.0306302 0.497015
39 1 0.467711 0.924543 0.496249
23 1 0.579379 0.980519 0.50526
50 1 0.682611 0.0115837 0.501163
30 1 0.76143 0.926949 0.499513
21 1 0.892187 0.950497 0.498948
ITEM: TIMESTEP
2750
ITEM: NUMBER OF ATOMS
68
ITEM: BOX BOUNDS pp pp pp
-4.8051524370974015e+00 4.8051524370974015e+00
-4.8171277763019491e+00 4.8171277763019491e+00
-1.0000000000000001e-01 1.0000000000000001e-01
ITEM: ATOMS id type xs ys zs
42 1 0.994973 0.969804 0.49637
76 1 0.262592 0.125893 0.500426
57 1 0.26006 0.0403365 0.501953
32 1 0.371556 0.00798126 0.503445
55 1 0.553499 0.0980449 0.498861
48 1 0.646856 0.0988343 0.500268
8 1 0.80733 0.0621504 0.496289
51 1 0.944977 0.0398411 0.502703
5 1 0.210398 0.222923 0.502828
53 1 0.340453 0.110473 0.506981
16 1 0.446097 0.134787 0.500157
54 1 0.578095 0.192977 0.507194
49 1 0.88205 0.168741 0.498696
56 1 0.973298 0.125774 0.496058
4 1 0.358732 0.262478 0.502155
9 1 0.498132 0.282521 0.501018
7 1 0.737168 0.19836 0.502033
18 1 0.883476 0.289849 0.50227
78 1 0.949432 0.20819 0.50314
75 1 0.0352474 0.394991 0.506209
31 1 0.13024 0.359316 0.501349
41 1 0.207057 0.440767 0.494146
40 1 0.261428 0.351926 0.498357
29 1 0.418468 0.408294 0.503726
12 1 0.558231 0.442097 0.505419
34 1 0.628175 0.281818 0.496455
33 1 0.751572 0.330634 0.49521
66 1 0.813767 0.407515 0.497482
35 1 0.914523 0.433241 0.49885
71 1 0.0108499 0.451524 0.500756
3 1 0.00877435 0.564791 0.498895
52 1 0.090815 0.459877 0.491605
38 1 0.329232 0.485801 0.502231
10 1 0.219821 0.566896 0.500782
6 1 0.435017 0.558081 0.498305
63 1 0.658406 0.380499 0.499619
45 1 0.710909 0.43464 0.503388
46 1 0.662667 0.521678 0.503345
26 1 0.796982 0.502276 0.489924
72 1 0.117441 0.533048 0.501339
14 1 0.326349 0.676672 0.494527
69 1 0.435089 0.68368 0.49824
47 1 0.499044 0.664048 0.49762
22 1 0.581913 0.586614 0.508487
43 1 0.663515 0.645779 0.50208
59 1 0.740977 0.58809 0.497807
15 1 0.989901 0.724224 0.496554
79 1 0.226421 0.677773 0.499654
58 1 0.322379 0.805871 0.49873
11 1 0.450985 0.783479 0.497514
17 1 0.594316 0.736758 0.505305
74 1 0.716994 0.709206 0.504083
25 1 0.731214 0.796269 0.49923
20 1 0.819319 0.678094 0.504463
64 1 0.105343 0.851118 0.499252
37 1 0.0139706 0.861933 0.49794
2 1 0.193994 0.789729 0.501574
80 1 0.38184 0.877139 0.50007
36 1 0.633605 0.883438 0.498048
13 1 0.87565 0.825337 0.502853
19 1 0.1221 0.965115 0.498188
1 1 0.284138 0.920805 0.499332
44 1 0.491657 0.0305015 0.497766
39 1 0.467679 0.92437 0.495156
23 1 0.578759 0.980427 0.504479
50 1 0.681547 0.0114001 0.500918
30 1 0.760633 0.926463 0.500151
21 1 0.891464 0.949668 0.497065
ITEM: TIMESTEP
3000
ITEM: NUMBER OF ATOMS
68
ITEM: BOX BOUNDS pp pp pp
-4.8039483362084505e+00 4.8039483362084505e+00
-4.8162527063125120e+00 4.8162527063125120e+00
-1.0000000000000001e-01 1.0000000000000001e-01
ITEM: ATOMS id type xs ys zs
42 1 0.9947 0.969637 0.497375
76 1 0.262039 0.126263 0.499649
57 1 0.259607 0.0407689 0.503422
32 1 0.371138 0.00784213 0.505077
55 1 0.553364 0.0986557 0.498629
48 1 0.646479 0.101306 0.500593
8 1 0.806615 0.0625587 0.495008
51 1 0.944491 0.0394778 0.503496
5 1 0.209214 0.222935 0.502882
53 1 0.339465 0.109545 0.507015
16 1 0.444818 0.134748 0.501463
54 1 0.578115 0.193317 0.507286
49 1 0.880768 0.169554 0.497646
56 1 0.971981 0.125773 0.497302
4 1 0.357975 0.261568 0.502804
9 1 0.497478 0.282356 0.502992
7 1 0.73753 0.199085 0.502715
18 1 0.882182 0.290554 0.503441
78 1 0.947943 0.208782 0.501942
75 1 0.0360505 0.39549 0.50587
31 1 0.130854 0.359509 0.500858
41 1 0.207918 0.441271 0.49507
40 1 0.261192 0.351306 0.498939
29 1 0.419982 0.409885 0.503825
12 1 0.558951 0.442776 0.506985
34 1 0.628458 0.282407 0.495721
33 1 0.751083 0.331384 0.49493
66 1 0.814588 0.406375 0.497026
35 1 0.914654 0.432861 0.499043
71 1 0.010863 0.451514 0.499434
3 1 0.00848175 0.564507 0.497355
52 1 0.091387 0.460249 0.490891
38 1 0.328376 0.483355 0.503273
10 1 0.220307 0.567337 0.499862
6 1 0.433302 0.558519 0.495373
63 1 0.658527 0.380826 0.498505
45 1 0.710252 0.435479 0.502938
46 1 0.662999 0.523701 0.504639
26 1 0.796677 0.501243 0.490719
72 1 0.117748 0.533547 0.501942
14 1 0.325509 0.677194 0.4924
69 1 0.434684 0.684385 0.496975
47 1 0.49862 0.664364 0.499246
22 1 0.58161 0.587217 0.508423
43 1 0.664401 0.64614 0.502473
59 1 0.741498 0.587979 0.496312
15 1 0.990316 0.723166 0.498124
79 1 0.225354 0.678143 0.498945
58 1 0.321565 0.806318 0.499594
11 1 0.451086 0.783921 0.496784
17 1 0.593941 0.736852 0.505633
74 1 0.71724 0.70955 0.504182
25 1 0.731016 0.796941 0.499895
20 1 0.819441 0.678591 0.505824
64 1 0.104749 0.851753 0.498656
37 1 0.0129616 0.861446 0.498235
2 1 0.193585 0.791139 0.500759
80 1 0.38158 0.877603 0.501092
36 1 0.633169 0.883515 0.497863
13 1 0.875552 0.824773 0.503799
19 1 0.121986 0.965239 0.498969
1 1 0.283898 0.921359 0.49937
44 1 0.491743 0.0310008 0.499551
39 1 0.467139 0.924589 0.495415
23 1 0.578426 0.979937 0.504022
50 1 0.681327 0.013089 0.502823
30 1 0.759642 0.92708 0.500144
21 1 0.890868 0.949419 0.496342
ITEM: TIMESTEP
3250
ITEM: NUMBER OF ATOMS
68
ITEM: BOX BOUNDS pp pp pp
-4.8027442353194996e+00 4.8027442353194996e+00
-4.8197970842115749e+00 4.8197970842115749e+00
-1.0000000000000001e-01 1.0000000000000001e-01
ITEM: ATOMS id type xs ys zs
42 1 0.994284 0.968932 0.49746
76 1 0.262219 0.124832 0.499649
57 1 0.258703 0.0395346 0.502481
32 1 0.370928 0.00779233 0.507051
55 1 0.553351 0.0984592 0.496923
48 1 0.646238 0.100062 0.500143
8 1 0.807629 0.0626764 0.496757
51 1 0.944789 0.039183 0.503638
5 1 0.209969 0.222078 0.501358
53 1 0.3403 0.109676 0.507398
16 1 0.445445 0.134616 0.501996
54 1 0.578104 0.193185 0.504266
49 1 0.880393 0.169954 0.498721
56 1 0.971435 0.125344 0.495833
4 1 0.358707 0.261371 0.502134
9 1 0.497763 0.282478 0.503459
7 1 0.737323 0.199009 0.502623
18 1 0.882279 0.290098 0.503257
78 1 0.948607 0.207971 0.502803
75 1 0.03627 0.395142 0.502381
31 1 0.131513 0.359575 0.502792
41 1 0.208634 0.440654 0.494293
40 1 0.261809 0.351122 0.496617
29 1 0.42013 0.408725 0.504495
12 1 0.559558 0.442625 0.509306
34 1 0.628063 0.282251 0.496685
33 1 0.750661 0.331596 0.494655
66 1 0.814183 0.406217 0.496355
35 1 0.913998 0.4336 0.501499
71 1 0.0107767 0.451184 0.499252
3 1 0.0086839 0.564443 0.497733
52 1 0.0914604 0.459985 0.491733
38 1 0.329295 0.483796 0.503479
10 1 0.220022 0.56713 0.499249
6 1 0.433991 0.558599 0.495694
63 1 0.659161 0.380335 0.499741
45 1 0.710468 0.435215 0.5019
46 1 0.662719 0.523925 0.504581
26 1 0.797149 0.501468 0.490454
72 1 0.117895 0.53353 0.501723
14 1 0.325382 0.677598 0.490938
69 1 0.434531 0.684614 0.497779
47 1 0.498657 0.664602 0.498628
22 1 0.581124 0.587763 0.50695
43 1 0.664525 0.645975 0.502879
59 1 0.742006 0.587632 0.496413
15 1 0.99074 0.722856 0.500137
79 1 0.22459 0.678047 0.499458
58 1 0.322207 0.806509 0.500209
11 1 0.451574 0.784098 0.496648
17 1 0.594635 0.736954 0.504658
74 1 0.716946 0.709783 0.504069
25 1 0.731467 0.796741 0.498822
20 1 0.818887 0.678548 0.50664
64 1 0.105397 0.851272 0.499182
37 1 0.013707 0.861127 0.496773
2 1 0.194072 0.790475 0.50171
80 1 0.381183 0.876961 0.499603
36 1 0.632712 0.882049 0.496957
13 1 0.876914 0.824465 0.5036
19 1 0.122409 0.964865 0.497586
1 1 0.283719 0.920977 0.499574
44 1 0.49228 0.0303658 0.499019
39 1 0.467196 0.924523 0.495736
23 1 0.579015 0.979468 0.504564
50 1 0.681694 0.0128713 0.502971
30 1 0.759626 0.927273 0.500627
21 1 0.89059 0.949234 0.496351
ITEM: TIMESTEP
3500
ITEM: NUMBER OF ATOMS
68
ITEM: BOX BOUNDS pp pp pp
-4.8015401344305486e+00 4.8015401344305486e+00
-4.8262848900946258e+00 4.8262848900946258e+00
-1.0000000000000001e-01 1.0000000000000001e-01
ITEM: ATOMS id type xs ys zs
42 1 0.994622 0.968793 0.495907
76 1 0.261757 0.125566 0.498899
57 1 0.258677 0.0399342 0.502772
32 1 0.370599 0.00707624 0.508184
55 1 0.553267 0.0985548 0.496264
48 1 0.646354 0.0994683 0.500775
8 1 0.807235 0.061807 0.495166
51 1 0.944465 0.0386695 0.503879
5 1 0.210187 0.223002 0.500445
53 1 0.339802 0.108825 0.50673
16 1 0.444836 0.133971 0.502746
54 1 0.579001 0.192696 0.5043
49 1 0.880276 0.169559 0.498382
56 1 0.970887 0.125161 0.494434
4 1 0.358839 0.260975 0.501498
9 1 0.497746 0.281605 0.502061
7 1 0.737771 0.198889 0.50388
18 1 0.883131 0.290741 0.502955
78 1 0.948204 0.207797 0.503484
75 1 0.0363864 0.395856 0.502105
31 1 0.132 0.36035 0.502609
41 1 0.209528 0.440843 0.493541
40 1 0.262622 0.351773 0.498334
29 1 0.42031 0.409066 0.503484
12 1 0.560099 0.442481 0.509343
34 1 0.628588 0.281798 0.495788
33 1 0.751642 0.331796 0.495225
66 1 0.815068 0.406781 0.497902
35 1 0.915205 0.43275 0.500268
71 1 0.0114635 0.452221 0.50116