LAMMPS (23 Jun 2022 - Update 4)
  using 1 OpenMP thread(s) per MPI task
# Compute elastic constant tensor for a crystal
#
# Written by Aidan Thompson (Sandia, athomps@sandia.gov)
#
#  This script uses the following three include files.
#
#   init.mod      (must be modified for different crystal structures)
# 	       	  Define units, deformation parameters and initial
#		  configuration of the atoms and simulation cell.
#
#
#   potential.mod    (must be modified for different pair styles)
# 		     Define pair style and other attributes
#		     not stored in restart file
#
#
#   displace.mod    (displace.mod should not need to be modified)
# 		    Perform positive and negative box displacements
# 		    in direction ${dir} and size ${up}.
# 		    It uses the resultant changes
#		    in stress to compute one
# 		    row of the elastic stiffness tensor
#
#		    Inputs variables:
#		    	   dir = the Voigt deformation component
#		    		    (1,2,3,4,5,6)
#		    Global constants:
#       	    	   up = the deformation magnitude (strain units)
#       		   cfac = conversion from LAMMPS pressure units to
#               	   output units for elastic constants
#
#
#  To run this on a different system, it should only be necessary to
#  modify the files init.mod and potential.mod. In order to calculate
#  the elastic constants correctly, care must be taken to specify
#  the correct units in init.mod (units, cfac and cunits). It is also
#  important to verify that the minimization of energy w.r.t atom
#  positions in the deformed cell is fully converged.
#  One indication of this is that the elastic constants are insensitive
#  to the choice of the variable ${up} in init.mod. Another is to check
#  the final max and two-norm forces reported in the log file. If you know
#  that minimization is not required, you can set maxiter = 0.0 in
#  init.mod.
#



variable dt equal 0.01
variable strain equal 0.05
variable srate equal 1e-4
variable M equal 1000 # averaging time for properties
variable strainsteps equal ${strain}/${dt}/${srate}
variable strainsteps equal 0.05/${dt}/${srate}
variable strainsteps equal 0.05/0.01/${srate}
variable strainsteps equal 0.05/0.01/0.0001


dimension 2
include init.mod
# NOTE: This script can be modified for different atomic structures,
# units, etc. See in.elastic for more info.
#

# Define the finite deformation size. Try several values of this
# variable to verify that results do not depend on it.
variable up equal 1.0e-1

# Define the amount of random jiggle for atoms
# This prevents atoms from staying on saddle points
variable atomjiggle equal 1.0e-6

# Uncomment one of these blocks, depending on what units
# you are using in LAMMPS and for output

# metal units, elastic constants in eV/A^3
#units		metal
#variable cfac equal 6.2414e-7
#variable cunits string eV/A^3

# Choose potential
# metal units, elastic constants in GPa
units		metal
atom_style	full
#pair_style      lj/cut 1.0
#pair_style      yukawa 1.0 2.0
#pair_modify     mix arithmetic
bond_style      harmonic
angle_style     harmonic
dihedral_style  zero
special_bonds   amber
variable cfac equal 1.0e-4
variable cunits string GPa
boundary	p p p

# Need to set mass to something, just to satisfy LAMMPS
#mass 1 1.0e-20
read_data network.lmp
Reading data file ...
  orthogonal box = (-4.816403 -4.816403 -0.1) to (4.816403 4.816403 0.1)
  1 by 1 by 1 MPI processor grid
WARNING: Atom style in data file differs from currently defined atom style (src/read_data.cpp:538)
  reading atoms ...
  68 atoms
WARNING: Bond style in data file differs from currently defined bond style (src/read_data.cpp:630)
  scanning bonds ...
  5 = max bonds/atom
  reading bonds ...
  149 bonds
Finding 1-2 1-3 1-4 neighbors ...
  special bond factors lj:    0        0        0.5     
  special bond factors coul:  0        0        0.8333333333333334
     7 = max # of 1-2 neighbors
    35 = max # of 1-3 neighbors
   193 = max # of 1-4 neighbors
    35 = max # of special neighbors
  special bonds CPU = 0.000 seconds
  read_data CPU = 0.003 seconds

# real units, elastic constants in GPa
#units		real
#variable cfac equal 1.01325e-4
#variable cunits string GPa

# Define minimization parameters
variable etol equal 0.0
variable ftol equal 5.0e-10
variable maxiter equal 100000
variable maxeval equal 20000
variable dmax equal 1.0e-2


include potential.mod
# NOTE: This script can be modified for different pair styles
# See in.elastic for more info.

# Setup neighbor style
neighbor 3.0 nsq
neigh_modify once no every 1 delay 0 check yes
comm_modify cutoff 2.0

# Setup minimization style
min_style	     cg
min_modify	     dmax ${dmax} line quadratic
min_modify	     dmax 0.01 line quadratic

timestep	0.001


# Setup output
thermo		500
thermo_style custom step temp pe ebond eangle edihed press pxx pyy pzz pxy pxz pyz lx ly lz vol
thermo_modify norm no


#change_box all triclinic
comm_modify mode single cutoff 10.0 vel yes
atom_modify sort 0 0



# Compute initial state

#dump rela all atom 1 traj_relax.lmpstrj
fix 3 all box/relax x 0 y 0 # xy 0  #MS comment: relax if the network is periodic
minimize ${etol} ${ftol} ${maxiter} ${maxeval}
minimize 0 ${ftol} ${maxiter} ${maxeval}
minimize 0 5e-10 ${maxiter} ${maxeval}
minimize 0 5e-10 100000 ${maxeval}
minimize 0 5e-10 100000 20000
Neighbor list info ...
  update every 1 steps, delay 0 steps, check yes
  max neighbors/atom: 2000, page size: 100000
  master list distance cutoff = 0
  ghost atom cutoff = 10
  0 neighbor lists, perpetual/occasional/extra = 0 0 0
WARNING: Inconsistent image flags (src/domain.cpp:819)
Per MPI rank memory allocation (min/avg/max) = 9.161 | 9.161 | 9.161 Mbytes
   Step          Temp          PotEng         E_bond        E_angle        E_dihed         Press           Pxx            Pyy            Pzz            Pxy            Pxz            Pyz             Lx             Ly             Lz           Volume    
         0   0              3.7084564e-11  3.7084564e-11  0              0              0.026850399    0.090944086   -0.037243287    0              0.071829026    0              0              9.632806       9.632806       0.2            92.790951    
       414   0              4.9697364e-14  4.9697364e-14  0              0             -1.7762042e-06 -3.6536795e-06  1.0127113e-07  0              2.2008003e-05  0              0              9.6328071      9.6328051      0.2            92.790954    
Loop time of 0.0278027 on 1 procs for 414 steps with 68 atoms

99.9% CPU use with 1 MPI tasks x 1 OpenMP threads

Minimization stats:
  Stopping criterion = force tolerance
  Energy initial, next-to-last, final = 
    3.70845644302071e-11 4.9697398152863e-14 4.96973642934478e-14
  Force two-norm initial, final = 2.4214142e-05 4.9070454e-10
  Force max component initial, final = 8.963787e-06 2.1160488e-10
  Final line search alpha, max atom move = 1 2.1160488e-10
  Iterations, force evaluations = 414 828

MPI task timing breakdown:
Section |  min time  |  avg time  |  max time  |%varavg| %total
---------------------------------------------------------------
Pair    | 0          | 0          | 0          |   0.0 |  0.00
Bond    | 0.0038318  | 0.0038318  | 0.0038318  |   0.0 | 13.78
Neigh   | 0          | 0          | 0          |   0.0 |  0.00
Comm    | 0.008409   | 0.008409   | 0.008409   |   0.0 | 30.25
Output  | 0          | 0          | 0          |   0.0 |  0.00
Modify  | 0          | 0          | 0          |   0.0 |  0.00
Other   |            | 0.01556    |            |       | 55.97

Nlocal:             68 ave          68 max          68 min
Histogram: 1 0 0 0 0 0 0 0 0 0
Nghost:            584 ave         584 max         584 min
Histogram: 1 0 0 0 0 0 0 0 0 0
Neighs:              0 ave           0 max           0 min
Histogram: 1 0 0 0 0 0 0 0 0 0

Total # of neighbors = 0
Ave neighs/atom = 0
Ave special neighs/atom = 24.588235
Neighbor list builds = 0
Dangerous builds = 0
#dump rela all atom 1 traj_relax.lmpstrj
thermo 100
unfix 3

fix 2d all enforce2d



#dump dump0 all xyz 1000000 cfg0.xyz
#dump_modify dump0 format line "%d %20.10g %20.10g %20.10g"
#minimize ${etol} ${ftol} ${maxiter} ${maxeval}

#undump rela

#write_restart restart.equil

# These formulas define the derivatives w.r.t. strain components
# Constants uses $, variables use v_


timestep        ${dt}
timestep        0.01
variable nsteps equal round(${strainsteps})
variable nsteps equal round(50000)

fix             4 all nve
fix             5 all langevin 0.1 0.1 1 904297
#fix		6 all press/berendsen y  0.0 0.0 1 x 0.0 0.0 10
fix             6 all nph y 0.0 0.0 10 ptemp 0.1 # x 0.0 0.0 10

# For PLUMED2
# fix 22 all plumed plumedfile plumed.dat outfile plumed.out

#fix             6 all nph x 0.0 0.0 10
fix     	9 all deform 1 x erate -${srate} units box remap x
fix     	9 all deform 1 x erate -0.0001 units box remap x

#fix     8 all deform 1 xy erate ${srate} units box remap x



#fix    10 all ave/time

dump 1 all atom 250 deform_dump.lammpstrj


#To avoid flying ice cube phenomenon:
#fix 21 all momentum 100 linear 1 1 1 angular


run  ${nsteps}
run  50000
WARNING: One or more atoms are time integrated more than once (src/modify.cpp:292)
WARNING: Inconsistent image flags (src/domain.cpp:819)
Per MPI rank memory allocation (min/avg/max) = 8.036 | 8.036 | 8.036 Mbytes
   Step          Temp          PotEng         E_bond        E_angle        E_dihed         Press           Pxx            Pyy            Pzz            Pxy            Pxz            Pyz             Lx             Ly             Lz           Volume    
       414   0              4.9697364e-14  4.9697364e-14  0              0             -1.7762042e-06 -3.6536795e-06  1.0127113e-07  0              2.2008003e-05  0              0              9.6328071      9.6328051      0.2            92.790954    
       500   0.17380852     0.00078635668  0.00078635668  0              0             -306.57998     -566.91205     -46.444776      0             -93.592266      0              0              9.6319787      9.6338429      0.2            92.792969    
       600   0.19775959     0.00089111758  0.00089111758  0              0             -75.059954     -264.77964      114.48409      0             -110.02369      0              0              9.6310154      9.6297711      0.2            92.744474    
       700   0.19736584     0.0010378409   0.0010378409   0              0              219.03043      231.78055      206.08781      0              104.14714      0              0              9.6300521      9.6289242      0.2            92.727042    
       800   0.18940421     0.001133265    0.001133265    0              0             -6.7881046      60.589115     -74.334226      0              348.97405      0              0              9.6290888      9.638238       0.2            92.80745     
       900   0.20654998     0.0011504064   0.0011504064   0              0              179.81411      551.01142     -191.54677      0              694.29166      0              0              9.6281256      9.6398837      0.2            92.814011    
      1000   0.19394029     0.0010385043   0.0010385043   0              0              526.81047      1011.733       41.705179      0              225.72496      0              0              9.6271623      9.639394       0.2            92.800011    
      1100   0.18633101     0.00092976643  0.00092976643  0              0              496.10892      641.36921      350.6585       0             -92.873016      0              0              9.626199       9.6395717      0.2            92.792436    
      1200   0.22040682     0.00091150728  0.00091150728  0              0              324.95035      705.40489     -55.702116      0              556.75161      0              0              9.6252357      9.6439385      0.2            92.825181    
      1300   0.19600091     0.00085902401  0.00085902401  0              0             -299.70738     -190.68971     -408.91286      0             -669.85708      0              0              9.6242724      9.6433419      0.2            92.81015     
      1400   0.21649553     0.0010109857   0.0010109857   0              0              375.56317      712.21307      38.722685      0             -427.23163      0              0              9.6233092      9.636635       0.2            92.736318    
      1500   0.18302703     0.00096271358  0.00096271358  0              0              529.1646       656.76315      401.35773      0             -249.39147      0              0              9.6223459      9.6371542      0.2            92.732031    
      1600   0.22308714     0.00097275842  0.00097275842  0              0              220.45611      426.82575      13.892711      0              350.38627      0              0              9.6213826      9.6350427      0.2            92.702432    
      1700   0.23368872     0.0010658537   0.0010658537   0              0             -254.07256     -84.609094     -423.74356      0              58.590541      0              0              9.6204193      9.6370077      0.2            92.712056    
      1800   0.19235319     0.00088813276  0.00088813276  0              0              42.173889      51.478624      32.69602       0             -359.77465      0              0              9.619456       9.6343678      0.2            92.677378    
      1900   0.16222397     0.0010654678   0.0010654678   0              0              352.10991      105.55068      598.47693      0             -151.29037      0              0              9.6184928      9.635028       0.2            92.674447    
      2000   0.18775423     0.0010090972   0.0010090972   0              0              341.62962      738.40146     -55.363714      0             -618.93619      0              0              9.6175295      9.6368816      0.2            92.682993    
      2100   0.24512646     0.0010237268   0.0010237268   0              0             -281.20287      152.70324     -715.31184      0             -13.977948      0              0              9.6165662      9.6405501      0.2            92.708988    
      2200   0.21146276     0.00085126448  0.00085126448  0              0             -92.295785     -329.82677      145.02846      0             -320.63081      0              0              9.6156029      9.6339409      0.2            92.63615     
      2300   0.21260241     0.0011040906   0.0011040906   0              0              585.91513      344.75754      826.86643      0              684.42768      0              0              9.6146396      9.6368652      0.2            92.654986    
      2400   0.23446574     0.0011262714   0.0011262714   0              0             -722.05814     -935.54783     -508.76591      0             -429.8125       0              0              9.6136764      9.6434552      0.2            92.709057    
      2500   0.15184138     0.0013516713   0.0013516713   0              0             -811.11444     -714.03452     -908.40073      0             -486.15744      0              0              9.6127131      9.6457124      0.2            92.721466    
      2600   0.18347407     0.0011240869   0.0011240869   0              0              799.30259      902.48426      695.948        0              94.163545      0              0              9.6117498      9.6362971      0.2            92.621677    
      2700   0.21083878     0.0010901581   0.0010901581   0              0              1095.3667      1289.9917      900.52973      0             -755.31792      0              0              9.6107865      9.633908       0.2            92.589433    
      2800   0.23604823     0.0010731555   0.0010731555   0              0             -102.92243      742.65264     -948.74686      0              593.22347      0              0              9.6098232      9.6376333      0.2            92.615952    
      2900   0.2783797      0.0012135155   0.0012135155   0              0             -274.12672      193.52951     -742.00051      0              189.10264      0              0              9.60886        9.6371021      0.2            92.601564    
      3000   0.2154111      0.0011447719   0.0011447719   0              0              1179.2753      1313.553       1044.7999      0              124.64002      0              0              9.6078967      9.6325054      0.2            92.548117    
      3100   0.1977767      0.0012283948   0.0012283948   0              0              602.34881      542.27409      662.20777      0             -66.987355      0              0              9.6069334      9.6393607      0.2            92.604696    
      3200   0.194569       0.0012419546   0.0012419546   0              0             -692.08524     -242.57271     -1141.8406      0             -421.32179      0              0              9.6059701      9.651481       0.2            92.711838    
      3300   0.15733973     0.0010876327   0.0010876327   0              0              262.36805      863.68015     -339.15486      0             -128.42735      0              0              9.6050068      9.6482097      0.2            92.671121    
      3400   0.20845196     0.001186311    0.001186311    0              0              1106.4702      1143.9879      1068.7398      0              383.1193       0              0              9.6040435      9.6484873      0.2            92.664492    
      3500   0.22013712     0.0011372899   0.0011372899   0              0              486.8297       945.3477       28.074632      0              29.912723      0              0              9.6030803      9.6525698      0.2            92.694402    
      3600   0.23293814     0.0011560217   0.0011560217   0              0             -416.28828      224.39134     -1057.1485      0              236.87304      0              0              9.602117       9.655377       0.2            92.71206     
      3700   0.22583901     0.00097003471  0.00097003471  0              0              583.20705      956.25778      209.91729      0             -255.98761      0              0              9.6011537      9.6443742      0.2            92.597119    
      3800   0.19128359     0.0011393715   0.0011393715   0              0              641.53743      476.49917      806.36573      0              517.28469      0              0              9.6001904      9.6468738      0.2            92.611826    
      3900   0.2202289      0.00099790185  0.00099790185  0              0             -204.62364      47.051091     -456.50142      0             -153.30945      0              0              9.5992271      9.6576123      0.2            92.705615    
      4000   0.22181865     0.00091021436  0.00091021436  0              0             -421.27319     -409.84401     -432.87993      0             -90.908786      0              0              9.5982639      9.6544523      0.2            92.66598     
      4100   0.19490953     0.00093496891  0.00093496891  0              0              793.59588      1044.5496      542.43904      0              226.4065       0              0              9.5973006      9.6531781      0.2            92.644452    
      4200   0.19016118     0.0011712031   0.0011712031   0              0              1326.3873      2506.3954      146.17723      0              607.21183      0              0              9.5963373      9.6537969      0.2            92.641091    
      4300   0.23795382     0.0012337438   0.0012337438   0              0             -18.912695      632.13528     -670.16456      0              355.93208      0              0              9.595374       9.6555107      0.2            92.648236    
      4400   0.17821301     0.0014865099   0.0014865099   0              0             -39.209431     -211.13802      132.54914      0             -816.0573       0              0              9.5944107      9.6528468      0.2            92.613377    
      4500   0.22742397     0.0012012645   0.0012012645   0              0              1042.2614      1457.8242      626.48246      0             -68.238318      0              0              9.5934475      9.6494901      0.2            92.571876    
      4600   0.2241756      0.0012052848   0.0012052848   0              0              185.64308      834.84084     -463.79576      0              181.92559      0              0              9.5924842      9.6572061      0.2            92.636597    
      4700   0.20288848     0.0010388368   0.0010388368   0              0             -72.171489      351.81246     -496.34422      0              304.97461      0              0              9.5915209      9.6571317      0.2            92.62658     
      4800   0.2258147      0.001038231    0.001038231    0              0              417.66264      163.33966      671.82095      0              459.61852      0              0              9.5905576      9.6567554      0.2            92.613669    
      4900   0.169601       0.0011918849   0.0011918849   0              0              790.08305      1460.5431      119.45318      0              232.75156      0              0              9.5895943      9.6586659      0.2            92.622687    
      5000   0.18944361     0.0013207419   0.0013207419   0              0             -829.40539     -873.48038     -785.56318      0             -163.74238      0              0              9.5886311      9.6574068      0.2            92.601311    
      5100   0.19658529     0.0011319193   0.0011319193   0              0              324.5998       623.53704      25.462087      0              281.64058      0              0              9.5876678      9.6594154      0.2            92.611266    
      5200   0.18635276     0.001191032    0.001191032    0              0              892.10601      979.15372      804.8173       0              374.80943      0              0              9.5867045      9.6593362      0.2            92.601201    
      5300   0.20220083     0.0015355291   0.0015355291   0              0             -44.95775       382.94083     -473.07243      0             -353.82001      0              0              9.5857412      9.6571759      0.2            92.571189    
      5400   0.22545949     0.0011984894   0.0011984894   0              0             -409.21279     -159.12649     -659.4759       0              245.29435      0              0              9.5847779      9.6623083      0.2            92.611079    
      5500   0.18968493     0.00122721     0.00122721     0              0              1097.8176      1467.0222      728.42547      0              92.297254      0              0              9.5838147      9.6598445      0.2            92.578159    
      5600   0.20595575     0.0011887401   0.0011887401   0              0              792.5537       1369.6736      215.18327      0             -459.56698      0              0              9.5828514      9.6588426      0.2            92.559254    
      5700   0.23111188     0.0013412673   0.0013412673   0              0             -453.11236      30.055644     -936.5148       0              465.1719       0              0              9.5818881      9.655331       0.2            92.516302    
      5800   0.21455694     0.0014565191   0.0014565191   0              0              851.98792      1398.7539      305.04549      0              326.34502      0              0              9.5809248      9.64879        0.2            92.444331    
      5900   0.2102181      0.001208836    0.001208836    0              0              1136.2774      1581.9076      690.444        0              85.74461       0              0              9.5799615      9.6526825      0.2            92.472327    
      6000   0.21913108     0.0011728972   0.0011728972   0              0             -97.039747      289.73544     -484.02406      0              225.03181      0              0              9.5789983      9.6616111      0.2            92.548556    
      6100   0.2077437      0.0011671541   0.0011671541   0              0              172.45871      743.2784      -398.54967      0              129.48774      0              0              9.578035       9.6673785      0.2            92.594489    
      6200   0.19497444     0.00099085178  0.00099085178  0              0              525.50488      373.35157      677.44977      0             -215.91699      0              0              9.5770717      9.665447       0.2            92.566679    
      6300   0.19945596     0.0011829795   0.0011829795   0              0              523.72134      837.37055      209.83984      0              82.69515       0              0              9.5761084      9.6667979      0.2            92.570305    
      6400   0.19477834     0.00131231     0.00131231     0              0              222.7418       1031.4485     -586.17126      0              430.75657      0              0              9.5751451      9.6718051      0.2            92.608937    
      6500   0.21049923     0.0014944799   0.0014944799   0              0              459.4351       922.55054     -3.8860905      0             -603.0241       0              0              9.5741818      9.6663157      0.2            92.547064    
      6600   0.2069648      0.0011889803   0.0011889803   0              0              325.68992      234.96788      416.23443      0              55.250297      0              0              9.5732186      9.6688488      0.2            92.562003    
      6700   0.22880326     0.0011901765   0.0011901765   0              0              140.43605      439.6703      -158.99005      0              607.07206      0              0              9.5722553      9.6716482      0.2            92.579485    
      6800   0.21848648     0.0010918329   0.0010918329   0              0             -7.5599384      272.4691      -287.78158      0              1229.7452      0              0              9.571292       9.6697661      0.2            92.552155    
      6900   0.21459052     0.001353677    0.001353677    0              0              377.5233       461.68381      293.12192      0              594.67195      0              0              9.5703287      9.666106       0.2            92.507812    
      7000   0.21190123     0.0011305978   0.0011305978   0              0              276.18336      262.05362      290.13656      0              433.51278      0              0              9.5693654      9.6725778      0.2            92.560432    
      7100   0.22658997     0.0012935074   0.0012935074   0              0              766.09613      1824.1437     -292.15798      0              442.88761      0              0              9.5684022      9.6782074      0.2            92.60498     
      7200   0.2251217      0.0010910548   0.0010910548   0              0              484.27454      1171.1109     -202.75853      0              3.5501523      0              0              9.5674389      9.6764743      0.2            92.579076    
      7300   0.21427596     0.0012448489   0.0012448489   0              0              240.43756      259.36798      221.31261      0              328.38665      0              0              9.5664756      9.6761798      0.2            92.566938    
      7400   0.21662002     0.0012502609   0.0012502609   0              0              643.91622      1302.0994     -14.48227       0              832.58151      0              0              9.5655123      9.673721       0.2            92.534098    
      7500   0.1948523      0.0013598469   0.0013598469   0              0              204.62977      590.4089      -181.35948      0              1033.8973      0              0              9.564549       9.6754567      0.2            92.54138     
      7600   0.24051619     0.0012547537   0.0012547537   0              0              660.28253      1265.074       55.274228      0              352.41879      0              0              9.5635858      9.6715936      0.2            92.495115    
      7700   0.21706532     0.0012812555   0.0012812555   0              0              728.19731      1343.9372      112.25423      0              96.182416      0              0              9.5626225      9.6761332      0.2            92.529209    
      7800   0.23280887     0.0011465284   0.0011465284   0              0              441.39532      944.99996     -62.413387      0              451.59133      0              0              9.5616592      9.6859649      0.2            92.613895    
      7900   0.22951144     0.0011463612   0.0011463612   0              0              563.92604      1144.2213     -16.605745      0              220.22106      0              0              9.5606959      9.6867293      0.2            92.611873    
      8000   0.17999527     0.0012017454   0.0012017454   0              0              825.74574      1659.6814     -8.3913291      0              1065.6898      0              0              9.5597326      9.6803357      0.2            92.541421    
      8100   0.19791961     0.001023233    0.001023233    0              0              839.20186      1617.3741      60.828919      0              214.40485      0              0              9.5587694      9.6813011      0.2            92.541324    
      8200   0.21098836     0.0012792042   0.0012792042   0              0              239.74047      603.20339     -123.9404       0              119.83458      0              0              9.5578061      9.6824528      0.2            92.543006    
      8300   0.23884573     0.0013505335   0.0013505335   0              0              567.15664      1168.2085     -34.114407      0              650.19655      0              0              9.5568428      9.6877716      0.2            92.58451     
      8400   0.19834467     0.0012455914   0.0012455914   0              0              486.62575      763.38831      209.65059      0              452.22169      0              0              9.5558795      9.6839074      0.2            92.538253    
      8500   0.20571284     0.0011430488   0.0011430488   0              0              513.84377      1038.7697     -11.317972      0             -73.88438       0              0              9.5549162      9.6839636      0.2            92.529461    
      8600   0.24555569     0.0011405989   0.0011405989   0              0              503.80912      1231.3914     -223.98036      0              145.58566      0              0              9.553953       9.6901545      0.2            92.57928     
      8700   0.1804719      0.001347517    0.001347517    0              0              353.13316      565.41871      140.63289      0              164.08855      0              0              9.5529897      9.6836505      0.2            92.507814    
      8800   0.20355456     0.0011452719   0.0011452719   0              0              1020.8129      1830.4801      210.93927      0             -30.803024      0              0              9.5520264      9.6844376      0.2            92.506003    
      8900   0.1647034      0.00095410667  0.00095410667  0              0              601.44112      1480.1212     -277.40951      0             -120.04424      0              0              9.5510631      9.6902634      0.2            92.552317    
      9000   0.15122973     0.0011459282   0.0011459282   0              0              710.12837      1379.8881      40.191055      0              311.31773      0              0              9.5500998      9.6901003      0.2            92.541426    
      9100   0.21363673     0.0012443954   0.0012443954   0              0              824.30983      1355.5201      292.91162      0              423.76688      0              0              9.5491365      9.6913963      0.2            92.544467    
      9200   0.19457209     0.0011856542   0.0011856542   0              0              477.99986      1148.1031     -192.30576      0              463.83973      0              0              9.5481733      9.6939967      0.2            92.55996     
      9300   0.19521451     0.0012944857   0.0012944857   0              0              480.73411      1234.2673     -273.00754      0              600.04011      0              0              9.54721        9.6964874      0.2            92.574401    
      9400   0.18706345     0.0015809908   0.0015809908   0              0              894.69096      1279.2971      509.89301      0              892.65702      0              0              9.5462467      9.6958886      0.2            92.559344    
      9500   0.19046207     0.0012632769   0.0012632769   0              0              1450.1821      2785.615       114.55427      0             -4.0404207      0              0              9.5452834      9.6905946      0.2            92.499472    
      9600   0.19513477     0.0013213047   0.0013213047   0              0              414.48418      1531.6209     -702.87462      0              520.15821      0              0              9.5443201      9.6919073      0.2            92.502666    
      9700   0.19637385     0.0010570101   0.0010570101   0              0              177.65895      173.10534      182.04152      0              148.30523      0              0              9.5433569      9.6851349      0.2            92.428699    
      9800   0.19280141     0.0012620218   0.0012620218   0              0              728.19311      871.07958      585.13332      0              431.82393      0              0              9.5423936      9.6944791      0.2            92.508535    
      9900   0.20832424     0.0013729687   0.0013729687   0              0              32.222688      688.66235     -624.42272      0              26.657227      0              0              9.5414303      9.6999315      0.2            92.55122     
     10000   0.21017326     0.0014428722   0.0014428722   0              0              547.74157      1372.9391     -277.6569       0             -66.468875      0              0              9.540467       9.7012315      0.2            92.554279    
     10100   0.24654524     0.0012723299   0.0012723299   0              0              1035.3556      1090.6946      979.80995      0              996.36291      0              0              9.5395037      9.6937664      0.2            92.473721    
     10200   0.17101647     0.0013063739   0.0013063739   0              0              444.26807      1344.2213     -455.87137      0              529.72142      0              0              9.5385405      9.705562       0.2            92.576896    
     10300   0.17839794     0.0013032438   0.0013032438   0              0              414.14374      1459.1765     -631.05409      0              486.54705      0              0              9.5375772      9.7030774      0.2            92.54385     
     10400   0.19290252     0.0013912461   0.0013912461   0              0              1032.8877      1225.6412      839.90814      0              401.12069      0              0              9.5366139      9.7020165      0.2            92.524386    
     10500   0.18970625     0.0017367133   0.0017367133   0              0              1008.5846      1912.4545      104.48877      0              832.16428      0              0              9.5356506      9.6980192      0.2            92.476923    
     10600   0.19625871     0.0010988928   0.0010988928   0              0              69.310876      1150.9462     -1012.5343      0             -109.26743      0              0              9.5346873      9.7045547      0.2            92.529895    
     10700   0.17588676     0.0014194416   0.0014194416   0              0              466.18864      479.35287      452.77696      0             -83.3778        0              0              9.5337241      9.7011335      0.2            92.48793     
     10800   0.18748727     0.0013913154   0.0013913154   0              0              660.79589      718.86266      602.4876       0             -13.448096      0              0              9.5327608      9.70352        0.2            92.501335    
     10900   0.21157199     0.0013035053   0.0013035053   0              0              91.03257       883.29858     -701.42807      0             -330.10168      0              0              9.5317975      9.7163008      0.2            92.613812    
     11000   0.17943352     0.0014263307   0.0014263307   0              0              311.61684      613.27894      9.7382014      0              176.06938      0              0              9.5308342      9.7143928      0.2            92.586267    
     11100   0.21170455     0.0012257432   0.0012257432   0              0              870.29308      957.79328      782.61819      0              166.34209      0              0              9.5298709      9.709841       0.2            92.533532    
     11200   0.16591942     0.0013227265   0.0013227265   0              0              26.596367      674.4822      -621.47048      0              180.91204      0              0              9.5289077      9.7149383      0.2            92.57275     
     11300   0.16595233     0.0012274139   0.0012274139   0              0              537.61727      1337.3863     -262.35494      0              346.80446      0              0              9.5279444      9.7114366      0.2            92.530028    
     11400   0.21200328     0.0011956319   0.0011956319   0              0              1212.0415      1558.1388      865.74296      0             -289.28304      0              0              9.5269811      9.7097806      0.2            92.504896    
     11500   0.1837382      0.0013170603   0.0013170603   0              0              757.94116      1747.9965     -232.34324      0             -142.13075      0              0              9.5260178      9.7103488      0.2            92.500956    
     11600   0.16747151     0.0015737958   0.0015737958   0              0             -113.69913      411.32117     -638.92698      0             -300.08224      0              0              9.5250545      9.7148794      0.2            92.534756    
     11700   0.24407161     0.0015470359   0.0015470359   0              0              945.63288      1201.7282      689.35192      0             -364.06534      0              0              9.5240913      9.7091206      0.2            92.47055     
     11800   0.23839549     0.0015091526   0.0015091526   0              0              1164.006       2203.9291      123.89794      0              400.71391      0              0              9.523128       9.7111753      0.2            92.480765    
     11900   0.19605072     0.0013386923   0.0013386923   0              0              113.75524      1218.6031     -991.25299      0              423.39185      0              0              9.5221647      9.7203561      0.2            92.558832    
     12000   0.22761498     0.0012167868   0.0012167868   0              0              996.19697      1606.7418      385.45117      0              189.08031      0              0              9.5212014      9.7118901      0.2            92.468862    
     12100   0.1894449      0.0016587727   0.0016587727   0              0              982.09326      1392.2788      571.68248      0              631.30325      0              0              9.5202381      9.709679       0.2            92.438456    
     12200   0.21141894     0.0013589466   0.0013589466   0              0              130.36383      1010.6482     -750.13334      0              456.62638      0              0              9.5192748      9.7155669      0.2            92.485151    
     12300   0.19566477     0.001522404    0.001522404    0              0              422.90008      767.54191      78.048498      0              845.58466      0              0              9.5183116      9.7154554      0.2            92.474732    
     12400   0.23525657     0.0013888257   0.0013888257   0              0              819.63112      817.31352      821.7421       0              282.26419      0              0              9.5173483      9.713898       0.2            92.450551    
     12500   0.20811309     0.0014610766   0.0014610766   0              0              316.36646      1386.6419     -754.10368      0              78.088645      0              0              9.516385       9.720303       0.2            92.502145    
     12600   0.19143463     0.0017666439   0.0017666439   0              0              761.5179       1939.3327     -416.49759      0              1166.4548      0              0              9.5154217      9.7166422      0.2            92.457949    
     12700   0.26860708     0.0014114324   0.0014114324   0              0              1512.98        2027.5455      998.17549      0              182.02726      0              0              9.5144584      9.7102716      0.2            92.387976    
     12800   0.22504677     0.00129794     0.00129794     0              0              938.52709      2191.6182     -314.76681      0              211.38112      0              0              9.5134952      9.7141452      0.2            92.415473    
     12900   0.20082466     0.0013984127   0.0013984127   0              0              495.15762      1684.3763     -694.26278      0              2.1471325      0              0              9.5125319      9.7174609      0.2            92.437657    
     13000   0.21898562     0.0014188392   0.0014188392   0              0              1398.3866      2029.0894      767.50239      0              781.20493      0              0              9.5115686      9.7175865      0.2            92.429491    
     13100   0.18369876     0.0013889534   0.0013889534   0              0              1058.3635      2008.4027      108.12421      0             -557.47706      0              0              9.5106053      9.7175173      0.2            92.419472    
     13200   0.22093434     0.0012540377   0.0012540377   0              0              245.0827       1393.2065     -903.26037      0              217.43177      0              0              9.509642       9.7175843      0.2            92.410748    
     13300   0.20631144     0.0014210465   0.0014210465   0              0              1423.3594      2424.8787      421.63593      0              177.75763      0              0              9.5086788      9.7149061      0.2            92.375922    
     13400   0.20909191     0.0014527886   0.0014527886   0              0              1651.9907      2871.7221      432.09062      0              88.503544      0              0              9.5077155      9.7232191      0.2            92.445601    
     13500   0.19118218     0.0016744162   0.0016744162   0              0              948.47716      2573.3918     -676.63946      0             -297.41043      0              0              9.5067522      9.720523       0.2            92.410604    
     13600   0.22271588     0.0014792472   0.0014792472   0              0              1152.1258      2243.3618      60.694483      0             -1055.3479      0              0              9.5057889      9.7173464      0.2            92.371044    
     13700   0.21837747     0.001761939    0.001761939    0              0              1913.3962      3234.6133      591.97353      0             -244.21275      0              0              9.5048256      9.7141726      0.2            92.331517    
     13800   0.22268579     0.0015153226   0.0015153226   0              0              412.67761      1359.1687     -534.03086      0             -32.49982       0              0              9.5038624      9.7237686      0.2            92.413358    
     13900   0.21846635     0.0015404938   0.0015404938   0              0              1074.7014      2329.7126     -180.48967      0              480.75662      0              0              9.5028991      9.7150045      0.2            92.320708    
     14000   0.21208168     0.0015526346   0.0015526346   0              0              1413.8832      2180.0032      647.56271      0              331.28901      0              0              9.5019358      9.7149932      0.2            92.311242    
     14100   0.20506741     0.0015087165   0.0015087165   0              0              923.54759      1976.9352     -130.03906      0              899.02197      0              0              9.5009725      9.7208629      0.2            92.357652    
     14200   0.17818133     0.0018194755   0.0018194755   0              0              668.29995      1800.9933     -464.61713      0              357.04741      0              0              9.5000092      9.7238396      0.2            92.376566    
     14300   0.16275467     0.0017855239   0.0017855239   0              0              396.47103      326.73331      465.99229      0              828.71294      0              0              9.499046       9.7197319      0.2            92.32818     
     14400   0.22184193     0.0013841762   0.0013841762   0              0              206.87998      363.90414      49.658143      0              530.94034      0              0              9.4980827      9.7249827      0.2            92.36869     
     14500   0.20463453     0.0015515531   0.0015515531   0              0              231.56548      894.46272     -431.50911      0             -234.75014      0              0              9.4971194      9.7237254      0.2            92.347381    
     14600   0.23780746     0.0014307362   0.0014307362   0              0              831.95747      1275.0664      388.6711       0              1010.7999      0              0              9.4961561      9.7189484      0.2            92.292652    
     14700   0.19208397     0.0017503217   0.0017503217   0              0              576.92618      1134.7269      18.940622      0              80.507012      0              0              9.4951928      9.7196752      0.2            92.290191    
     14800   0.1627393      0.0013649377   0.0013649377   0              0              811.80523      2031.4414     -408.02447      0              213.43796      0              0              9.4942295      9.722655       0.2            92.309118    
     14900   0.17373978     0.0013710202   0.0013710202   0              0              1535.9243      2863.9786      207.67906      0              147.52198      0              0              9.4932663      9.7250587      0.2            92.322571    
     15000   0.15778659     0.0013426737   0.0013426737   0              0              840.36165      1470.8316      209.69643      0             -80.174774      0              0              9.492303       9.725021       0.2            92.312846    
     15100   0.19239089     0.0014755937   0.0014755937   0              0              800.81785      2014.6532     -413.28076      0              645.7439       0              0              9.4913397      9.7281238      0.2            92.332928    
     15200   0.26330548     0.0015830121   0.0015830121   0              0              748.54804      1390.1511      106.72206      0              780.18801      0              0              9.4903764      9.7247914      0.2            92.291931    
     15300   0.2392366      0.0016665058   0.0016665058   0              0              1099.3812      1807.9418      390.63304      0              1371.4443      0              0              9.4894131      9.7226404      0.2            92.262151    
     15400   0.26596455     0.0017293064   0.0017293064   0              0              467.57465      1404.1552     -469.23078      0              738.75759      0              0              9.4884499      9.7315147      0.2            92.336989    
     15500   0.21902537     0.0014146652   0.0014146652   0              0              1097.0024      2220.3294     -26.512025      0              373.46344      0              0              9.4874866      9.7265448      0.2            92.280463    
     15600   0.18864681     0.001809883    0.001809883    0              0              1224.1975      1884.7274      563.47023      0              68.948282      0              0              9.4865233      9.7178857      0.2            92.188949    
     15700   0.18581009     0.0013501493   0.0013501493   0              0              421.46006      1140.3973     -297.7022       0              276.82275      0              0              9.48556        9.7278577      0.2            92.274178    
     15800   0.16982494     0.0014128866   0.0014128866   0              0              547.10981      1415.3433     -321.30829      0              124.36182      0              0              9.4845967      9.7252839      0.2            92.240396    
     15900   0.17947902     0.0018259044   0.0018259044   0              0              1331.6134      2131.1531      531.88259      0              40.154694      0              0              9.4836335      9.7190414      0.2            92.171826    
     16000   0.22882951     0.0016188007   0.0016188007   0              0              278.36664      663.74809     -107.22013      0              753.40195      0              0              9.4826702      9.7209637      0.2            92.180693    
     16100   0.2099893      0.0016041224   0.0016041224   0              0              203.05566      738.81574     -332.92241      0             -70.955752      0              0              9.4817069      9.7215478      0.2            92.176867    
     16200   0.20840138     0.0019831782   0.0019831782   0              0              772.63642      1170.6078      374.44643      0              304.30998      0              0              9.4807436      9.7210807      0.2            92.163074    
     16300   0.21592013     0.0015279658   0.0015279658   0              0              961.09412      1960.8213     -38.823515      0              21.869314      0              0              9.4797803      9.7133833      0.2            92.08074     
     16400   0.23158684     0.0016848755   0.0016848755   0              0              1006.8417      2379.8411     -366.38341      0              893.51413      0              0              9.4788171      9.7202369      0.2            92.136347    
     16500   0.17224616     0.0018006118   0.0018006118   0              0              542.89981      833.20688      252.43728      0              759.27729      0              0              9.4778538      9.7147151      0.2            92.07465     
     16600   0.1691542      0.001444826    0.001444826    0              0              1135.9526      2106.1439      165.52264      0              823.1449       0              0              9.4768905      9.7145381      0.2            92.063614    
     16700   0.21962537     0.0015594824   0.0015594824   0              0              1176.9192      2745.2963     -391.66091      0              767.39242      0              0              9.4759272      9.7211697      0.2            92.117096    
     16800   0.21004806     0.0019574514   0.0019574514   0              0              1630.3455      3150.3027      110.17833      0              350.05292      0              0              9.4749639      9.7219927      0.2            92.11553     
     16900   0.16349751     0.0018163927   0.0018163927   0              0              1562.0443      2948.5684      175.32239      0              75.810947      0              0              9.4740007      9.721307       0.2            92.099668    
     17000   0.1643756      0.0018229753   0.0018229753   0              0              1163.4548      2621.8264     -295.13264      0              843.49824      0              0              9.4730374      9.7219418      0.2            92.096318    
     17100   0.2348237      0.0017678691   0.0017678691   0              0              1100.782       2164.9906      36.362874      0              977.28206      0              0              9.4720741      9.7199794      0.2            92.068365    
     17200   0.25479005     0.0015944735   0.0015944735   0              0              1241.6099      2208.6703      274.30943      0              151.42093      0              0              9.4711108      9.7187722      0.2            92.047569    
     17300   0.16542568     0.0018797247   0.0018797247   0              0              1204.4633      2690.8196     -282.1253       0              245.90792      0              0              9.4701475      9.7201327      0.2            92.051091    
     17400   0.18139456     0.0017713802   0.0017713802   0              0              615.68531      1243.398      -12.230453      0              1985.2999      0              0              9.4691843      9.7211478      0.2            92.051339    
     17500   0.23078362     0.0017096949   0.0017096949   0              0              794.42916      1409.8548      178.77221      0              909.23649      0              0              9.468221       9.7244806      0.2            92.073531    
     17600   0.17187776     0.001510341    0.001510341    0              0              762.07287      1692.4072     -168.47789      0              1086.4869      0              0              9.4672577      9.7275634      0.2            92.093349    
     17700   0.22753628     0.001587172    0.001587172    0              0              642.47952      1258.5217      26.207957      0              976.75467      0              0              9.4662944      9.7232487      0.2            92.043135    
     17800   0.23265817     0.0017634314   0.0017634314   0              0              1506.078       2673.2141      338.75898      0              1081.8618      0              0              9.4653311      9.7181435      0.2            91.985446    
     17900   0.20781658     0.0014047623   0.0014047623   0              0              672.15695      1555.6828     -211.60115      0              307.68646      0              0              9.4643678      9.7238103      0.2            92.029718    
     18000   0.19733133     0.0016980764   0.0016980764   0              0              1235.1061      2564.3805     -94.369865      0              90.508524      0              0              9.4634046      9.7217941      0.2            92.001271    
     18100   0.18210563     0.0018154504   0.0018154504   0              0              1071.4479      1842.3903      300.3141       0              342.78165      0              0              9.4624413      9.7212666      0.2            91.986915    
     18200   0.17809462     0.0018196754   0.0018196754   0              0              731.55542      1577.4484     -114.52497      0             -23.714932      0              0              9.461478       9.7227645      0.2            91.991723    
     18300   0.20847533     0.0015346636   0.0015346636   0              0              1093.5648      2369.834      -182.90952      0              456.65292      0              0              9.4605147      9.7318113      0.2            92.067944    
     18400   0.23644544     0.0017331263   0.0017331263   0              0              1137.8136      2030.9267      244.48377      0              407.84733      0              0              9.4595514      9.7398094      0.2            92.134228    
     18500   0.22873929     0.0016057341   0.0016057341   0              0              474.48905      1047.1936     -98.4112        0              358.74538      0              0              9.4585882      9.7407913      0.2            92.134134    
     18600   0.23573651     0.0019808101   0.0019808101   0              0              191.27356      578.28166     -195.93189      0             -191.30639      0              0              9.4576249      9.7410475      0.2            92.127173    
     18700   0.18286371     0.0017967056   0.0017967056   0              0              1251.0807      2198.9683      302.94305      0              304.40663      0              0              9.4566616      9.738061       0.2            92.089547    
     18800   0.20010569     0.0016371992   0.0016371992   0              0              831.27457      1667.0023     -4.6334762      0              125.93734      0              0              9.4556983      9.7400421      0.2            92.0989      
     18900   0.17862051     0.0017256878   0.0017256878   0              0              732.20509      1787.3474     -323.17508      0              338.06627      0              0              9.454735       9.7494937      0.2            92.17888     
     19000   0.20649375     0.0017291885   0.0017291885   0              0              1333.5496      2435.7405      231.10108      0              497.28227      0              0              9.4537718      9.7478299      0.2            92.153759    
     19100   0.18892872     0.0018713158   0.0018713158   0              0              558.00135      1051.5917      64.225764      0              1232.1054      0              0              9.4528085      9.7496283      0.2            92.161369    
     19200   0.22075639     0.0016714963   0.0016714963   0              0             -38.592813      396.69117     -474.07455      0              756.34325      0              0              9.4518452      9.7553329      0.2            92.205897    
     19300   0.20529462     0.0016288254   0.0016288254   0              0              1319.1768      2274.6418      363.48714      0              409.32238      0              0              9.4508819      9.7488704      0.2            92.135423    
     19400   0.17849672     0.0017316441   0.0017316441   0              0              755.73398      1397.935       113.3401       0              457.38298      0              0              9.4499186      9.7483058      0.2            92.120697    
     19500   0.18962103     0.0016589529   0.0016589529   0              0              772.40418      2097.3462     -552.7077       0              362.68883      0              0              9.4489554      9.7445145      0.2            92.075483    
     19600   0.20983213     0.0017252322   0.0017252322   0              0              1320.6072      2241.9301      399.04588      0              102.25824      0              0              9.4479921      9.7412424      0.2            92.035181    
     19700   0.21881706     0.0018038035   0.0018038035   0              0              1023.9064      1947.9214      99.65394       0              223.55898      0              0              9.4470288      9.743449       0.2            92.046643    
     19800   0.18975224     0.0017986785   0.0017986785   0              0              296.30642      1160.7507     -568.31787      0             -850.01228      0              0              9.4460655      9.7491156      0.2            92.090785    
     19900   0.2117737      0.0017770576   0.0017770576   0              0              1275.7637      2067.4792      483.83246      0             -451.53461      0              0              9.4451022      9.7413945      0.2            92.008467    
     20000   0.16450027     0.0016764444   0.0016764444   0              0              1139.5696      2157.1325      121.83412      0             -384.49601      0              0              9.444139       9.7517354      0.2            92.096744    
     20100   0.21031684     0.001974957    0.001974957    0              0              530.87         1703.7464     -642.21949      0             -726.01144      0              0              9.4431757      9.7506107      0.2            92.07673     
     20200   0.2372608      0.0018186894   0.0018186894   0              0              996.33973      1605.6109      386.83488      0              79.395709      0              0              9.4422124      9.7470479      0.2            92.033696    
     20300   0.20602358     0.0017263558   0.0017263558   0              0              1139.82        1898.63        380.79239      0              226.04288      0              0              9.4412491      9.7467807      0.2            92.021784    
     20400   0.17353588     0.0018504758   0.0018504758   0              0              391.31194      1449.4856     -667.06158      0              312.79703      0              0              9.4402858      9.7521154      0.2            92.062757    
     20500   0.21087078     0.0017375507   0.0017375507   0              0              1348.3661      2447.5768      248.9554       0              263.47596      0              0              9.4393225      9.7491233      0.2            92.025119    
     20600   0.18833638     0.0016004996   0.0016004996   0              0              1612.9658      2713.6234      512.10965      0              480.85609      0              0              9.4383593      9.7490562      0.2            92.015095    
     20700   0.16224349     0.0014383743   0.0014383743   0              0              968.60006      2620.1348     -683.09475      0              639.15261      0              0              9.437396       9.7559604      0.2            92.070862    
     20800   0.21614779     0.0016884723   0.0016884723   0              0              1067.4485      2120.2958      14.407666      0             -113.14187      0              0              9.4364327      9.751065       0.2            92.015269    
     20900   0.25689406     0.0017588161   0.0017588161   0              0              1372.9284      2063.5591      682.09804      0              541.61634      0              0              9.4354694      9.7477668      0.2            91.974756    
     21000   0.2302786      0.0016921719   0.0016921719   0              0              630.31394      1887.8466     -627.44576      0              409.81353      0              0              9.4345061      9.742689       0.2            91.91746     
     21100   0.2202052      0.0017646266   0.0017646266   0              0              1040.7941      2243.6591     -162.26579      0              632.76916      0              0              9.4335429      9.7400383      0.2            91.883069    
     21200   0.25825303     0.0019067178   0.0019067178   0              0              1367.525       2002.7541      732.07351      0              495.8954       0              0              9.4325796      9.742641       0.2            91.898237    
     21300   0.20861618     0.0017962315   0.0017962315   0              0              720.35969      2132.5808     -692.05256      0              240.93882      0              0              9.4316163      9.7475688      0.2            91.935329    
     21400   0.26555338     0.0019361856   0.0019361856   0              0              476.60349      1097.5648     -144.61518      0              726.43437      0              0              9.430653       9.7510685      0.2            91.958944    
     21500   0.22136652     0.0017320873   0.0017320873   0              0              1556.2994      2229.51        882.87981      0              456.12967      0              0              9.4296897      9.7469491      0.2            91.910706    
     21600   0.25840135     0.0017286839   0.0017286839   0              0              412.9875       1587.9772     -762.19537      0              611.20185      0              0              9.4287265      9.7482308      0.2            91.913402    
     21700   0.17019926     0.0017166045   0.0017166045   0              0              559.01423      1288.5268     -170.72584      0              170.46424      0              0              9.4277632      9.754262       0.2            91.960872    
     21800   0.25669561     0.0018976949   0.0018976949   0              0              1017.4612      1078.3093      956.41872      0              678.62848      0              0              9.4267999      9.7461933      0.2            91.875414    
     21900   0.21848411     0.001918753    0.001918753    0              0              616.6837       2152.9352     -919.71422      0             -479.45888      0              0              9.4258366      9.7517962      0.2            91.918838    
     22000   0.21272296     0.0017670057   0.0017670057   0              0              741.10698      1669.4595     -187.46071      0              81.605288      0              0              9.4248733      9.7525218      0.2            91.916283    
     22100   0.19096672     0.0018574356   0.0018574356   0              0              2166.9555      2924.825       1408.8981      0              308.62799      0              0              9.4239101      9.7467074      0.2            91.852094    
     22200   0.19946399     0.0017604512   0.0017604512   0              0              517.0326       2336.2021     -1302.3402      0              375.12113      0              0              9.4229468      9.7653381      0.2            92.018261    
     22300   0.20134365     0.0016192973   0.0016192973   0              0              879.32895      1974.107      -215.63578      0             -240.12675      0              0              9.4219835      9.7583241      0.2            91.942768    
     22400   0.25713628     0.001752063    0.001752063    0              0              2146.9803      2477.0017      1816.7534      0              151.60021      0              0              9.4210202      9.7491173      0.2            91.846631    
     22500   0.17408937     0.0016925381   0.0016925381   0              0             -63.366238      1588.0518     -1715.0197      0              818.99179      0              0              9.4200569      9.7662013      0.2            91.998172    
     22600   0.19893905     0.0019704778   0.0019704778   0              0              1502.9331      2803.141       202.52271      0              35.880523      0              0              9.4190937      9.7560759      0.2            91.893393    
     22700   0.2337387      0.0019228735   0.0019228735   0              0              1465.8586      1378.7121      1552.8411      0              596.4032       0              0              9.4181304      9.745977       0.2            91.788882    
     22800   0.15908651     0.0019333447   0.0019333447   0              0             -565.9786       691.61399     -1823.7927      0              779.01076      0              0              9.4171671      9.7659057      0.2            91.967166    
     22900   0.20962428     0.0017322205   0.0017322205   0              0              920.32849      1380.0585      460.3868       0              745.6788       0              0              9.4162038      9.7603795      0.2            91.905723    
     23000   0.18413874     0.0018172062   0.0018172062   0              0              1847.3666      2433.7382      1260.8076      0              110.00331      0              0              9.4152405      9.7510004      0.2            91.808015    
     23100   0.24824834     0.001583351    0.001583351    0              0              250.55158      2033.435      -1532.5164      0              265.40341      0              0              9.4142772      9.7662871      0.2            91.942534    
     23200   0.23448941     0.0015722939   0.0015722939   0              0              1247.2289      2027.4188      466.84831      0              430.17127      0              0              9.413314       9.7536038      0.2            91.813735    
     23300   0.18157445     0.0016511305   0.0016511305   0              0              1412.8018      2081.794       743.56894      0              451.7984       0              0              9.4123507      9.7474645      0.2            91.746554    
     23400   0.19808858     0.0018262849   0.0018262849   0              0              478.70724      1882.4489     -925.2223       0              671.07493      0              0              9.4113874      9.7562613      0.2            91.819955    
     23500   0.20364773     0.0017285619   0.0017285619   0              0              183.53886      39.774178      327.1044       0              417.65621      0              0              9.4104241      9.7536289      0.2            91.785784    
     23600   0.20734457     0.0017280627   0.0017280627   0              0              1136.3474      1805.5127      466.98405      0              232.00988      0              0              9.4094608      9.7550934      0.2            91.790169    
     23700   0.21452717     0.0017906504   0.0017906504   0              0             -18.365532      615.43162     -652.41405      0              751.11722      0              0              9.4084976      9.7648198      0.2            91.872283    
     23800   0.25003497     0.0018704331   0.0018704331   0              0              465.40178      695.86454      234.73579      0              889.67085      0              0              9.4075343      9.7599822      0.2            91.817368    
     23900   0.22491651     0.0018589049   0.0018589049   0              0              948.22163      1530.3163      365.87668      0              368.31198      0              0              9.406571       9.7527322      0.2            91.739768    
     24000   0.22856324     0.0017159149   0.0017159149   0              0             -3.7427045      798.06015     -805.77031      0              607.32736      0              0              9.4056077      9.7623296      0.2            91.820642    
     24100   0.17952854     0.0018382166   0.0018382166   0              0              803.74838      1201.3161      405.9709       0              629.64101      0              0              9.4046444      9.7588777      0.2            91.778775    
     24200   0.19854456     0.0020068754   0.0020068754   0              0              1188.952       2125.1683      252.52556      0              21.414593      0              0              9.4036812      9.7576944      0.2            91.758247    
     24300   0.1878693      0.0016453473   0.0016453473   0              0             -345.35807      84.691796     -775.61551      0              347.02058      0              0              9.4027179      9.7638287      0.2            91.806527    
     24400   0.20185777     0.0018637705   0.0018637705   0              0              773.43478      1020.6061      526.04704      0              46.576329      0              0              9.4017546      9.755622       0.2            91.719964    
     24500   0.23617958     0.0020455045   0.0020455045   0              0              1165.8607      2049.3071      282.20192      0             -172.97555      0              0              9.4007913      9.7518061      0.2            91.674694    
     24600   0.21696874     0.0017723035   0.0017723035   0              0              888.23572      2461.826      -685.58162      0              673.25471      0              0              9.399828       9.7570133      0.2            91.714247    
     24700   0.2234648      0.0016747857   0.0016747857   0              0              1147.6275      1776.9512      518.08381      0              902.89882      0              0              9.3988648      9.7580042      0.2            91.714162    
     24800   0.18951599     0.0019184071   0.0019184071   0              0              933.26356      1903.9975     -37.685313      0              535.70583      0              0              9.3979015      9.7682308      0.2            91.800871    
     24900   0.20355073     0.0019616331   0.0019616331   0              0              1427.1276      3305.2512     -451.19893      0              667.93652      0              0              9.3969382      9.7706571      0.2            91.814261    
     25000   0.24202978     0.0019290331   0.0019290331   0              0              1325.646       2148.9451      502.13928      0              1136.0389      0              0              9.3959749      9.7663243      0.2            91.764138    
     25100   0.17923842     0.0019498714   0.0019498714   0              0              1350.4629      2762.2176     -61.484631      0              512.83898      0              0              9.3950116      9.7699257      0.2            91.788565    
     25200   0.20613301     0.0020346635   0.0020346635   0              0              979.71003      2477.501      -518.28246      0              977.81293      0              0              9.3940484      9.7741941      0.2            91.819252    
     25300   0.2123444      0.0018110089   0.0018110089   0              0              1498.2671      2384.3804      611.92971      0              699.11353      0              0              9.3930851      9.7709365      0.2            91.779238    
     25400   0.2214319      0.0019657401   0.0019657401   0              0              886.6829       1994.332      -221.18676      0              331.39913      0              0              9.3921218      9.7721918      0.2            91.781616    
     25500   0.20552111     0.0019366439   0.0019366439   0              0              79.076971      542.55671     -384.60998      0              814.5615       0              0              9.3911585      9.771048       0.2            91.761461    
     25600   0.19963598     0.0019891873   0.0019891873   0              0              1862.1378      2996.2769      727.79262      0             -10.897763      0              0              9.3901952      9.7645487      0.2            91.691019    
     25700   0.20517743     0.001846265    0.001846265    0              0              847.06088      2047.3583     -353.45343      0             -260.24093      0              0              9.389232       9.7666672      0.2            91.701503    
     25800   0.19005078     0.0018484858   0.0018484858   0              0              482.86745      1322.1547     -356.63253      0              380.63301      0              0              9.3882687      9.764734       0.2            91.673946    
     25900   0.24160119     0.0018853756   0.0018853756   0              0              2032.578       3455.5321      609.40695      0              216.25424      0              0              9.3873054      9.7614187      0.2            91.633418    
     26000   0.17776289     0.0018805983   0.0018805983   0              0              848.80068      1926.4244     -228.97729      0              719.74456      0              0              9.3863421      9.758394       0.2            91.595625    
     26100   0.16405677     0.0017350127   0.0017350127   0              0              1115.6241      2581.802      -350.74255      0              259.11307      0              0              9.3853788      9.7553572      0.2            91.557723    
     26200   0.16137687     0.0016490447   0.0016490447   0              0              857.59873      1144.3333      570.66057      0              518.38889      0              0              9.3844155      9.7509316      0.2            91.506794    
     26300   0.16742625     0.0015957763   0.0015957763   0              0              402.72873      1090.5485     -285.35951      0              891.08572      0              0              9.3834523      9.7529187      0.2            91.516047    
     26400   0.21493975     0.0018852795   0.0018852795   0              0              990.00714      2309.2656     -329.46083      0              579.96862      0              0              9.382489       9.7569581      0.2            91.544552    
     26500   0.2247975      0.0019041745   0.0019041745   0              0              1439.0929      2130.2218      747.74806      0              298.75832      0              0              9.3815257      9.7504914      0.2            91.474485    
     26600   0.23212925     0.0019216654   0.0019216654   0              0              745.55334      1961.7205     -470.82333      0              696.8321       0              0              9.3805624      9.7520158      0.2            91.479393    
     26700   0.17164795     0.0018621438   0.0018621438   0              0              733.42303      1689.2141     -222.56107      0              430.71039      0              0              9.3795991      9.7556086      0.2            91.503698    
     26800   0.19623837     0.0020723123   0.0020723123   0              0              1294.577       1833.1509      755.74752      0              285.25481      0              0              9.3786359      9.7545957      0.2            91.484801    
     26900   0.23210495     0.001777818    0.001777818    0              0              340.92419      1160.4637     -478.83156      0              639.82343      0              0              9.3776726      9.7651929      0.2            91.574782    
     27000   0.18799001     0.0019015951   0.0019015951   0              0              647.81688      1614.344      -318.90318      0              1399.31        0              0              9.3767093      9.7669788      0.2            91.582121    
     27100   0.16133293     0.0018686593   0.0018686593   0              0              1824.2551      2703.4156      944.918        0              717.75092      0              0              9.375746       9.7555095      0.2            91.465179    
     27200   0.19028627     0.0021127266   0.0021127266   0              0              523.04623      1554.8754     -508.99998      0              1392.5493      0              0              9.3747827      9.7642602      0.2            91.537818    
     27300   0.21371807     0.0016589251   0.0016589251   0              0              748.70168      2013.8911     -516.66993      0              1219.1917      0              0              9.3738195      9.7636945      0.2            91.523109    
     27400   0.24208379     0.0017728522   0.0017728522   0              0              1600.9065      2030.1725      1171.3782      0              704.53456      0              0              9.3728562      9.7612283      0.2            91.490589    
     27500   0.18093752     0.0017531018   0.0017531018   0              0              134.24299      969.48953     -701.21327      0              586.10378      0              0              9.3718929      9.7691085      0.2            91.555039    
     27600   0.25780333     0.0018237445   0.0018237445   0              0             -220.78747      162.9722      -604.71949      0              147.70402      0              0              9.3709296      9.7658566      0.2            91.515155    
     27700   0.21594236     0.0018144632   0.0018144632   0              0              1142.9317      891.08095      1394.591       0              853.43438      0              0              9.3699663      9.7589621      0.2            91.441146    
     27800   0.20222042     0.0020793668   0.0020793668   0              0              25.737456      929.56938     -878.29902      0              402.52432      0              0              9.3690031      9.7698193      0.2            91.533467    
     27900   0.17146494     0.002208791    0.002208791    0              0              391.38276      1279.127      -496.57295      0              1394.0768      0              0              9.3680398      9.7707491      0.2            91.532766    
     28000   0.19741372     0.0016866188   0.0016866188   0              0              1595.9481      1841.0432      1350.6192      0              460.23447      0              0              9.3670765      9.76468        0.2            91.466505    
     28100   0.22134271     0.0019776241   0.0019776241   0              0              298.37157      1540.3264     -943.78787      0              738.12672      0              0              9.3661132      9.771727       0.2            91.523102    
     28200   0.18987209     0.0020225175   0.0020225175   0              0              935.63077      2255.499      -384.4302       0              392.71465      0              0              9.3651499      9.767217       0.2            91.471452    
[...]
     43200   0.20168895     0.0018548182   0.0018548182   0              0             -166.75315      1057.731      -1391.4283      0              430.48392      0              0              9.2206578      9.7698398      0.2            90.08435     
     43300   0.23600178     0.0018223739   0.0018223739   0              0              892.41101      1194.6672      589.92238      0             -779.4695       0              0              9.2196945      9.7595344      0.2            89.979927    
     43400   0.20747984     0.0014744932   0.0014744932   0              0              1109.9879      1265.5288      954.26783      0              113.28699      0              0              9.2187313      9.761893       0.2            89.992268    
     43500   0.21393169     0.0013546662   0.0013546662   0              0             -351.18248      747.56204     -1450.1408      0              826.95407      0              0              9.217768       9.7739082      0.2            90.093618    
     43600   0.19317373     0.001708843    0.001708843    0              0              973.19861      1575.6035      370.5676       0              330.60395      0              0              9.2168047      9.7692546      0.2            90.041312    
     43700   0.20868722     0.0012625384   0.0012625384   0              0              955.55511      886.62407      1024.247       0              518.826        0              0              9.2158414      9.7630168      0.2            89.974414    
     43800   0.22796726     0.001389741    0.001389741    0              0             -676.84862     -312.40705     -1041.4967      0              606.53782      0              0              9.2148781      9.7725016      0.2            90.052411    
     43900   0.19880234     0.001366798    0.001366798    0              0              378.82279      832.22624     -74.79137       0             -1152.492       0              0              9.2139149      9.768859       0.2            90.009435    
     44000   0.21420161     0.0014448281   0.0014448281   0              0              683.81066      437.18749      930.20066      0             -333.809        0              0              9.2129516      9.7619211      0.2            89.936106    
     44100   0.21194043     0.0014842718   0.0014842718   0              0             -381.89812     -43.981467     -720.01666      0              998.01992      0              0              9.2119883      9.762333       0.2            89.930497    
     44200   0.18534032     0.0014923231   0.0014923231   0              0             -75.198642      175.17872     -325.78604      0              62.10494       0              0              9.211025       9.7634382      0.2            89.931274    
     44300   0.24262188     0.0016828406   0.0016828406   0              0              593.34105      344.97314      841.51197      0              314.39314      0              0              9.2100617      9.7614517      0.2            89.903573    
     44400   0.17775251     0.0015073507   0.0015073507   0              0              45.387029      324.0843      -233.54958      0              792.28769      0              0              9.2090985      9.7730294      0.2            90.00079     
     44500   0.19674609     0.0014674254   0.0014674254   0              0              115.05792      716.32042     -486.41485      0              175.77378      0              0              9.2081352      9.7759094      0.2            90.017895    
     44600   0.17996092     0.001786242    0.001786242    0              0              771.76651      1058.0445      485.26852      0              431.52331      0              0              9.2071719      9.7778993      0.2            90.026799    
     44700   0.22624846     0.001504273    0.001504273    0              0              173.09324      408.86311     -62.835346      0             -93.291857      0              0              9.2062086      9.7754611      0.2            89.994934    
     44800   0.19440744     0.0018832755   0.0018832755   0              0             -106.42832      245.08038     -458.1228       0             -44.235377      0              0              9.2052453      9.7792013      0.2            90.019948    
     44900   0.20853356     0.0014107429   0.0014107429   0              0              441.90878      569.37989      314.25374      0             -236.09779      0              0              9.2042821      9.7755947      0.2            89.977331    
     45000   0.19275483     0.0015713552   0.0015713552   0              0              83.650907     -7.2509213      174.32285      0              77.959018      0              0              9.2033188      9.7740861      0.2            89.95403     
     45100   0.21290173     0.0015661718   0.0015661718   0              0             -199.39439      25.700749     -424.69057      0             -106.95112      0              0              9.2023555      9.7771501      0.2            89.972811    
     45200   0.2332846      0.0015535876   0.0015535876   0              0              135.43148      74.659351      196.0071       0             -120.75686      0              0              9.2013922      9.7696393      0.2            89.894283    
     45300   0.18801716     0.0015966822   0.0015966822   0              0              319.45756      295.42895      343.24748      0              215.94653      0              0              9.2004289      9.7649412      0.2            89.841648    
     45400   0.20302323     0.0017619156   0.0017619156   0              0              39.465984      460.24993     -381.52709      0              300.15835      0              0              9.1994657      9.770495       0.2            89.883333    
     45500   0.21155214     0.0016263139   0.0016263139   0              0              154.33824      220.2701       88.211784      0             -19.083161      0              0              9.1985024      9.7661377      0.2            89.833841    
     45600   0.1692448      0.0015511904   0.0015511904   0              0              923.90227      1451.0954      396.46806      0              126.67406      0              0              9.1975391      9.7626334      0.2            89.792203    
     45700   0.18578089     0.0015488733   0.0015488733   0              0              443.89008      1265.221      -377.63016      0              509.98859      0              0              9.1965758      9.7735711      0.2            89.883388    
     45800   0.21268999     0.0013389515   0.0013389515   0              0              837.53869      1762.1898     -87.31258       0              359.9003       0              0              9.1956125      9.7714207      0.2            89.854198    
     45900   0.19144555     0.0014739177   0.0014739177   0              0              1309.5084      2043.2668      575.56918      0              537.83102      0              0              9.1946492      9.7695773      0.2            89.827837    
     46000   0.19031603     0.0015096733   0.0015096733   0              0              529.40277      1340.664      -282.02599      0              66.162968      0              0              9.193686       9.7805086      0.2            89.918924    
     46100   0.19457656     0.0015740255   0.0015740255   0              0              214.617        709.39968     -280.3445       0              220.16829      0              0              9.1927227      9.7785368      0.2            89.891377    
     46200   0.18241489     0.0016004798   0.0016004798   0              0              1263.1299      1836.3144      689.74871      0             -68.394983      0              0              9.1917594      9.7710503      0.2            89.813144    
     46300   0.20057226     0.0015965765   0.0015965765   0              0              428.50082      1142.0212     -285.2754       0              641.60696      0              0              9.1907961      9.779088       0.2            89.877604    
     46400   0.18522624     0.0015447629   0.0015447629   0              0             -67.609149      192.89007     -328.31904      0              144.92656      0              0              9.1898328      9.7757002      0.2            89.83705     
     46500   0.19363785     0.001888229    0.001888229    0              0              694.30637      667.55798      720.90608      0             -757.363        0              0              9.1888696      9.7733707      0.2            89.806228    
     46600   0.20221098     0.0018144675   0.0018144675   0              0             -258.44091     -278.23826     -238.85082      0             -275.75928      0              0              9.1879063      9.778375       0.2            89.842794    
     46700   0.23223064     0.0014495995   0.0014495995   0              0             -200.60662      157.42432     -558.81692      0              107.73772      0              0              9.186943       9.783931       0.2            89.884416    
     46800   0.21732514     0.0015562149   0.0015562149   0              0              1266.0615      1793.89        738.01665      0              22.3633        0              0              9.1859797      9.7732832      0.2            89.777181    
     46900   0.16572555     0.0018575592   0.0018575592   0              0              734.45742      1496.3048     -27.611318      0              766.67826      0              0              9.1850164      9.7679161      0.2            89.71847     
     47000   0.17158573     0.0017493807   0.0017493807   0              0              140.35021      1019.592      -739.11615      0              353.41502      0              0              9.1840532      9.7719354      0.2            89.745975    
     47100   0.22750579     0.001826672    0.001826672    0              0              1052.1039      1344.6859      759.33497      0              685.34983      0              0              9.1830899      9.7722134      0.2            89.739114    
     47200   0.22905246     0.0019092154   0.0019092154   0              0              823.51677      1373.8877      272.92075      0              345.49267      0              0              9.1821266      9.776735       0.2            89.771218    
     47300   0.1859107      0.0016914331   0.0016914331   0              0             -213.5331       589.74671     -1017.0369      0              91.90145       0              0              9.1811633      9.7792505      0.2            89.784896    
     47400   0.2060083      0.0015657255   0.0015657255   0              0              1366.9911      1932.8657      800.88552      0              818.02795      0              0              9.1802         9.7711566      0.2            89.701173    
     47500   0.1727385      0.0015877264   0.0015877264   0              0              839.41446      1295.9641      382.68606      0             -166.93597      0              0              9.1792368      9.7716451      0.2            89.696244    
     47600   0.20757086     0.0017650255   0.0017650255   0              0              201.84323      1452.5453     -1049.0475      0             -147.97655      0              0              9.1782735      9.7814633      0.2            89.776945    
     47700   0.20002588     0.0017209624   0.0017209624   0              0              971.87508      1375.765       567.77557      0             -150.40081      0              0              9.1773102      9.7772354      0.2            89.728722    
     47800   0.20740515     0.0018019218   0.0018019218   0              0              733.84609      929.47596      538.02394      0             -599.09158      0              0              9.1763469      9.7738584      0.2            89.688315    
     47900   0.1863879      0.0016839256   0.0016839256   0              0             -324.10655      364.35382     -1012.7636      0             -197.37032      0              0              9.1753836      9.7839245      0.2            89.771261    
     48000   0.19341046     0.0015582874   0.0015582874   0              0              274.60274      60.191571      488.82363      0             -440.71533      0              0              9.1744204      9.7783716      0.2            89.710891    
     48100   0.14957472     0.0017669924   0.0017669924   0              0              847.25282      1239.6823      454.63781      0             -647.1768       0              0              9.1734571      9.778296       0.2            89.700779    
     48200   0.18604725     0.0016901723   0.0016901723   0              0             -242.60711      382.08537     -867.48594      0              174.03399      0              0              9.1724938      9.7880208      0.2            89.78056     
     48300   0.22561045     0.0017546732   0.0017546732   0              0              845.83271      1279.5302      411.92165      0              294.79059      0              0              9.1715305      9.777411       0.2            89.673823    
     48400   0.17703502     0.0017601609   0.0017601609   0              0              504.41365      703.32981      305.27366      0             -127.44009      0              0              9.1705672      9.7783737      0.2            89.673233    
     48500   0.13829655     0.0015730249   0.0015730249   0              0              133.75832      1029.8238     -762.48017      0             -373.90988      0              0              9.1696039      9.7850176      0.2            89.724736    
     48600   0.17933938     0.0014717077   0.0014717077   0              0              363.48924      165.01387      561.76753      0             -358.20918      0              0              9.1686407      9.7809439      0.2            89.67796     
     48700   0.20857876     0.0018430239   0.0018430239   0              0              635.30297      1046.2802      224.12111      0              494.2104       0              0              9.1676774      9.7835202      0.2            89.692157    
     48800   0.20009095     0.0018784039   0.0018784039   0              0             -82.728165      663.6122      -829.26842      0              246.14839      0              0              9.1667141      9.7928071      0.2            89.767863    
     48900   0.18740267     0.0018143537   0.0018143537   0              0              1107.1527      1700.9152      513.21746      0              235.05704      0              0              9.1657508      9.78168        0.2            89.656441    
     49000   0.23261692     0.0018774023   0.0018774023   0              0              225.58909      300.12867      150.84851      0              1018.4742      0              0              9.1647875      9.7792357      0.2            89.624618    
     49100   0.21585793     0.0020965538   0.0020965538   0              0              115.24132      821.32573     -591.08138      0             -253.64411      0              0              9.1638243      9.7803582      0.2            89.625484    
     49200   0.25833046     0.0016028522   0.0016028522   0              0              572.45758      893.35101      251.35733      0              176.6414       0              0              9.162861       9.7800205      0.2            89.612968    
     49300   0.19598421     0.001608297    0.001608297    0              0              889.24075      1609.8558      168.41344      0             -974.51389      0              0              9.1618977      9.7793009      0.2            89.596955    
     49400   0.24668884     0.0015535491   0.0015535491   0              0             -362.9687      -312.12222     -414.06288      0              114.6165       0              0              9.1609344      9.7821707      0.2            89.613824    
     49500   0.20316768     0.0016464163   0.0016464163   0              0              968.98316      1718.0404      219.70439      0              507.50244      0              0              9.1599711      9.7790532      0.2            89.575845    
     49600   0.22558893     0.0018991832   0.0018991832   0              0              418.19262      753.43638      82.720041      0             -626.99123      0              0              9.1590079      9.7814851      0.2            89.588699    
     49700   0.19714806     0.0018265953   0.0018265953   0              0              500.12597      1188.3838     -188.32521      0              182.25052      0              0              9.1580446      9.7751767      0.2            89.521504    
     49800   0.20946629     0.0020832813   0.0020832813   0              0              565.0059       1042.0623      87.754207      0             -352.0017       0              0              9.1570813      9.7785292      0.2            89.542787    
     49900   0.20968557     0.0016147282   0.0016147282   0              0              562.30169      1086.5182      37.935478      0             -2.2425089      0              0              9.156118       9.7709143      0.2            89.463644    
     50000   0.2088363      0.001716825    0.001716825    0              0              750.78904      1599.208      -97.843032      0              104.69111      0              0              9.1551547      9.7788632      0.2            89.527005    
     50100   0.19539105     0.0017791161   0.0017791161   0              0              616.79988      1059.9752      173.37947      0             -404.58322      0              0              9.1541915      9.7768533      0.2            89.499187    
     50200   0.20355539     0.0017334949   0.0017334949   0              0              316.6398       714.53887     -81.506323      0              466.30298      0              0              9.1532282      9.7807761      0.2            89.525675    
     50300   0.17224015     0.0019701962   0.0019701962   0              0             -119.65566     -121.41961     -118.14163      0              267.93623      0              0              9.1522649      9.7862132      0.2            89.566016    
     50400   0.20163742     0.0017751466   0.0017751466   0              0             -45.570613     -123.01596      31.613144      0             -273.86573      0              0              9.1513016      9.7808325      0.2            89.507348    
     50414   0.17887752     0.0016977957   0.0016977957   0              0              37.492597      10.62242       64.124134      0             -243.42432      0              0              9.1511668      9.7800817      0.2            89.499159    
Loop time of 1.22836 on 1 procs for 50000 steps with 68 atoms

Performance: 35168.899 ns/day, 0.001 hours/ns, 40704.744 timesteps/s
98.4% CPU use with 1 MPI tasks x 1 OpenMP threads

MPI task timing breakdown:
Section |  min time  |  avg time  |  max time  |%varavg| %total
---------------------------------------------------------------
Pair    | 0          | 0          | 0          |   0.0 |  0.00
Bond    | 0.18097    | 0.18097    | 0.18097    |   0.0 | 14.73
Neigh   | 0          | 0          | 0          |   0.0 |  0.00
Comm    | 0.42206    | 0.42206    | 0.42206    |   0.0 | 34.36
Output  | 0.0073336  | 0.0073336  | 0.0073336  |   0.0 |  0.60
Modify  | 0.58897    | 0.58897    | 0.58897    |   0.0 | 47.95
Other   |            | 0.02903    |            |       |  2.36

Nlocal:             68 ave          68 max          68 min
Histogram: 1 0 0 0 0 0 0 0 0 0
Nghost:            584 ave         584 max         584 min
Histogram: 1 0 0 0 0 0 0 0 0 0
Neighs:              0 ave           0 max           0 min
Histogram: 1 0 0 0 0 0 0 0 0 0

Total # of neighbors = 0
Ave neighs/atom = 0
Ave special neighs/atom = 24.588235
Neighbor list builds = 0
Dangerous builds = 0


Total wall time: 0:00:01
