LAMMPS data file via write_data, version 23 Jun 2022, timestep = 10000

80 atoms
4 atom types

-4.835093622965031 4.835093622965031 xlo xhi
-4.835093622965031 4.835093622965031 ylo yhi
-0.1 0.1 zlo zhi

Atoms # sphere

8 1 1.6 0.2441406249999999 -4.219618190431059 -3.9519371319715595 0 1 0 0
1 1 1.6 0.2441406249999999 -2.7129995405173064 -4.1415235572430085 0 0 0 0
64 4 0.7 2.915451895043732 -1.6300683285837492 -4.296226350097967 0 0 1 0
41 3 1 1 -0.7257782577597016 -4.577065354958651 0 0 0 0
16 1 1.6 0.2441406249999999 0.8937929246271397 -4.399595986233076 0 0 0 0
13 1 1.6 0.2441406249999999 3.6398908023911805 -4.222782036498403 0 0 0 0
77 4 0.7 2.915451895043732 -4.446142366506123 -2.943215972826649 0 1 0 0
29 2 1.3 0.4551661356395083 -1.6571159257074877 -3.2823227263423327 0 0 1 0
20 1 1.6 0.2441406249999999 -0.1394118405971625 -3.4589319796278053 0 0 0 0
44 3 1 1 0.3826895244215178 -2.5032931566077505 0 0 0 0
5 1 1.6 0.2441406249999999 1.5571639586244217 -3.1848569747986497 0 -1 1 0
66 4 0.7 2.915451895043732 2.774533004631537 -3.6204510635305267 0 0 1 0
21 2 1.3 0.4551661356395083 3.1798467669435535 -2.8804990383248876 0 0 1 0
35 2 1.3 0.4551661356395083 4.302461931744773 -3.287944869110126 0 -1 0 0
69 4 0.7 2.915451895043732 -4.455396761332486 -2.3650456482234814 0 0 0 0
53 3 1 1 -4.060564177893841 -1.8068743154313158 0 0 0 0
10 1 1.6 0.2441406249999999 -3.38718741651485 -2.7417677101418194 0 0 0 0
33 2 1.3 0.4551661356395083 -2.2622130488489374 -2.215846143909187 0 0 0 0
7 1 1.6 0.2441406249999999 -0.8450614394765581 -2.1735077535920877 0 0 0 0
3 1 1.6 0.2441406249999999 1.4013642589453026 -1.8110928111155862 0 0 0 0
79 4 0.7 2.915451895043732 2.2970517970873816 -2.4282809547458597 0 1 0 0
39 2 1.3 0.4551661356395083 4.190224851060377 -2.081086074669694 0 -1 0 0
56 3 1 1 -4.8119223427414575 -1.31240318312824 0 0 0 0
6 1 1.6 0.2441406249999999 -2.727775698869417 -0.9206195448438228 0 0 0 0
60 3 1 1 -1.3322029032778757 -1.0691970462120026 0 0 0 0
62 4 0.7 2.915451895043732 -0.5443441260833239 -1.2659310993241748 0 0 0 0
54 3 1 1 0.19039265862613508 -1.5482722778988114 0 0 0 0
12 1 1.6 0.2441406249999999 0.8687460611070446 -0.36336533252731584 0 0 0 0
55 3 1 1 2.102715353215472 -0.7348045552373277 0 0 1 0
36 2 1.3 0.4551661356395083 2.8096934004880874 -1.5762154592043656 0 0 0 0
70 4 0.7 2.915451895043732 3.6711554032712677 -1.3277682005377138 0 0 1 0
4 1 1.6 0.2441406249999999 -4.218403259685017 -0.28305120311683574 0 1 0 0
68 4 0.7 2.915451895043732 4.6585202923265285 0.4147920444518922 0 0 0 0
14 1 1.6 0.2441406249999999 -2.8055080408064104 0.3152327077668797 0 0 0 0
50 3 1 1 -1.7490423945597415 -0.09286304396823564 0 0 0 0
2 1 1.6 0.2441406249999999 -0.5534230717859598 -0.19460618554485976 0 -1 0 0
31 2 1.3 0.4551661356395083 1.9239548136502638 0.4004013737931835 0 0 0 0
28 2 1.3 0.4551661356395083 2.9592547562569376 -0.18503268919539195 0 0 0 0
34 2 1.3 0.4551661356395083 4.0276818624728925 -0.48096461623481357 0 -1 0 0
17 1 1.6 0.2441406249999999 -3.898593683563823 1.208273245388109 0 1 0 0
37 2 1.3 0.4551661356395083 -1.4161504249310224 1.1522502087151114 0 0 0 0
72 4 0.7 2.915451895043732 -0.4727694627373369 0.9096255902974839 0 0 0 0
49 3 1 1 -0.11372884242346082 1.5154417152038908 0 0 -1 0
32 2 1.3 0.4551661356395083 0.8238797133205695 0.926205926580991 0 0 0 0
71 4 0.7 2.915451895043732 1.0604168358745474 1.74219791750048 0 0 0 0
30 2 1.3 0.4551661356395083 2.046485654461894 1.5444180296623546 0 -1 0 0
42 3 1 1 2.9181895559355455 0.9074823153545681 0 0 0 0
47 3 1 1 3.998544774599729 0.7753492542811387 0 0 0 0
46 3 1 1 4.615366966977891 1.3950736359084583 0 -1 0 0
25 2 1.3 0.4551661356395083 -2.6893305136618486 1.584843290507714 0 1 0 0
9 1 1.6 0.2441406249999999 -2.109720476250326 2.872631146591691 0 0 0 0
52 3 1 1 -1.2469565858084124 2.1740422641731003 0 0 0 0
59 3 1 1 -0.25444856909316993 2.420089950187834 0 0 0 0
27 2 1.3 0.4551661356395083 2.3367427724347163 2.590349460759324 0 0 0 0
19 1 1.6 0.2441406249999999 3.4766220334066364 1.949158606421376 0 0 0 0
22 2 1.3 0.4551661356395083 4.624174390565166 2.677046381450583 0 -1 -1 0
73 4 0.7 2.915451895043732 -4.804976919254849 3.385610315322559 0 0 0 0
24 2 1.3 0.4551661356395083 -3.9451105780628435 4.0274113261166455 0 0 -1 0
11 1 1.6 0.2441406249999999 -3.7328522858072946 2.6341873554984048 0 0 0 0
57 3 1 1 -2.9675919611010886 3.478504355589232 0 0 0 0
45 3 1 1 -1.0162382450690046 3.041768757355219 0 0 0 0
61 4 0.7 2.915451895043732 0.37758155795248527 2.9332073647966785 0 0 0 0
26 2 1.3 0.4551661356395083 0.700427530079974 3.9615835087200217 0 1 -1 0
38 2 1.3 0.4551661356395083 1.1232737864358766 2.7232460894928607 0 0 0 0
48 3 1 1 1.5755404008429883 3.5449218440081776 0 -1 0 0
23 2 1.3 0.4551661356395083 2.590100746026268 3.737282660580707 0 0 -1 0
78 4 0.7 2.915451895043732 3.4442565799266767 3.679464783287173 0 -1 0 0
63 4 0.7 2.915451895043732 3.4554181213905473 3.0466739079312077 0 -1 -1 0
80 4 0.7 2.915451895043732 -3.7457859750083085 4.767709942512951 0 1 0 0
43 3 1 1 -2.9382860795595707 4.321225784638697 0 0 -1 0
15 1 1.6 0.2441406249999999 -1.7472570980160813 4.367847393137875 0 1 0 0
40 2 1.3 0.4551661356395083 -0.554043680054189 3.8931900355017657 0 0 0 0
74 4 0.7 2.915451895043732 -0.039803491302175864 4.709563770107451 0 0 -1 0
65 4 0.7 2.915451895043732 1.490280510727299 4.3158036664460315 0 0 -1 0
18 1 1.6 0.2441406249999999 2.2991749774323624 -4.585883878631939 0 0 0 0
51 3 1 1 3.4709331205714875 4.474164975023829 0 -1 -1 0
67 4 0.7 2.915451895043732 4.043634544159994 3.404142820254785 0 -1 0 0
58 3 1 1 4.396533539586729 4.653216040015565 0 -1 -1 0
75 4 0.7 2.915451895043732 4.687906041384817 3.987623039328046 0 -1 -1 0
76 4 0.7 2.915451895043732 -4.5877062899900505 4.654492310052037 0 1 -1 0

Velocities

8 0.029797060310191362 -0.021090663393931067 0 0 0 0
1 0.1924830107753787 -0.12253707717347496 0 0 0 0
64 0.15534420177107802 0.028508501399551623 0 0 0 0
41 0.04206884090065904 0.04104507877680233 0 0 0 0
16 -0.0722305847180282 0.05019663570658905 0 0 0 0
13 0.07916563009163848 0.14592011336513624 0 0 0 0
77 0.09359323892899418 0.15597704398117257 0 0 0 0
29 0.03119465039576354 -0.08171663548632277 0 0 0 0
20 0.22502178002391332 -0.05812221732865458 0 0 0 0
44 -0.060935309272103 0.07443267455469192 0 0 0 0
5 -0.033477180645855864 0.06597796688382171 0 0 0 0
66 0.12838195269843974 0.05426396750657597 0 0 0 0
21 -0.04351240341118162 0.05909086484310126 0 0 0 0
35 -0.03864220676567681 -0.14719416367623347 0 0 0 0
69 0.018957512975909946 -0.10708547069492867 0 0 0 0
53 -0.163205582235567 0.0320487708714758 0 0 0 0
10 0.20471397945788836 -0.1285901570724558 0 0 0 0
33 -0.20609280135586172 -0.10810256996306093 0 0 0 0
7 -0.024462700405928187 0.08381747283712548 0 0 0 0
3 -0.008128213594009833 -0.05178996565629911 0 0 0 0
79 -0.1479405523664209 -0.04579874944801807 0 0 0 0
39 0.10470576899933506 0.05037355675016341 0 0 0 0
56 0.10275122303443711 0.054897382206269725 0 0 0 0
6 0.09724383798783579 -0.0721771589681679 0 0 0 0
60 0.11924456152009047 -0.15137997685169943 0 0 0 0
62 -0.08134376659605132 0.21765409920902645 0 0 0 0
54 0.015843477206123644 -0.16612638898817936 0 0 0 0
12 0.02153065816471437 0.16553433248829955 0 0 0 0
55 0.011744932007038631 0.0010315823520475468 0 0 0 0
36 -0.02117324201139895 -0.101646951046281 0 0 0 0
70 -0.09724608290363063 -0.11629021642798056 0 0 0 0
4 0.01693397110824437 0.011571377457508605 0 0 0 0
68 0.06996996525202029 0.11730451044852575 0 0 0 0
14 0.01519855290166475 0.04761634074001157 0 0 0 0
50 -0.029765580469454753 -0.17465441353363298 0 0 0 0
2 -0.06057977380135727 0.13182207258780831 0 0 0 0
31 -0.13139662580852912 0.08366395825842045 0 0 0 0
28 0.006416152052927717 0.06039702756243955 0 0 0 0
34 0.001790692870850579 0.07506799710569878 0 0 0 0
17 -0.12531883641036773 -0.15529411498809292 0 0 0 0
37 0.0552555444009847 -0.05193108610557785 0 0 0 0
72 0.03818600458991866 -0.14720574328160657 0 0 0 0
49 -0.054485346062829676 0.19482394174135045 0 0 0 0
32 0.019924539378513146 -0.08872910602608967 0 0 0 0
71 -0.1683888280225628 -0.15320463197168785 0 0 0 0
30 -0.008684500269744985 0.00431179738751254 0 0 0 0
42 -0.05387274465749737 0.14332110578723936 0 0 0 0
47 0.05997668278427259 -0.005362141385849575 0 0 0 0
46 0.03233323830898651 -0.003702242948775868 0 0 0 0
25 -0.1263002729035734 0.02647688826198555 0 0 0 0
9 -0.09023493302708964 0.027659535233058277 0 0 0 0
52 -0.0763164170621085 0.00818923379004753 0 0 0 0
59 0.011635235465983525 0.07331980819701994 0 0 0 0
27 0.04134694717429508 0.03402605682229248 0 0 0 0
19 -0.1648559942729915 0.20689393843969575 0 0 0 0
22 0.01551059870672783 0.003071929829941579 0 0 0 0
73 0.09169704182781398 0.023721798295702805 0 0 0 0
24 0.03257973237745958 0.1594294798427324 0 0 0 0
11 0.11727698045258496 -0.01316933189272405 0 0 0 0
57 -0.0059183369681496375 0.01997208820526675 0 0 0 0
45 0.08161123573182995 0.07356666632447671 0 0 0 0
61 -0.27302609343249645 -0.10986685179538892 0 0 0 0
26 0.02437277209876615 -0.02141494544600459 0 0 0 0
38 0.07252029375529853 0.02286149378005932 0 0 0 0
48 0.050377508817396645 -0.16767294216140555 0 0 0 0
23 0.09160439841228563 -0.03122005800690274 0 0 0 0
78 0.0944668287695785 0.014631453645056103 0 0 0 0
63 -0.04369866144384433 0.03400051220437795 0 0 0 0
80 -0.09708488785002192 0.09784274925361165 0 0 0 0
43 -0.14162767012094424 0.01693157612930172 0 0 0 0
15 -0.08739999276657977 -0.03494695978366553 0 0 0 0
40 -0.04777810252123289 0.0034186472559533517 0 0 0 0
74 -0.05254265182548161 -0.07493946644914251 0 0 0 0
65 -0.03683100059776348 0.12607186114840196 0 0 0 0
18 0.02645671373436004 -0.16177286090885032 0 0 0 0
51 0.060566535384306015 -0.1667644875764511 0 0 0 0
67 0.009009358724166203 -0.04727249720864535 0 0 0 0
58 -0.031211664788870955 0.03907423289541477 0 0 0 0
75 -0.02948778536388496 -0.0750012245183473 0 0 0 0
76 0.12439348439842025 0.0019433458017651631 0 0 0 0
