ITEM: TIMESTEP
0
ITEM: NUMBER OF ATOMS
80
ITEM: BOX BOUNDS pp pp pp
-1.0000000000000000e+01 1.0000000000000000e+01
-1.0000000000000000e+01 1.0000000000000000e+01
-1.0000000000000001e-01 1.0000000000000001e-01
ITEM: ATOMS id type xs ys zs
63 4 0.135778 0.0178906 0.5
22 2 0.405846 0.0513021 0.5
49 3 0.431191 0.0189018 0.5
20 1 0.516514 0.0425846 0.5
18 1 0.563814 0.0249507 0.5
7 1 0.58202 0.00487108 0.5
23 2 0.893319 0.00988118 0.5
24 2 0.193852 0.0760116 0.5
41 3 0.353073 0.10358 0.5
74 4 0.324216 0.091064 0.5
65 4 0.40573 0.104133 0.5
8 1 0.793601 0.0535352 0.5
43 3 0.031601 0.117258 0.5
4 1 0.435958 0.139917 0.5
10 1 0.423819 0.131742 0.5
28 2 0.707452 0.146382 0.5
16 1 0.566738 0.165698 0.5
26 2 0.90886 0.205446 0.5
51 3 0.188744 0.222979 0.5
53 3 0.257168 0.220333 0.5
54 3 0.46839 0.222744 0.5
50 3 0.553652 0.229609 0.5
25 2 0.899163 0.239432 0.5
58 3 0.082363 0.275609 0.5
35 2 0.211716 0.304717 0.5
75 4 0.304889 0.268189 0.5
36 2 0.383608 0.29662 0.5
1 1 0.480294 0.302614 0.5
79 4 0.802599 0.279549 0.5
46 3 0.116461 0.365036 0.5
69 4 0.193155 0.351195 0.5
56 3 0.262113 0.328971 0.5
42 3 0.511356 0.362595 0.5
62 4 0.490651 0.366584 0.5
3 1 0.608161 0.368311 0.5
13 1 0.729954 0.331055 0.5
34 2 0.352376 0.39116 0.5
68 4 0.670577 0.385694 0.5
52 3 0.617806 0.46617 0.5
32 2 0.720024 0.449532 0.5
77 4 0.989852 0.446024 0.5
78 4 0.0743443 0.504795 0.5
9 1 0.120217 0.487177 0.5
31 2 0.821176 0.513208 0.5
19 1 0.982536 0.488253 0.5
5 1 0.0082444 0.563551 0.5
39 2 0.0153832 0.545603 0.5
67 4 0.0241306 0.563676 0.5
11 1 0.108205 0.605583 0.5
33 2 0.240591 0.618837 0.5
12 1 0.601927 0.58762 0.5
44 3 0.623647 0.63041 0.5
60 3 0.69094 0.623242 0.5
17 1 0.816302 0.583433 0.5
14 1 0.169255 0.667488 0.5
72 4 0.268022 0.651858 0.5
59 3 0.477698 0.664383 0.5
70 4 0.720693 0.679745 0.5
76 4 0.98558 0.637685 0.5
2 1 0.0684081 0.73557 0.5
40 2 0.139329 0.710266 0.5
66 4 0.311578 0.691659 0.5
30 2 0.088521 0.772651 0.5
57 3 0.187466 0.740746 0.5
73 4 0.210379 0.83496 0.5
64 4 0.278324 0.799376 0.5
6 1 0.570288 0.825266 0.5
37 2 0.135531 0.866769 0.5
71 4 0.429515 0.866137 0.5
38 2 0.704222 0.852104 0.5
47 3 0.729035 0.884338 0.5
61 4 0.853564 0.856545 0.5
15 1 0.922226 0.848854 0.5
48 3 0.0793663 0.909714 0.5
45 3 0.445762 0.914417 0.5
21 2 0.715887 0.90659 0.5
80 4 0.920206 0.909835 0.5
29 2 0.108524 0.955603 0.5
55 3 0.658949 0.955618 0.5
27 2 0.761645 0.969046 0.5
ITEM: TIMESTEP
10
ITEM: NUMBER OF ATOMS
80
ITEM: BOX BOUNDS pp pp pp
-9.2399036784926203e+00 9.2399036784926203e+00
-9.2399036784926203e+00 9.2399036784926203e+00
-1.0000000000000001e-01 1.0000000000000001e-01
ITEM: ATOMS id type xs ys zs
63 4 0.135778 0.0178906 0.5
22 2 0.405807 0.0513512 0.5
49 3 0.431229 0.0188527 0.5
20 1 0.516392 0.0426335 0.5
18 1 0.563787 0.0250572 0.5
7 1 0.582169 0.00471563 0.5
23 2 0.893319 0.00988118 0.5
24 2 0.193852 0.0760116 0.5
41 3 0.353112 0.103597 0.5
74 4 0.324177 0.0910472 0.5
65 4 0.405653 0.104024 0.5
8 1 0.793601 0.0535352 0.5
43 3 0.031601 0.117258 0.5
4 1 0.436185 0.140084 0.5
10 1 0.423669 0.131684 0.5
28 2 0.707452 0.146382 0.5
16 1 0.566739 0.165695 0.5
26 2 0.90889 0.205339 0.5
51 3 0.188744 0.222979 0.5
53 3 0.257168 0.220333 0.5
54 3 0.46839 0.222744 0.5
50 3 0.553651 0.229612 0.5
25 2 0.899133 0.239539 0.5
58 3 0.082363 0.275609 0.5
35 2 0.211709 0.304711 0.5
75 4 0.304889 0.268189 0.5
36 2 0.383608 0.29662 0.5
1 1 0.480294 0.302614 0.5
79 4 0.802599 0.279549 0.5
46 3 0.116461 0.365036 0.5
69 4 0.193154 0.351197 0.5
56 3 0.262121 0.328975 0.5
42 3 0.511435 0.36258 0.5
62 4 0.490572 0.366599 0.5
3 1 0.608161 0.368311 0.5
13 1 0.729954 0.331055 0.5
34 2 0.352376 0.39116 0.5
68 4 0.670577 0.385694 0.5
52 3 0.617806 0.46617 0.5
32 2 0.720024 0.449532 0.5
77 4 0.989862 0.445968 0.5
78 4 0.0743132 0.504807 0.5
9 1 0.120248 0.487165 0.5
31 2 0.821177 0.513197 0.5
19 1 0.982511 0.488279 0.5
5 1 0.00801935 0.563738 0.5
39 2 0.0154212 0.545344 0.5
67 4 0.0243331 0.563777 0.5
11 1 0.108205 0.605583 0.5
33 2 0.240573 0.618815 0.5
12 1 0.601898 0.587562 0.5
44 3 0.623676 0.630468 0.5
60 3 0.69094 0.623242 0.5
17 1 0.816301 0.583444 0.5
14 1 0.169299 0.667425 0.5
72 4 0.26804 0.65188 0.5
59 3 0.477698 0.664383 0.5
70 4 0.720693 0.679745 0.5
76 4 0.98558 0.637685 0.5
2 1 0.0683535 0.73547 0.5
40 2 0.139281 0.710327 0.5
66 4 0.311578 0.691659 0.5
30 2 0.0885753 0.772751 0.5
57 3 0.18747 0.740749 0.5
73 4 0.210379 0.83496 0.5
64 4 0.278324 0.799376 0.5
6 1 0.570288 0.825266 0.5
37 2 0.135531 0.866769 0.5
71 4 0.429515 0.866137 0.5
38 2 0.704175 0.852017 0.5
47 3 0.729134 0.884287 0.5
61 4 0.853564 0.856545 0.5
15 1 0.922226 0.848854 0.5
48 3 0.0793586 0.909702 0.5
45 3 0.445762 0.914417 0.5
21 2 0.715834 0.906728 0.5
80 4 0.920206 0.909835 0.5
29 2 0.108531 0.955615 0.5
55 3 0.658949 0.955618 0.5
27 2 0.761645 0.969046 0.5
ITEM: TIMESTEP
20
ITEM: NUMBER OF ATOMS
80
ITEM: BOX BOUNDS pp pp pp
-8.3085301580059543e+00 8.3085301580059543e+00
-8.3085301580059543e+00 8.3085301580059543e+00
-1.0000000000000001e-01 1.0000000000000001e-01
ITEM: ATOMS id type xs ys zs
63 4 0.135778 0.0178906 0.5
22 2 0.405659 0.0515225 0.5
49 3 0.431376 0.0186642 0.5
20 1 0.515909 0.0428317 0.5
18 1 0.563708 0.025432 0.5
7 1 0.582731 0.00414268 0.5
23 2 0.893319 0.00988118 0.5
24 2 0.193852 0.0760116 0.5
41 3 0.353262 0.103662 0.5
74 4 0.324026 0.0909819 0.5
65 4 0.405359 0.103627 0.5
8 1 0.793601 0.0535352 0.5
43 3 0.031601 0.117258 0.5
4 1 0.437 0.140686 0.5
10 1 0.423149 0.131496 0.5
28 2 0.707452 0.146382 0.5
16 1 0.566747 0.165654 0.5
26 2 0.909002 0.204949 0.5
51 3 0.188744 0.222979 0.5
53 3 0.257168 0.220333 0.5
54 3 0.46839 0.222744 0.5
50 3 0.553643 0.229653 0.5
25 2 0.899021 0.23993 0.5
58 3 0.082363 0.275609 0.5
35 2 0.211668 0.304653 0.5
75 4 0.304889 0.268189 0.5
36 2 0.383608 0.29662 0.5
1 1 0.480283 0.30259 0.5
79 4 0.802599 0.279549 0.5
46 3 0.116461 0.365036 0.5
69 4 0.193141 0.351229 0.5
56 3 0.262174 0.329001 0.5
42 3 0.511731 0.362546 0.5
62 4 0.490287 0.366656 0.5
3 1 0.608159 0.368311 0.5
13 1 0.729954 0.331055 0.5
34 2 0.352376 0.39116 0.5
68 4 0.670579 0.385694 0.5
52 3 0.617806 0.46617 0.5
32 2 0.720024 0.449532 0.5
77 4 0.989899 0.445753 0.5
78 4 0.0741808 0.504858 0.5
9 1 0.120381 0.487114 0.5
31 2 0.821183 0.513121 0.5
19 1 0.982389 0.488324 0.5
5 1 0.00723305 0.56444 0.5
39 2 0.0155734 0.544453 0.5
67 4 0.0250519 0.564137 0.5
11 1 0.108197 0.605575 0.5
33 2 0.240496 0.618722 0.5
12 1 0.601783 0.587337 0.5
44 3 0.62379 0.630693 0.5
60 3 0.69094 0.623242 0.5
17 1 0.816296 0.58352 0.5
14 1 0.169478 0.667189 0.5
72 4 0.268118 0.651973 0.5
59 3 0.477698 0.664383 0.5
70 4 0.720693 0.679745 0.5
76 4 0.98558 0.637685 0.5
2 1 0.0681274 0.73511 0.5
40 2 0.139097 0.710537 0.5
66 4 0.311578 0.691659 0.5
30 2 0.0887754 0.77312 0.5
57 3 0.187509 0.740774 0.5
73 4 0.210379 0.83496 0.5
64 4 0.278324 0.799376 0.5
6 1 0.570288 0.825266 0.5
37 2 0.135531 0.866769 0.5
71 4 0.429515 0.866137 0.5
38 2 0.703992 0.851669 0.5
47 3 0.7295 0.884114 0.5
61 4 0.853564 0.856545 0.5
15 1 0.922226 0.848839 0.5
48 3 0.0793167 0.909636 0.5
45 3 0.445762 0.914417 0.5
21 2 0.71565 0.907247 0.5
80 4 0.920206 0.909849 0.5
29 2 0.108573 0.955681 0.5
55 3 0.658949 0.955618 0.5
27 2 0.761645 0.969046 0.5
ITEM: TIMESTEP
30
ITEM: NUMBER OF ATOMS
80
ITEM: BOX BOUNDS pp pp pp
-7.6100928910053129e+00 7.6100928910053129e+00
-7.6100928910053129e+00 7.6100928910053129e+00
-1.0000000000000001e-01 1.0000000000000001e-01
ITEM: ATOMS id type xs ys zs
63 4 0.135778 0.0178906 0.5
22 2 0.405346 0.0517921 0.5
49 3 0.431682 0.018274 0.5
20 1 0.514882 0.0432588 0.5
18 1 0.563593 0.0261484 0.5
7 1 0.583873 0.00299912 0.5
23 2 0.893319 0.00988118 0.5
24 2 0.193852 0.0760116 0.5
41 3 0.35355 0.103789 0.5
74 4 0.323712 0.0908454 0.5
65 4 0.404763 0.102861 0.5
8 1 0.793602 0.0535373 0.5
43 3 0.031601 0.117258 0.5
4 1 0.438584 0.141861 0.5
10 1 0.422197 0.131216 0.5
28 2 0.707452 0.146382 0.5
16 1 0.566777 0.165509 0.5
26 2 0.909223 0.204174 0.5
51 3 0.188744 0.222979 0.5
53 3 0.257168 0.220333 0.5
54 3 0.468389 0.222741 0.5
50 3 0.553613 0.229798 0.5
25 2 0.8988 0.240705 0.5
58 3 0.082363 0.275609 0.5
35 2 0.211558 0.304472 0.5
75 4 0.304889 0.268189 0.5
36 2 0.383608 0.29662 0.5
1 1 0.480228 0.302463 0.5
79 4 0.802599 0.279549 0.5
46 3 0.116461 0.365036 0.5
69 4 0.193098 0.351337 0.5
56 3 0.262327 0.329074 0.5
42 3 0.512342 0.362533 0.5
62 4 0.489732 0.366799 0.5
3 1 0.608125 0.368301 0.5
13 1 0.729954 0.331055 0.5
34 2 0.352376 0.39116 0.5
68 4 0.670613 0.385704 0.5
52 3 0.617806 0.46617 0.5
32 2 0.720024 0.449532 0.5
77 4 0.989978 0.445301 0.5
78 4 0.073883 0.504972 0.5
9 1 0.120678 0.487 0.5
31 2 0.821198 0.512905 0.5
19 1 0.982086 0.488313 0.5
5 1 0.00574369 0.565866 0.5
39 2 0.015907 0.542803 0.5
67 4 0.0264316 0.564824 0.5
11 1 0.108139 0.605516 0.5
33 2 0.240335 0.618503 0.5
12 1 0.601545 0.586866 0.5
44 3 0.624029 0.631163 0.5
60 3 0.69094 0.623242 0.5
17 1 0.816281 0.583736 0.5
14 1 0.169873 0.666731 0.5
72 4 0.268292 0.652183 0.5
59 3 0.477698 0.664383 0.5
70 4 0.720693 0.679745 0.5
76 4 0.98558 0.637685 0.5
2 1 0.0676107 0.734415 0.5
40 2 0.138738 0.710922 0.5
66 4 0.311578 0.691659 0.5
30 2 0.089173 0.773859 0.5
57 3 0.187638 0.740872 0.5
73 4 0.210379 0.83496 0.5
64 4 0.278324 0.799376 0.5
6 1 0.570288 0.825266 0.5
37 2 0.135534 0.866767 0.5
71 4 0.429513 0.866131 0.5
38 2 0.703609 0.850928 0.5
47 3 0.730236 0.883799 0.5
61 4 0.853556 0.856546 0.5
15 1 0.922237 0.848761 0.5
48 3 0.0792046 0.909466 0.5
45 3 0.445764 0.914423 0.5
21 2 0.715289 0.908293 0.5
80 4 0.920203 0.909927 0.5
29 2 0.108683 0.955853 0.5
55 3 0.658949 0.955618 0.5
27 2 0.761653 0.969056 0.5
ITEM: TIMESTEP
40
ITEM: NUMBER OF ATOMS
80
ITEM: BOX BOUNDS pp pp pp
-7.1177473158123243e+00 7.1177473158123243e+00
-7.1177473158123243e+00 7.1177473158123243e+00
-1.0000000000000001e-01 1.0000000000000001e-01
ITEM: ATOMS id type xs ys zs
63 4 0.135778 0.0178918 0.5
22 2 0.40482 0.0520749 0.5
49 3 0.432184 0.0176259 0.5
20 1 0.513155 0.0439829 0.5
18 1 0.56347 0.0272681 0.5
7 1 0.585725 0.00115799 0.5
23 2 0.893319 0.00988118 0.5
24 2 0.193852 0.0760116 0.5
41 3 0.353919 0.103988 0.5
74 4 0.323186 0.0906176 0.5
65 4 0.403819 0.101675 0.5
8 1 0.793615 0.0535729 0.5
43 3 0.031601 0.117258 0.5
4 1 0.441079 0.143708 0.5
10 1 0.420817 0.130941 0.5
28 2 0.707452 0.146382 0.5
16 1 0.56684 0.165198 0.5
26 2 0.909577 0.202932 0.5
51 3 0.188744 0.222979 0.5
53 3 0.257168 0.220333 0.5
54 3 0.468386 0.222712 0.5
50 3 0.55355 0.230109 0.5
25 2 0.898446 0.241946 0.5
58 3 0.082363 0.275609 0.5
35 2 0.211345 0.304094 0.5
75 4 0.304889 0.268189 0.5
36 2 0.383604 0.29662 0.5
1 1 0.480102 0.302162 0.5
79 4 0.802599 0.279549 0.5
46 3 0.116461 0.365036 0.5
69 4 0.193007 0.351567 0.5
56 3 0.262631 0.329221 0.5
42 3 0.513353 0.362584 0.5
62 4 0.488856 0.367086 0.5
3 1 0.60801 0.368269 0.5
13 1 0.729954 0.331055 0.5
34 2 0.352376 0.39116 0.5
68 4 0.670728 0.385736 0.5
52 3 0.617806 0.46617 0.5
32 2 0.720024 0.449532 0.5
77 4 0.990113 0.444541 0.5
78 4 0.0733613 0.505172 0.5
9 1 0.121201 0.486799 0.5
31 2 0.821227 0.512475 0.5
19 1 0.981517 0.488169 0.5
5 1 0.00344488 0.56818 0.5
39 2 0.0164944 0.540323 0.5
67 4 0.0285795 0.565881 0.5
11 1 0.107976 0.605354 0.5
33 2 0.240102 0.618083 0.5
12 1 0.601147 0.586083 0.5
44 3 0.624425 0.631947 0.5
60 3 0.690941 0.623242 0.5
17 1 0.816251 0.584166 0.5
14 1 0.170529 0.666017 0.5
72 4 0.268599 0.652553 0.5
59 3 0.477698 0.664383 0.5
70 4 0.720693 0.679745 0.5
76 4 0.985576 0.637698 0.5
2 1 0.0666875 0.733323 0.5
40 2 0.138195 0.711474 0.5
66 4 0.311578 0.691659 0.5
30 2 0.0897923 0.775077 0.5
57 3 0.187918 0.74112 0.5
73 4 0.210379 0.83496 0.5
64 4 0.278324 0.799376 0.5
6 1 0.570288 0.825266 0.5
37 2 0.135565 0.866743 0.5
71 4 0.4295 0.86609 0.5
38 2 0.702968 0.849679 0.5
47 3 0.731431 0.883325 0.5
61 4 0.853501 0.856552 0.5
15 1 0.922299 0.848559 0.5
48 3 0.0789649 0.909161 0.5
45 3 0.445777 0.914464 0.5
21 2 0.714699 0.90994 0.5
80 4 0.920197 0.910122 0.5
29 2 0.108891 0.95618 0.5
55 3 0.658937 0.955628 0.5
27 2 0.761689 0.969085 0.5
ITEM: TIMESTEP
50
ITEM: NUMBER OF ATOMS
80
ITEM: BOX BOUNDS pp pp pp
-6.7801655701110715e+00 6.7801655701110715e+00
-6.7801655701110715e+00 6.7801655701110715e+00
-1.0000000000000001e-01 1.0000000000000001e-01
ITEM: ATOMS id type xs ys zs
63 4 0.135787 0.0179122 0.5
22 2 0.40407 0.0522391 0.5
49 3 0.43287 0.0166775 0.5
20 1 0.510679 0.0450461 0.5
18 1 0.563373 0.0288181 0.5
7 1 0.588311 0.998581 0.5
23 2 0.893319 0.00988118 0.5
24 2 0.193852 0.0760116 0.5
41 3 0.35427 0.10428 0.5
74 4 0.322424 0.0902867 0.5
65 4 0.402541 0.100065 0.5
8 1 0.79366 0.0536898 0.5
43 3 0.031601 0.117258 0.5
4 1 0.444526 0.146219 0.5
10 1 0.419056 0.130787 0.5
28 2 0.707452 0.146382 0.5
16 1 0.566948 0.164673 0.5
26 2 0.910075 0.201188 0.5
51 3 0.18873 0.22298 0.5
53 3 0.257182 0.220333 0.5
54 3 0.468389 0.222652 0.5
50 3 0.553442 0.230634 0.5
25 2 0.897948 0.243691 0.5
58 3 0.082363 0.275609 0.5
35 2 0.211003 0.303466 0.5
75 4 0.304889 0.268189 0.5
36 2 0.383563 0.296618 0.5
1 1 0.479917 0.301656 0.5
79 4 0.802599 0.279549 0.5
46 3 0.116461 0.365036 0.5
69 4 0.192854 0.351956 0.5
56 3 0.263125 0.329461 0.5
42 3 0.514811 0.362737 0.5
62 4 0.487641 0.367561 0.5
3 1 0.607774 0.368203 0.5
13 1 0.729958 0.331051 0.5
34 2 0.352376 0.39116 0.5
68 4 0.670961 0.385806 0.5
52 3 0.617806 0.46617 0.5
32 2 0.720024 0.449532 0.5
77 4 0.990316 0.443433 0.5
78 4 0.0725992 0.50546 0.5
9 1 0.121985 0.486498 0.5
31 2 0.821276 0.511778 0.5
19 1 0.980615 0.487826 0.5
5 1 0.000310608 0.571414 0.5
39 2 0.0173771 0.537048 0.5
67 4 0.0315168 0.567305 0.5
11 1 0.107674 0.60505 0.5
33 2 0.239827 0.6174 0.5
12 1 0.60057 0.584947 0.5
44 3 0.624978 0.633086 0.5
60 3 0.690965 0.623239 0.5
17 1 0.816202 0.584863 0.5
14 1 0.171462 0.665044 0.5
72 4 0.26906 0.653108 0.5
59 3 0.477698 0.664383 0.5
70 4 0.720693 0.679745 0.5
76 4 0.985556 0.637775 0.5
2 1 0.0652768 0.731813 0.5
40 2 0.137487 0.712158 0.5
66 4 0.311578 0.691659 0.5
30 2 0.0906268 0.77685 0.5
57 3 0.188396 0.741581 0.5
73 4 0.210379 0.83496 0.5
64 4 0.278324 0.799376 0.5
6 1 0.570288 0.825266 0.5
37 2 0.135657 0.866673 0.5
71 4 0.429465 0.865986 0.5
38 2 0.702037 0.847865 0.5
47 3 0.733131 0.882693 0.5
61 4 0.853357 0.856568 0.5
15 1 0.922454 0.848185 0.5
48 3 0.0785419 0.90871 0.5
45 3 0.445812 0.914568 0.5
21 2 0.713867 0.912172 0.5
80 4 0.920185 0.910479 0.5
29 2 0.109213 0.956681 0.5
55 3 0.658908 0.955659 0.5
27 2 0.761771 0.96913 0.5
ITEM: TIMESTEP
60
ITEM: NUMBER OF ATOMS
80
ITEM: BOX BOUNDS pp pp pp
-6.5407635233274073e+00 6.5407635233274073e+00
-6.5407635233274073e+00 6.5407635233274073e+00
-1.0000000000000001e-01 1.0000000000000001e-01
ITEM: ATOMS id type xs ys zs
63 4 0.135817 0.0179798 0.5
22 2 0.403092 0.0521677 0.5
49 3 0.433706 0.015397 0.5
20 1 0.507485 0.0464654 0.5
18 1 0.563338 0.0308068 0.5
7 1 0.59157 0.995291 0.5
23 2 0.893319 0.0098809 0.5
24 2 0.193852 0.0760116 0.5
41 3 0.354499 0.104682 0.5
74 4 0.321412 0.0898465 0.5
65 4 0.40097 0.0980562 0.5
8 1 0.793748 0.0539271 0.5
43 3 0.031601 0.117258 0.5
4 1 0.4489 0.149319 0.5
10 1 0.416977 0.130865 0.5
28 2 0.707452 0.146382 0.5
16 1 0.567106 0.163903 0.5
26 2 0.910717 0.198935 0.5
51 3 0.188676 0.222971 0.5
53 3 0.257233 0.220331 0.5
54 3 0.468409 0.222583 0.5
50 3 0.553284 0.231404 0.5
25 2 0.897306 0.245943 0.5
58 3 0.082363 0.275609 0.5
35 2 0.21052 0.302561 0.5
75 4 0.304889 0.268189 0.5
36 2 0.383445 0.296612 0.5
1 1 0.479701 0.300933 0.5
79 4 0.802599 0.279549 0.5
46 3 0.116461 0.365036 0.5
69 4 0.192634 0.352525 0.5
56 3 0.263833 0.329807 0.5
42 3 0.516713 0.363016 0.5
62 4 0.486087 0.368253 0.5
3 1 0.607405 0.368096 0.5
13 1 0.729985 0.331026 0.5
34 2 0.352376 0.39116 0.5
68 4 0.671324 0.385939 0.5
52 3 0.617806 0.46617 0.5
32 2 0.720024 0.449532 0.5
77 4 0.990596 0.441953 0.5
78 4 0.0716203 0.505819 0.5
9 1 0.123051 0.486087 0.5
31 2 0.821345 0.51078 0.5
19 1 0.979327 0.487247 0.5
5 1 0.996347 0.575515 0.5
39 2 0.0185648 0.533081 0.5
67 4 0.0352047 0.569061 0.5
11 1 0.107232 0.604587 0.5
33 2 0.23954 0.616408 0.5
12 1 0.599808 0.583445 0.5
44 3 0.625665 0.634599 0.5
60 3 0.69104 0.623227 0.5
17 1 0.816133 0.585861 0.5
14 1 0.172675 0.663825 0.5
72 4 0.269686 0.653866 0.5
59 3 0.477698 0.664383 0.5
70 4 0.720693 0.679746 0.5
76 4 0.985509 0.637976 0.5
2 1 0.0633279 0.729887 0.5
40 2 0.136639 0.71294 0.5
66 4 0.311578 0.691659 0.5
30 2 0.0916618 0.779215 0.5
57 3 0.189104 0.742297 0.5
73 4 0.210379 0.83496 0.5
64 4 0.278324 0.799376 0.5
6 1 0.570288 0.825266 0.5
37 2 0.135841 0.866525 0.5
71 4 0.429401 0.865796 0.5
38 2 0.700803 0.845475 0.5
47 3 0.735356 0.881913 0.5
61 4 0.853094 0.8566 0.5
15 1 0.922737 0.847606 0.5
48 3 0.0778954 0.90811 0.5
45 3 0.445876 0.914758 0.5
21 2 0.712791 0.91493 0.5
80 4 0.920166 0.911027 0.5
29 2 0.109646 0.957361 0.5
55 3 0.658874 0.955709 0.5
27 2 0.761918 0.969185 0.5
ITEM: TIMESTEP
70
ITEM: NUMBER OF ATOMS
80
ITEM: BOX BOUNDS pp pp pp
-6.3820575935992556e+00 6.3820575935992556e+00
-6.3820575935992556e+00 6.3820575935992556e+00
-1.0000000000000001e-01 1.0000000000000001e-01
ITEM: ATOMS id type xs ys zs
63 4 0.135877 0.0181187 0.5
22 2 0.401867 0.0517773 0.5
49 3 0.43465 0.0137658 0.5
20 1 0.503694 0.0482085 0.5
18 1 0.563399 0.0332227 0.5
7 1 0.595385 0.991359 0.5
23 2 0.893333 0.00987512 0.5
24 2 0.193852 0.0760116 0.5
41 3 0.35452 0.105209 0.5
74 4 0.320152 0.0892957 0.5
65 4 0.399171 0.0957012 0.5
8 1 0.793881 0.0543184 0.5
43 3 0.031601 0.117258 0.5
4 1 0.454085 0.152889 0.5
10 1 0.414645 0.131274 0.5
28 2 0.707452 0.146382 0.5
16 1 0.567342 0.162877 0.5
26 2 0.911498 0.196198 0.5
51 3 0.188554 0.222928 0.5
53 3 0.257342 0.220327 0.5
54 3 0.468452 0.222528 0.5
50 3 0.553074 0.232433 0.5
25 2 0.896525 0.24868 0.5
58 3 0.082363 0.275609 0.5
35 2 0.209895 0.301392 0.5
75 4 0.304889 0.268189 0.5
36 2 0.383219 0.296598 0.5
1 1 0.479481 0.300005 0.5
79 4 0.802599 0.279549 0.5
46 3 0.116461 0.365036 0.5
69 4 0.192344 0.353285 0.5
56 3 0.26476 0.330264 0.5
42 3 0.519009 0.363432 0.5
62 4 0.484214 0.36917 0.5
3 1 0.606927 0.367938 0.5
13 1 0.730051 0.330964 0.5
34 2 0.352376 0.391162 0.5
68 4 0.671817 0.386158 0.5
52 3 0.617807 0.466176 0.5
32 2 0.720024 0.449532 0.5
77 4 0.990964 0.440097 0.5
78 4 0.0704695 0.50623 0.5
9 1 0.124403 0.485549 0.5
31 2 0.821436 0.50947 0.5
19 1 0.977613 0.48642 0.5
5 1 0.991612 0.580361 0.5
39 2 0.0200501 0.52856 0.5
67 4 0.0395227 0.571085 0.5
11 1 0.106681 0.60399 0.5
33 2 0.239276 0.61508 0.5
12 1 0.598864 0.581584 0.5
44 3 0.626459 0.636483 0.5
60 3 0.691187 0.623196 0.5
17 1 0.816042 0.587171 0.5
14 1 0.174156 0.662392 0.5
72 4 0.270477 0.654826 0.5
59 3 0.477698 0.664383 0.5
70 4 0.720697 0.679753 0.5
76 4 0.985431 0.63836 0.5
2 1 0.0608232 0.727567 0.5
40 2 0.135678 0.713792 0.5
66 4 0.311578 0.691659 0.5
30 2 0.0928692 0.782157 0.5
57 3 0.190054 0.743286 0.5
73 4 0.210379 0.83496 0.5
64 4 0.278324 0.799376 0.5
6 1 0.570288 0.825266 0.5
37 2 0.136146 0.86628 0.5
71 4 0.429303 0.865505 0.5
38 2 0.699275 0.842541 0.5
47 3 0.738093 0.880997 0.5
61 4 0.852691 0.856649 0.5
15 1 0.923167 0.846803 0.5
48 3 0.0770018 0.907367 0.5
45 3 0.445974 0.915049 0.5
21 2 0.711481 0.918117 0.5
80 4 0.920139 0.911781 0.5
29 2 0.11018 0.958223 0.5
55 3 0.658853 0.955772 0.5
27 2 0.762147 0.969246 0.5
ITEM: TIMESTEP
80
ITEM: NUMBER OF ATOMS
80
ITEM: BOX BOUNDS pp pp pp
-6.2945320164222736e+00 6.2945320164222736e+00
-6.2945320164222736e+00 6.2945320164222736e+00
-1.0000000000000001e-01 1.0000000000000001e-01
ITEM: ATOMS id type xs ys zs
63 4 0.135975 0.0183473 0.5
22 2 0.400394 0.0510178 0.5
49 3 0.43566 0.0117826 0.5
20 1 0.499499 0.0501908 0.5
18 1 0.563587 0.036028 0.5
7 1 0.599584 0.986905 0.5
23 2 0.893375 0.00985611 0.5
24 2 0.193852 0.0760116 0.5
41 3 0.354262 0.105869 0.5
74 4 0.318661 0.088639 0.5
65 4 0.397234 0.0930799 0.5
8 1 0.794044 0.0548866 0.5
43 3 0.031601 0.117258 0.5
4 1 0.45987 0.156769 0.5
10 1 0.412123 0.132101 0.5
28 2 0.707452 0.146382 0.5
16 1 0.567711 0.161607 0.5
26 2 0.9124 0.193037 0.5
51 3 0.188345 0.222827 0.5
53 3 0.257522 0.22032 0.5
54 3 0.468516 0.222519 0.5
50 3 0.552823 0.233703 0.5
25 2 0.895623 0.251841 0.5
58 3 0.082363 0.275609 0.5
35 2 0.209142 0.299989 0.5
75 4 0.304889 0.268189 0.5
36 2 0.382869 0.296564 0.5
1 1 0.479276 0.298913 0.5
79 4 0.802606 0.279544 0.5
46 3 0.116461 0.365036 0.5
69 4 0.19199 0.35423 0.5
56 3 0.265897 0.33083 0.5
42 3 0.521614 0.363984 0.5
62 4 0.482061 0.370302 0.5
3 1 0.606371 0.367716 0.5
13 1 0.730163 0.330857 0.5
34 2 0.35237 0.39118 0.5
68 4 0.672432 0.386474 0.5
52 3 0.61781 0.466203 0.5
32 2 0.720024 0.449532 0.5
77 4 0.991428 0.437888 0.5
78 4 0.0692111 0.506673 0.5
9 1 0.12603 0.484869 0.5
31 2 0.821548 0.507861 0.5
19 1 0.975453 0.485368 0.5
5 1 0.986227 0.585764 0.5
39 2 0.0217962 0.523658 0.5
67 4 0.0442893 0.573287 0.5
11 1 0.106061 0.6033 0.5
33 2 0.239069 0.613412 0.5
12 1 0.597753 0.579397 0.5
44 3 0.627327 0.638711 0.5
60 3 0.691416 0.623131 0.5
17 1 0.815931 0.58878 0.5
14 1 0.17588 0.660795 0.5
72 4 0.271417 0.655975 0.5
59 3 0.477698 0.664383 0.5
70 4 0.72071 0.679778 0.5
76 4 0.985326 0.638979 0.5
2 1 0.057786 0.7249 0.5
40 2 0.134636 0.714688 0.5
66 4 0.311579 0.69166 0.5
30 2 0.0942005 0.785598 0.5
57 3 0.19124 0.744539 0.5
73 4 0.210379 0.83496 0.5
64 4 0.278324 0.799376 0.5
6 1 0.570288 0.825266 0.5
37 2 0.136601 0.865956 0.5
71 4 0.429169 0.865109 0.5
38 2 0.697484 0.839145 0.5
47 3 0.741294 0.879968 0.5
61 4 0.852141 0.856718 0.5
15 1 0.923753 0.845776 0.5
48 3 0.0758581 0.906495 0.5
45 3 0.446108 0.915445 0.5
21 2 0.709965 0.921605 0.5
80 4 0.920103 0.912739 0.5
29 2 0.1108 0.959247 0.5
55 3 0.658865 0.955842 0.5
27 2 0.762476 0.969309 0.5
ITEM: TIMESTEP
90
ITEM: NUMBER OF ATOMS
80
ITEM: BOX BOUNDS pp pp pp
-6.2659554769511852e+00 6.2659554769511852e+00
-6.2659554769511852e+00 6.2659554769511852e+00
-1.0000000000000001e-01 1.0000000000000001e-01
ITEM: ATOMS id type xs ys zs
63 4 0.136117 0.0186763 0.5
22 2 0.398679 0.0498565 0.5
49 3 0.436697 0.00946209 0.5
20 1 0.495109 0.0523149 0.5
18 1 0.563921 0.0391498 0.5
7 1 0.603958 0.982084 0.5
23 2 0.893456 0.00981954 0.5
24 2 0.193852 0.0760116 0.5
41 3 0.353687 0.106659 0.5
74 4 0.316968 0.087886 0.5
65 4 0.395257 0.0902885 0.5
8 1 0.79423 0.0556374 0.5
43 3 0.031601 0.117258 0.5
4 1 0.46603 0.160795 0.5
10 1 0.409472 0.133405 0.5
28 2 0.707452 0.146382 0.5
16 1 0.568259 0.160131 0.5
26 2 0.913398 0.189538 0.5
51 3 0.188042 0.222651 0.5
53 3 0.257774 0.220309 0.5
54 3 0.468589 0.222584 0.5
50 3 0.55255 0.235174 0.5
25 2 0.894625 0.25534 0.5
58 3 0.082363 0.275609 0.5
35 2 0.20828 0.298399 0.5
75 4 0.30489 0.26819 0.5
36 2 0.382392 0.296502 0.5
1 1 0.479094 0.297719 0.5
79 4 0.802627 0.279529 0.5
46 3 0.116461 0.365036 0.5
69 4 0.191583 0.35534 0.5
56 3 0.267216 0.331495 0.5
42 3 0.524424 0.364659 0.5
62 4 0.479687 0.371623 0.5
3 1 0.605778 0.367426 0.5
13 1 0.730319 0.330705 0.5
34 2 0.352356 0.391223 0.5
68 4 0.673151 0.38689 0.5
52 3 0.617816 0.466258 0.5
32 2 0.720026 0.449534 0.5
77 4 0.991991 0.435369 0.5
78 4 0.067922 0.507132 0.5
9 1 0.127917 0.484044 0.5
31 2 0.821678 0.505987 0.5
19 1 0.97285 0.484146 0.5
5 1 0.98036 0.591484 0.5
39 2 0.0237315 0.518565 0.5
67 4 0.0492899 0.575572 0.5
11 1 0.105406 0.602557 0.5
33 2 0.238949 0.611421 0.5
12 1 0.596507 0.576941 0.5
44 3 0.628236 0.64123 0.5
60 3 0.691729 0.623021 0.5
17 1 0.8158 0.590654 0.5
14 1 0.177807 0.659098 0.5
72 4 0.272474 0.65728 0.5
59 3 0.477698 0.664383 0.5
70 4 0.720734 0.679826 0.5
76 4 0.985217 0.639872 0.5
2 1 0.0542778 0.721955 0.5
40 2 0.13354 0.71561 0.5
66 4 0.31159 0.69167 0.5
30 2 0.0956002 0.789419 0.5
57 3 0.192638 0.746026 0.5
73 4 0.210379 0.83496 0.5
64 4 0.278324 0.799376 0.5
6 1 0.570288 0.825266 0.5
37 2 0.137221 0.86559 0.5
71 4 0.429002 0.864611 0.5
38 2 0.69548 0.835403 0.5
47 3 0.744875 0.87885 0.5
61 4 0.851453 0.856808 0.5
15 1 0.924487 0.844543 0.5
48 3 0.0744814 0.905515 0.5
45 3 0.446275 0.915943 0.5
21 2 0.708286 0.925245 0.5
80 4 0.920057 0.913882 0.5
29 2 0.111484 0.960398 0.5
55 3 0.658927 0.955911 0.5
27 2 0.762919 0.969368 0.5
ITEM: TIMESTEP
100
ITEM: NUMBER OF ATOMS
80
ITEM: BOX BOUNDS pp pp pp
-6.2800996247715535e+00 6.2800996247715535e+00
-6.2800996247715535e+00 6.2800996247715535e+00
-1.0000000000000001e-01 1.0000000000000001e-01
ITEM: ATOMS id type xs ys zs
63 4 0.136303 0.0191103 0.5
22 2 0.396735 0.0482861 0.5
49 3 0.437734 0.00682899 0.5
20 1 0.490695 0.0545054 0.5
18 1 0.564414 0.0424836 0.5
7 1 0.608308 0.977052 0.5
23 2 0.893577 0.00976465 0.5
24 2 0.193852 0.0760116 0.5
41 3 0.352786 0.107571 0.5
74 4 0.31511 0.0870484 0.5
65 4 0.393301 0.0873999 0.5
8 1 0.794433 0.056562 0.5
43 3 0.031601 0.117258 0.5
4 1 0.47239 0.16484 0.5
10 1 0.406753 0.135202 0.5
28 2 0.707452 0.146382 0.5
16 1 0.569023 0.158515 0.5
26 2 0.914465 0.1858 0.5
51 3 0.187646 0.222388 0.5
53 3 0.258091 0.220293 0.5
54 3 0.468646 0.222746 0.5
50 3 0.552277 0.236797 0.5
25 2 0.893558 0.259078 0.5
58 3 0.082363 0.275609 0.5
35 2 0.207334 0.296679 0.5
75 4 0.304894 0.268194 0.5
36 2 0.381793 0.296409 0.5
1 1 0.478942 0.296494 0.5
79 4 0.802666 0.279502 0.5
46 3 0.116461 0.365036 0.5
69 4 0.191135 0.356587 0.5
56 3 0.268683 0.332242 0.5
42 3 0.527327 0.365437 0.5
62 4 0.477157 0.373092 0.5
3 1 0.605192 0.36707 0.5
13 1 0.730513 0.330509 0.5
34 2 0.352333 0.391295 0.5
68 4 0.673951 0.387395 0.5
52 3 0.617826 0.46634 0.5
32 2 0.720035 0.449545 0.5
77 4 0.992653 0.432593 0.5
78 4 0.0666812 0.507603 0.5
9 1 0.13003 0.483091 0.5
31 2 0.821823 0.503899 0.5
19 1 0.969825 0.482828 0.5
5 1 0.974197 0.597272 0.5
39 2 0.0257725 0.513451 0.5
67 4 0.0543071 0.57785 0.5
11 1 0.104745 0.601798 0.5
33 2 0.238942 0.609137 0.5
12 1 0.595161 0.574283 0.5
44 3 0.629153 0.643976 0.5
60 3 0.69212 0.62286 0.5
17 1 0.815656 0.592742 0.5
14 1 0.179893 0.657366 0.5
72 4 0.273606 0.658698 0.5
59 3 0.477698 0.664383 0.5
70 4 0.720772 0.679898 0.5
76 4 0.985138 0.64106 0.5
2 1 0.050385 0.71881 0.5
40 2 0.132415 0.716545 0.5
66 4 0.31162 0.691696 0.5
30 2 0.0970128 0.793486 0.5
57 3 0.19421 0.7477 0.5
73 4 0.210382 0.834959 0.5
64 4 0.278324 0.799376 0.5
6 1 0.570288 0.825266 0.5
37 2 0.138005 0.865226 0.5
71 4 0.428804 0.864023 0.5
38 2 0.693326 0.831448 0.5
47 3 0.748736 0.877673 0.5
61 4 0.850644 0.856918 0.5
15 1 0.925352 0.843136 0.5
48 3 0.0729038 0.904452 0.5
45 3 0.446473 0.916531 0.5
21 2 0.706497 0.928888 0.5
80 4 0.920001 0.915179 0.5
29 2 0.112215 0.961628 0.5
55 3 0.65906 0.955976 0.5
27 2 0.763486 0.969416 0.5
ITEM: TIMESTEP
110
ITEM: NUMBER OF ATOMS
80
ITEM: BOX BOUNDS pp pp pp
-6.3164747103366770e+00 6.3164747103366770e+00
-6.3164747103366770e+00 6.3164747103366770e+00
-1.0000000000000001e-01 1.0000000000000001e-01
ITEM: ATOMS id type xs ys zs
63 4 0.136532 0.0196493 0.5
22 2 0.394578 0.0463202 0.5
49 3 0.43876 0.00391011 0.5
20 1 0.486343 0.0567362 0.5
18 1 0.56507 0.0459292 0.5
7 1 0.612461 0.971931 0.5
23 2 0.893733 0.0096934 0.5
24 2 0.193852 0.0760116 0.5
41 3 0.351572 0.108588 0.5
74 4 0.313119 0.0861372 0.5
65 4 0.391397 0.0844676 0.5
8 1 0.794651 0.0576431 0.5
43 3 0.031601 0.117258 0.5
4 1 0.478835 0.168814 0.5
10 1 0.40402 0.137476 0.5
28 2 0.707452 0.146382 0.5
16 1 0.570024 0.156819 0.5
26 2 0.915573 0.181915 0.5
51 3 0.187166 0.222033 0.5
53 3 0.258465 0.220273 0.5
54 3 0.468654 0.223019 0.5
50 3 0.552021 0.238525 0.5
25 2 0.89245 0.262964 0.5
58 3 0.082363 0.275609 0.5
35 2 0.206332 0.294885 0.5
75 4 0.304901 0.268202 0.5
36 2 0.381082 0.296291 0.5
1 1 0.478822 0.295305 0.5
79 4 0.802722 0.279462 0.5
46 3 0.116461 0.365036 0.5
69 4 0.19066 0.357939 0.5
56 3 0.270259 0.333053 0.5
42 3 0.53022 0.366294 0.5
62 4 0.474532 0.374668 0.5
3 1 0.604652 0.36666 0.5
13 1 0.730743 0.330272 0.5
34 2 0.352302 0.391392 0.5
68 4 0.674811 0.387977 0.5
52 3 0.617838 0.466446 0.5
32 2 0.720052 0.449569 0.5
77 4 0.993413 0.429615 0.5
78 4 0.0655591 0.508092 0.5
9 1 0.132328 0.482035 0.5
31 2 0.821979 0.50165 0.5
19 1 0.966412 0.48149 0.5
5 1 0.967892 0.602904 0.5
39 2 0.0278369 0.508442 0.5
67 4 0.0591468 0.580047 0.5
11 1 0.104116 0.601051 0.5
33 2 0.239067 0.606598 0.5
12 1 0.593749 0.571489 0.5
44 3 0.630055 0.646887 0.5
60 3 0.692581 0.622648 0.5
17 1 0.815499 0.594991 0.5
14 1 0.182096 0.655666 0.5
72 4 0.274775 0.660186 0.5
59 3 0.477698 0.664383 0.5
70 4 0.720821 0.679993 0.5
76 4 0.985137 0.642544 0.5
2 1 0.0461992 0.715541 0.5
40 2 0.131275 0.717491 0.5
66 4 0.311678 0.691747 0.5
30 2 0.0983876 0.797669 0.5
57 3 0.195918 0.749509 0.5
73 4 0.210392 0.834954 0.5
64 4 0.278324 0.799376 0.5
6 1 0.570288 0.825266 0.5
37 2 0.138944 0.864912 0.5
71 4 0.428582 0.863362 0.5
38 2 0.691085 0.827407 0.5
47 3 0.752773 0.876457 0.5
61 4 0.849738 0.857047 0.5
15 1 0.926323 0.84159 0.5
48 3 0.0711633 0.903328 0.5
45 3 0.446695 0.917192 0.5
21 2 0.70469 0.932393 0.5
80 4 0.919936 0.916597 0.5
29 2 0.112972 0.962887 0.5
55 3 0.659278 0.95604 0.5
27 2 0.764182 0.96945 0.5
ITEM: TIMESTEP
120
ITEM: NUMBER OF ATOMS
80
ITEM: BOX BOUNDS pp pp pp
-6.3513294260800501e+00 6.3513294260800501e+00
-6.3513294260800501e+00 6.3513294260800501e+00
-1.0000000000000001e-01 1.0000000000000001e-01
ITEM: ATOMS id type xs ys zs
63 4 0.136806 0.0202937 0.5
22 2 0.392214 0.0439803 0.5
49 3 0.439774 0.000724188 0.5
20 1 0.482082 0.0590114 0.5
18 1 0.56589 0.0494058 0.5
7 1 0.616271 0.966804 0.5
23 2 0.893916 0.00960903 0.5
24 2 0.193852 0.0760116 0.5
41 3 0.350069 0.109688 0.5
74 4 0.311017 0.0851584 0.5
65 4 0.389555 0.0815332 0.5
8 1 0.794885 0.058864 0.5
43 3 0.031601 0.117258 0.5
4 1 0.4853 0.172654 0.5
10 1 0.401309 0.140199 0.5
28 2 0.707452 0.146382 0.5
16 1 0.571281 0.15509 0.5
26 2 0.916703 0.177954 0.5
51 3 0.18661 0.221579 0.5
53 3 0.258886 0.220248 0.5
54 3 0.468573 0.223406 0.5
50 3 0.551805 0.240327 0.5
25 2 0.89132 0.266925 0.5
58 3 0.082363 0.275609 0.5
35 2 0.205296 0.293065 0.5
75 4 0.304911 0.268212 0.5
36 2 0.380271 0.296152 0.5
1 1 0.478736 0.294217 0.5
79 4 0.802794 0.279411 0.5
46 3 0.116461 0.365036 0.5
69 4 0.190168 0.359369 0.5
56 3 0.271914 0.333912 0.5
42 3 0.533019 0.367214 0.5
62 4 0.47186 0.376315 0.5
3 1 0.604196 0.366205 0.5
13 1 0.731005 0.329998 0.5
34 2 0.352264 0.391512 0.5
68 4 0.675714 0.388624 0.5
52 3 0.617852 0.466565 0.5