LAMMPS data file via write_data, version 23 Jun 2022, timestep = 10000

80 atoms
4 atom types

-4.806051461808512 4.806051461808512 xlo xhi
-4.806051461808512 4.806051461808512 ylo yhi
-0.1 0.1 zlo zhi

Atoms # sphere

44 3 1 1 -3.3581067947059675 -4.617764607579321 0 1 1 0
63 4 0.7 2.915451895043732 -3.636189242900406 -3.8767520890588547 0 0 0 0
54 3 1 1 -2.6567911461997333 -4.134013224615807 0 0 0 0
19 1 1.6 0.2441406249999999 -1.254322809787313 -3.5313194622787374 0 1 0 0
46 3 1 1 -1.9220730706822002 -4.5907940248836185 0 0 1 0
31 2 1.3 0.4551661356395083 -0.24633600266523015 -4.1132020158477225 0 1 1 0
48 3 1 1 0.7281619123675069 -3.820184120517593 0 0 1 0
74 4 0.7 2.915451895043732 1.4403433330998405 -3.6665979071110115 0 0 0 0
56 3 1 1 3.327817593836479 -4.582922731389076 0 -1 1 0
36 2 1.3 0.4551661356395083 4.33238381591235 4.582571827860122 0 -1 0 0
59 3 1 1 -4.3910485768489576 -4.292754761566869 0 0 0 0
64 4 0.7 2.915451895043732 -3.7870180152470807 -3.237895558325211 0 0 1 0
58 3 1 1 -2.638606906315519 -3.238579951204687 0 1 0 0
75 4 0.7 2.915451895043732 -0.26489251173614026 -3.226600294988862 0 0 0 0
42 3 1 1 0.24408595357435203 -2.5466524471570215 0 0 0 0
55 3 1 1 0.8415696080783963 -3.046074333909302 0 0 0 0
65 4 0.7 2.915451895043732 2.0971544389289747 -3.5457003835405647 0 0 0 0
41 3 1 1 2.563781935023192 -4.052818629636799 0 0 1 0
21 2 1.3 0.4551661356395083 2.7793178174954862 -2.903299168312417 0 0 0 0
29 2 1.3 0.4551661356395083 4.2518398462809985 -3.795672234017737 0 -1 0 0
73 4 0.7 2.915451895043732 -4.318097774718402 -2.1380636211501693 0 0 0 0
8 1 1.6 0.2441406249999999 -3.3450886638358592 -2.22389301344188 0 0 0 0
70 4 0.7 2.915451895043732 -2.326806889669792 -1.6783448625744959 0 0 0 0
32 2 1.3 0.4551661356395083 -1.9063704557984669 -2.4821170600976386 0 0 0 0
33 2 1.3 0.4551661356395083 -0.6420861933961701 -2.3008038107420536 0 0 0 0
38 2 1.3 0.4551661356395083 0.18874520131953343 -1.4630916755665968 0 0 0 0
80 4 0.7 2.915451895043732 0.8097797989155762 -2.205679414863098 0 -1 0 0
39 2 1.3 0.4551661356395083 1.702873568835086 -2.515439399095688 0 0 0 0
51 3 1 1 -4.682030674534908 -2.9921928640977002 0 1 0 0
47 3 1 1 3.7657439187080195 -2.8521718772436966 0 -1 0 0
72 4 0.7 2.915451895043732 -4.5720478617647595 -0.3186710296718207 0 0 0 0
30 2 1.3 0.4551661356395083 -4.1975126615408 -0.9537836654573333 0 1 0 0
11 1 1.6 0.2441406249999999 -2.7755856934314767 -0.7130547815449422 0 1 0 0
20 1 1.6 0.2441406249999999 -1.2483964793552746 -1.2269095579140656 0 0 0 0
34 2 1.3 0.4551661356395083 1.3137694970238387 -1.1525757042874463 0 0 0 0
60 3 1 1 2.047974925360492 -0.6733186011788046 0 -1 0 0
13 1 1.6 0.2441406249999999 2.749796190277305 -1.6025076610146263 0 0 0 0
68 4 0.7 2.915451895043732 3.593431438706051 -1.0739598286843886 0 0 1 0
6 1 1.6 0.2441406249999999 4.31052003842633 -1.8009681907427728 0 -1 0 0
37 2 1.3 0.4551661356395083 4.512100008656927 0.48641359266921125 0 0 0 0
40 2 1.3 0.4551661356395083 -3.8889621985365674 0.22222808525075788 0 0 1 0
2 1 1.6 0.2441406249999999 -1.249694354667505 0.17149379076490234 0 0 0 0
3 1 1.6 0.2441406249999999 0.29755279502506404 -0.09560870724895221 0 0 0 0
7 1 1.6 0.2441406249999999 1.6340669044960645 0.4333724913586616 0 0 0 0
52 3 1 1 3.05091479785267 -0.36228026467635743 0 0 0 0
66 4 0.7 2.915451895043732 3.6763958667208945 0.01858476953456112 0 -1 0 0
45 3 1 1 4.154582324356666 -0.5502647651791017 0 0 0 0
24 2 1.3 0.4551661356395083 -4.0237509153885025 1.3423904265126385 0 0 0 0
4 1 1.6 0.2441406249999999 -2.6204923030462606 0.8849875153278193 0 0 0 0
77 4 0.7 2.915451895043732 -0.4388715880142824 0.9550082177632557 0 0 0 0
69 4 0.7 2.915451895043732 0.6234041705954079 1.0599463071782749 0 0 0 0
79 4 0.7 2.915451895043732 2.66318356391743 0.31544225928708336 0 -1 0 0
67 4 0.7 2.915451895043732 2.437035121561175 1.4527612786018747 0 0 0 0
12 1 1.6 0.2441406249999999 3.3523859163750886 1.1475949419707714 0 0 0 0
57 3 1 1 4.551025595486316 1.628252141251437 0 0 0 0
26 2 1.3 0.4551661356395083 -3.595268619500671 2.5376515911935646 0 0 0 0
53 3 1 1 -4.600829732743542 2.549155761475485 0 1 -1 0
62 4 0.7 2.915451895043732 -3.2615429660079416 1.7715815422239176 0 0 0 0
5 1 1.6 0.2441406249999999 -2.2733884897152126 2.411975242636574 0 0 0 0
15 1 1.6 0.2441406249999999 -1.250352181992743 1.6194759837229205 0 0 0 0
27 2 1.3 0.4551661356395083 0.11604885892935712 1.8689836183235773 0 0 0 0
61 4 0.7 2.915451895043732 0.8918983112737209 2.427590996460035 0 0 0 0
16 1 1.6 0.2441406249999999 1.5062701879797205 1.7410371937125602 0 0 0 0
14 1 1.6 0.2441406249999999 2.7321911280920608 2.525401743085422 0 0 -1 0
49 3 1 1 3.8829199196637196 2.2362375209790635 0 0 0 0
50 3 1 1 -4.22637174574537 3.4215826629575306 0 0 0 0
23 2 1.3 0.4551661356395083 -1.07182859801974 2.9712204462051215 0 0 0 0
76 4 0.7 2.915451895043732 -0.5908516948907323 3.91384089315284 0 0 0 0
10 1 1.6 0.2441406249999999 0.20460648484806754 3.3330963580593744 0 1 -1 0
17 1 1.6 0.2441406249999999 1.5868886071589259 3.4111961507298103 0 0 -1 0
18 1 1.6 0.2441406249999999 4.154199314456606 3.412290343234088 0 0 0 0
22 2 1.3 0.4551661356395083 -4.289975158430187 4.19087031042021 0 1 -1 0
1 1 1.6 0.2441406249999999 -3.034594325714947 3.8243665439541887 0 0 0 0
25 2 1.3 0.4551661356395083 -1.841613523946032 3.8001288674827327 0 0 0 0
35 2 1.3 0.4551661356395083 -1.0098464353701635 4.658404051761729 0 0 0 0
43 3 1 1 0.08704024787250031 4.4478785286201115 0 0 0 0
71 4 0.7 2.915451895043732 0.6536054779797134 -4.6853832497137295 0 0 1 0
78 4 0.7 2.915451895043732 0.9894839862251912 4.340235207387894 0 0 -1 0
28 2 1.3 0.4551661356395083 1.7062305705625027 -4.799892924153056 0 0 0 0
9 1 1.6 0.2441406249999999 2.7713858261284647 3.965197777383781 0 0 0 0

Velocities

44 -0.045634819592540454 -0.16101094505268584 0 0 0 0
63 0.11882889800292487 -0.1237950058358246 0 0 0 0
54 0.03781239553910226 -0.15234230445406616 0 0 0 0
19 -0.029401851137823558 -0.07744339702470823 0 0 0 0
46 -0.14625282906130502 -0.10257501151458075 0 0 0 0
31 -0.13532441960756825 0.044189433078153796 0 0 0 0
48 -0.009160298136192263 -0.06989162653930701 0 0 0 0
74 -0.07812750814752809 0.018362306560326586 0 0 0 0
56 -0.058498138635090305 0.10111104141923102 0 0 0 0
36 -0.05907384418789573 -0.08275080625556835 0 0 0 0
59 -0.00046140930571074077 0.02640437062466091 0 0 0 0
64 0.09292160634252976 -0.016664750482025533 0 0 0 0
58 0.009129506028906718 0.016693257600991246 0 0 0 0
75 0.048862689873665446 0.05101238808736167 0 0 0 0
42 -0.042373905207788165 0.12883066433235765 0 0 0 0
55 0.007222330808538571 0.013473081955228922 0 0 0 0
65 0.03369125915612569 0.029350364246145705 0 0 0 0
41 -0.10780277730126635 -0.086221886956064 0 0 0 0
21 0.08287508323253723 -0.06281706748593717 0 0 0 0
29 0.16790315026627367 0.07362425647994615 0 0 0 0
73 -0.12235598762116089 -0.0006883404187541811 0 0 0 0
8 -0.06786179151015666 0.25392619126795507 0 0 0 0
70 0.13189201172990828 0.23725637375925188 0 0 0 0
32 -0.04878203876625887 0.10192923076827337 0 0 0 0
33 -0.03747589038509672 -0.022633116347040023 0 0 0 0
38 0.04584557353431045 -0.059704269271504025 0 0 0 0
80 0.22449805669392317 0.10490479344809649 0 0 0 0
39 -0.049042775986277015 -0.08523032657133027 0 0 0 0
51 0.1359407728208506 -0.0794979821695121 0 0 0 0
47 0.05215044272525368 0.027610389450568994 0 0 0 0
72 -0.0076251623397586 -0.04010313564037455 0 0 0 0
30 -0.2124202272273458 -0.07853018686010058 0 0 0 0
11 -0.074410640164235 -0.08339835883673619 0 0 0 0
20 -0.18931632070198118 0.022140471432989493 0 0 0 0
34 0.10303982201021918 -0.10218532293365194 0 0 0 0
60 0.1301623923244247 -0.06623730510137738 0 0 0 0
13 0.09147823639024588 0.1447263544149199 0 0 0 0
68 -0.03379812248571704 0.03842913560725925 0 0 0 0
6 -0.04999075064710845 -0.02518006257825667 0 0 0 0
37 -0.13391858772264742 0.19746540965875506 0 0 0 0
40 0.07294838654266432 0.023539689436962486 0 0 0 0
2 -0.03505204006177339 0.12338652873695663 0 0 0 0
3 -0.0786490922916793 -0.12897048025303753 0 0 0 0
7 -0.022675696596957253 -0.10541578303315091 0 0 0 0
52 0.1886370960731652 -0.11646970037390203 0 0 0 0
66 -0.024363721196308745 -0.0161271599694189 0 0 0 0
45 0.0127649270879965 -0.07338531951467532 0 0 0 0
24 0.06064803973343073 0.26699134789503653 0 0 0 0
4 -0.011770148074416488 0.06075548005649753 0 0 0 0
77 0.019765028315939227 -0.09659424015893893 0 0 0 0
69 -0.029489139220709226 0.04165184377191203 0 0 0 0
79 -0.11184002114310496 0.14806661848715164 0 0 0 0
67 -0.11024667295878567 0.11870037982995515 0 0 0 0
12 0.029724211973958446 0.09333220055226514 0 0 0 0
57 -0.0892961883821673 -0.02909089613678122 0 0 0 0
26 -0.016742153169689376 -0.13887985342305026 0 0 0 0
53 0.11740443131975477 0.0003544962820136733 0 0 0 0
62 0.07823454743835778 -0.13030531954024804 0 0 0 0
5 -0.0517149041921914 0.0037865118405102705 0 0 0 0
15 -0.056455615437170883 -0.004793762350053737 0 0 0 0
27 -0.20181422820057796 -0.06901054754727166 0 0 0 0
61 -0.10073869490319962 -0.005736365453721469 0 0 0 0
16 -0.06368925010939051 -0.10595235710624978 0 0 0 0
14 0.054301842675847124 0.14860758220151732 0 0 0 0
49 0.08229425605229168 -0.13336968566276972 0 0 0 0
50 0.021056668219276414 0.05818312983955627 0 0 0 0
23 0.12116940795777104 0.0009613936699376532 0 0 0 0
76 0.020729643129657777 0.10529115851326547 0 0 0 0
10 0.08965144297290095 -0.16833256782284936 0 0 0 0
17 0.19863677384490197 -0.10301851672060616 0 0 0 0
18 -0.22403157154713998 -0.08972146990242641 0 0 0 0
22 -0.06248770458445255 0.233326054083848 0 0 0 0
1 0.08701867892193788 0.16260372436037476 0 0 0 0
25 0.07927010705993087 -0.019270366976803892 0 0 0 0
35 -0.07622521117063293 -0.03198420672916391 0 0 0 0
43 0.04563116831364097 -0.11447195643743145 0 0 0 0
71 0.014780823360434507 0.07956686767362785 0 0 0 0
78 0.16594349883143197 -0.08126448303819521 0 0 0 0
28 -0.08138396096713739 0.06298376375775717 0 0 0 0
9 0.11291090278090192 -0.022462038701470795 0 0 0 0
