LAMMPS data file.

     51 atoms
    108 bonds
      0 angles
      0 dihedrals
      0 impropers
      1 atom types
    108 bond types
      0 angle types
      0 dihedral types
      0 improper types
  -4.806051   4.806051 xlo xhi
  -4.806051   4.806051 ylo yhi
  -0.100000   0.100000 zlo zhi

Masses # ['atom_id', 'mass']

1 10000.0

Atoms # ['atomID', 'moleculeID', 'atomType', 'charge', 'x', 'y', 'z']

     19      1      1   0.000000  -1.254323  -3.531319   0.000000
     31      1      1   0.000000  -0.246336  -4.113202   0.000000
     75      1      1   0.000000  -0.264893  -3.226600   0.000000
     42      1      1   0.000000   0.244086  -2.546652   0.000000
     55      1      1   0.000000   0.841570  -3.046074   0.000000
     32      1      1   0.000000  -1.906370  -2.482117   0.000000
     33      1      1   0.000000  -0.642086  -2.300804   0.000000
     38      1      1   0.000000   0.188745  -1.463092   0.000000
     80      1      1   0.000000   0.809780  -2.205679   0.000000
     39      1      1   0.000000   1.702874  -2.515439   0.000000
     72      1      1   0.000000  -4.572048  -0.318671   0.000000
     30      1      1   0.000000  -4.197513  -0.953784   0.000000
     20      1      1   0.000000  -1.248396  -1.226910   0.000000
     13      1      1   0.000000   2.749796  -1.602508   0.000000
     68      1      1   0.000000   3.593431  -1.073960   0.000000
      6      1      1   0.000000   4.310520  -1.800968   0.000000
     37      1      1   0.000000   4.512100   0.486414   0.000000
     40      1      1   0.000000  -3.888962   0.222228   0.000000
      2      1      1   0.000000  -1.249694   0.171494   0.000000
      3      1      1   0.000000   0.297553  -0.095609   0.000000
      7      1      1   0.000000   1.634067   0.433372   0.000000
     52      1      1   0.000000   3.050915  -0.362280   0.000000
     66      1      1   0.000000   3.676396   0.018585   0.000000
     45      1      1   0.000000   4.154582  -0.550265   0.000000
     24      1      1   0.000000  -4.023751   1.342390   0.000000
      4      1      1   0.000000  -2.620492   0.884988   0.000000
     79      1      1   0.000000   2.663184   0.315442   0.000000
     67      1      1   0.000000   2.437035   1.452761   0.000000
     12      1      1   0.000000   3.352386   1.147595   0.000000
     57      1      1   0.000000   4.551026   1.628252   0.000000
     26      1      1   0.000000  -3.595269   2.537652   0.000000
     53      1      1   0.000000  -4.600830   2.549156   0.000000
     62      1      1   0.000000  -3.261543   1.771582   0.000000
      5      1      1   0.000000  -2.273388   2.411975   0.000000
     15      1      1   0.000000  -1.250352   1.619476   0.000000
     27      1      1   0.000000   0.116049   1.868984   0.000000
     61      1      1   0.000000   0.891898   2.427591   0.000000
     16      1      1   0.000000   1.506270   1.741037   0.000000
     14      1      1   0.000000   2.732191   2.525402   0.000000
     49      1      1   0.000000   3.882920   2.236238   0.000000
     50      1      1   0.000000  -4.226372   3.421583   0.000000
     23      1      1   0.000000  -1.071829   2.971220   0.000000
     10      1      1   0.000000   0.204606   3.333096   0.000000
     17      1      1   0.000000   1.586889   3.411196   0.000000
     18      1      1   0.000000   4.154199   3.412290   0.000000
     22      1      1   0.000000  -4.289975   4.190870   0.000000
      1      1      1   0.000000  -3.034594   3.824367   0.000000
     25      1      1   0.000000  -1.841614   3.800129   0.000000
     35      1      1   0.000000  -1.009846   4.658404   0.000000
     43      1      1   0.000000   0.087040   4.447879   0.000000
      9      1      1   0.000000   2.771386   3.965198   0.000000

Bond Coeffs # ['bondID', 'bondCoeff', 'd']

      1   0.807967   1.112508
      2   0.488218   1.431176
      3   0.613012   1.277219
      4   0.413778   1.554592
      5   1.640303   0.780797
      6   0.766101   1.142502
      7   0.511369   1.398404
      8   1.678278   0.771912
      9   0.507551   1.403654
     10   1.317214   0.871308
     11   0.700048   1.195187
     12   1.053268   0.974385
     13   0.584691   1.307787
     14   0.597137   1.294086
     15   0.613935   1.276259
     16   0.631884   1.258002
     17   0.579267   1.313895
     18   1.074121   0.964880
     19   0.675869   1.216379
     20   0.675869   1.216379
     21   0.958996   1.021155
     22   0.835425   1.094073
     23   0.529380   1.374410
     24   0.482033   1.440329
     25   1.697370   0.767559
     26   0.710332   1.186504
     27   1.000626   0.999687
     28   1.864681   0.732315
     29   0.655312   1.235310
     30   0.702350   1.193227
     31   1.090197   0.957740
     32   0.561137   1.334952
     33   0.681845   1.211036
     34   0.831586   1.096595
     35   0.472119   1.455373
     36   0.518271   1.389061
     37   0.659301   1.231567
     38   1.119109   0.945287
     39   0.659301   1.231567
     40   0.863735   1.075994
     41   0.781459   1.131220
     42   0.863735   1.075994
     43   1.839437   0.737323
     44   0.849497   1.084973
     45   0.516344   1.391651
     46   0.497890   1.417207
     47   0.516344   1.391651
     48   0.650866   1.239522
     49   0.650866   1.239522
     50   1.078868   0.962755
     51   0.521702   1.384487
     52   1.078868   0.962755
     53   0.537899   1.363482
     54   0.620253   1.269743
     55   0.657522   1.233232
     56   0.518321   1.388995
     57   1.271606   0.886796
     58   0.676495   1.215815
     59   0.507617   1.403564
     60   0.977118   1.011641
     61   0.418732   1.545367
     62   1.432180   0.835605
     63   0.450881   1.489255
     64   0.988840   1.005627
     65   0.822512   1.102628
     66   0.822512   1.102628
     67   0.775565   1.135510
     68   0.775565   1.135510
     69   0.407802   1.565941
     70   0.477020   1.447878
     71   0.801615   1.116907
     72   0.476951   1.447982
     73   0.773808   1.136798
     74   0.686487   1.206935
     75   1.109450   0.949393
     76   0.629495   1.260387
     77   0.738212   1.163883
     78   0.795823   1.120964
     79   0.567163   1.327841
     80   2.292147   0.660509
     81   0.856547   1.080499
     82   0.785588   1.128243
     83   0.438021   1.510958
     84   0.484006   1.437390
     85   1.067099   0.968050
     86   0.405627   1.570133
     87   1.413879   0.840996
     88   0.599604   1.291421
     89   0.568104   1.326741
     90   0.404000   1.573291
     91   1.094110   0.956025
     92   1.225473   0.903334
     93   1.008997   0.995532
     94   0.569314   1.325331
     95   0.513061   1.396097
     96   0.531392   1.371805
     97   1.810767   0.743137
     98   1.182393   0.919643
     99   1.178121   0.921308
    100   0.584812   1.307651
    101   0.931976   1.035852
    102   0.932987   1.035290
    103   0.718369   1.179848
    104   1.649052   0.778723
    105   1.306906   0.874738
    106   1.386216   0.849346
    107   0.847727   1.086106
    108   0.507551   1.403654

Bonds # ['ID', 'type', 'atom1', 'atom2']

         1         1        67        14
         2         2        40         4
         3         3        32        33
         4         4         4        15
         5         5        52        79
         6         6        37        57
         7         7        20         2
         8         8        50        22
         9         9        18        22
        10        10        72        40
        11        11        25        35
        12        12        67        16
        13        13        22         1
        14        14         5        15
        15        15        13        52
        16        16        50         1
        17        17         7        16
        18        18        67        12
        19        19        53        18
        20        20        18        53
        21        21        68         6
        22        22         4        62
        23        23        19        33
        24        24        14         9
        25        25        68        45
        26        26        14        49
        27        27        75        33
        28        28        52        66
        29        29        19        32
        30        30         1        25
        31        31        37        66
        32        32        37        12
        33        33        12        49
        34        34        37        45
        35        35        16        14
        36        36        39        13
        37        37        18        50
        38        38        80        39
        39        39        50        18
        40        40        57        24
        41        41        23        25
        42        42        24        57
        43        43        72        30
        44        44        42        38
        45        45        30         6
        46        46        32        20
        47        47         6        30
        48        48        37        40
        49        49        40        37
        50        50        72        37
        51        51        10        17
        52        52        37        72
        53        53        15        23
        54        54        24        26
        55        55        33        20
        56        56        15        27
        57        57        31        75
        58        58        30        40
        59        59        26         1
        60        60        55        39
        61        61         2         4
        62        62        26        62
        63        63        18         9
        64        64        26        53
        65        65        31        43
        66        66        43        31
        67        67        35        31
        68        68        31        35
        69        69         4         5
        70        70        14        17
        71        71        35        43
        72        72         2        15
        73        73        61        10
        74        74        49        18
        75        75        53        50
        76        76         6        45
        77        77        19        31
        78        78        10        43
        79        79        26         5
        80        80        42        80
        81        81        79        12
        82        82        40        24
        83        83        12        14
        84        84         3         7
        85        85        38        80
        86        86         2         3
        87        87        55        80
        88        88        12        57
        89        89        23        10
        90        90        13         6
        91        91        27        61
        92        92        57        49
        93        93        13        68
        94        94         5        23
        95        95        27        16
        96        96        38         3
        97        97        66        45
        98        98        42        33
        99        99        61        16
       100       100        17         9
       101       101         7        79
       102       102        19        75
       103       103        33        38
       104       104        42        55
       105       105        24        62
       106       106        75        42
       107       107        26        50
       108       108        22        18
