ITEM: TIMESTEP
0
ITEM: NUMBER OF ATOMS
80
ITEM: BOX BOUNDS pp pp pp
-1.0000000000000000e+01 1.0000000000000000e+01
-1.0000000000000000e+01 1.0000000000000000e+01
-1.0000000000000001e-01 1.0000000000000001e-01
ITEM: ATOMS id type xs ys zs
54 3 0.289763 0.0445104 0.5
22 2 0.876482 0.0319105 0.5
30 2 0.924795 0.0224248 0.5
58 3 0.968289 0.0255683 0.5
59 3 0.500212 0.0692353 0.5
39 2 0.587619 0.104846 0.5
14 1 0.666516 0.133461 0.5
75 4 0.642003 0.146786 0.5
51 3 0.813061 0.12394 0.5
74 4 0.579056 0.19558 0.5
45 3 0.78754 0.191852 0.5
65 4 0.882739 0.198106 0.5
10 1 0.913917 0.195293 0.5
73 4 0.0269071 0.227949 0.5
29 2 0.0499379 0.306014 0.5
69 4 0.0596357 0.296611 0.5
62 4 0.136033 0.310959 0.5
63 4 0.266156 0.284091 0.5
72 4 0.597865 0.312996 0.5
8 1 0.712995 0.308539 0.5
19 1 0.769636 0.270122 0.5
11 1 0.820807 0.301959 0.5
53 3 0.804921 0.31402 0.5
78 4 0.166201 0.332008 0.5
42 3 0.438289 0.327644 0.5
33 2 0.560085 0.348748 0.5
17 1 0.61631 0.320444 0.5
28 2 0.851273 0.338583 0.5
20 1 0.951113 0.350298 0.5
70 4 0.133897 0.406089 0.5
79 4 0.199168 0.414478 0.5
2 1 0.435139 0.381872 0.5
3 1 0.61191 0.368792 0.5
66 4 0.161448 0.463667 0.5
15 1 0.276935 0.446116 0.5
24 2 0.350772 0.427322 0.5
38 2 0.445139 0.45899 0.5
55 3 0.750905 0.45517 0.5
47 3 0.0115138 0.513233 0.5
52 3 0.642322 0.510666 0.5
27 2 0.79684 0.493564 0.5
12 1 0.912565 0.486683 0.5
60 3 0.1962 0.539289 0.5
80 4 0.232734 0.555696 0.5
36 2 0.297289 0.53721 0.5
13 1 0.442587 0.553026 0.5
77 4 0.421821 0.546342 0.5
6 1 0.0783955 0.592916 0.5
26 2 0.152115 0.597384 0.5
67 4 0.462403 0.600046 0.5
25 2 0.197397 0.644457 0.5
4 1 0.246009 0.671021 0.5
50 3 0.392138 0.671761 0.5
32 2 0.526782 0.633389 0.5
21 2 0.631382 0.637963 0.5
9 1 0.756332 0.67357 0.5
34 2 0.923405 0.666715 0.5
71 4 0.597234 0.705519 0.5
49 3 0.830352 0.724552 0.5
7 1 0.430818 0.750011 0.5
18 1 0.892827 0.73762 0.5
31 2 0.900622 0.761044 0.5
68 4 0.948521 0.788844 0.5
56 3 0.403928 0.82409 0.5
41 3 0.429216 0.825603 0.5
16 1 0.572726 0.802484 0.5
44 3 0.870519 0.804898 0.5
76 4 0.141302 0.859605 0.5
46 3 0.286837 0.876668 0.5
57 3 0.698928 0.8802 0.5
64 4 0.0588392 0.910866 0.5
40 2 0.115958 0.89951 0.5
1 1 0.170162 0.915134 0.5
35 2 0.563152 0.901903 0.5
23 2 0.604089 0.925257 0.5
61 4 0.231747 0.979822 0.5
5 1 0.316532 0.950861 0.5
48 3 0.319925 0.973263 0.5
43 3 0.64122 0.98511 0.5
37 2 0.809006 0.963816 0.5
ITEM: TIMESTEP
10
ITEM: NUMBER OF ATOMS
80
ITEM: BOX BOUNDS pp pp pp
-9.2468279200322634e+00 9.2468279200322634e+00
-9.2468279200322634e+00 9.2468279200322634e+00
-1.0000000000000001e-01 1.0000000000000001e-01
ITEM: ATOMS id type xs ys zs
54 3 0.289763 0.0445104 0.5
22 2 0.876422 0.0319222 0.5
30 2 0.924801 0.0224093 0.5
58 3 0.968342 0.0255721 0.5
59 3 0.500212 0.0692353 0.5
39 2 0.587619 0.104846 0.5
14 1 0.666613 0.133409 0.5
75 4 0.641906 0.146839 0.5
51 3 0.813061 0.12394 0.5
74 4 0.579056 0.19558 0.5
45 3 0.78754 0.191852 0.5
65 4 0.882642 0.198114 0.5
10 1 0.914014 0.195284 0.5
73 4 0.0269071 0.227949 0.5
29 2 0.049841 0.306108 0.5
69 4 0.0597326 0.296517 0.5
62 4 0.136033 0.310959 0.5
63 4 0.266156 0.284091 0.5
72 4 0.597735 0.312941 0.5
8 1 0.712957 0.308565 0.5
19 1 0.769588 0.270029 0.5
11 1 0.820944 0.301826 0.5
53 3 0.804792 0.314138 0.5
78 4 0.166201 0.332008 0.5
42 3 0.438292 0.327602 0.5
33 2 0.55999 0.348742 0.5
17 1 0.616484 0.320361 0.5
28 2 0.851351 0.338665 0.5
20 1 0.951113 0.350298 0.5
70 4 0.133897 0.406089 0.5
79 4 0.199168 0.414478 0.5
2 1 0.435137 0.381914 0.5
3 1 0.611961 0.368936 0.5
66 4 0.161448 0.463667 0.5
15 1 0.276935 0.446116 0.5
24 2 0.350772 0.427322 0.5
38 2 0.445139 0.45899 0.5
55 3 0.750905 0.45517 0.5
47 3 0.0115138 0.513233 0.5
52 3 0.642322 0.510666 0.5
27 2 0.79684 0.493564 0.5
12 1 0.912565 0.486683 0.5
60 3 0.19619 0.539284 0.5
80 4 0.232744 0.555701 0.5
36 2 0.297289 0.53721 0.5
13 1 0.442702 0.553042 0.5
77 4 0.421695 0.546301 0.5
6 1 0.0783941 0.592916 0.5
26 2 0.152115 0.597383 0.5
67 4 0.462413 0.60007 0.5
25 2 0.197341 0.644427 0.5
4 1 0.246067 0.671052 0.5
50 3 0.392138 0.671761 0.5
32 2 0.526782 0.633389 0.5
21 2 0.631382 0.637963 0.5
9 1 0.756332 0.67357 0.5
34 2 0.923405 0.666715 0.5
71 4 0.597234 0.705519 0.5
49 3 0.830344 0.72455 0.5
7 1 0.430818 0.750011 0.5
18 1 0.892778 0.737454 0.5
31 2 0.900689 0.761196 0.5
68 4 0.948521 0.788844 0.5
56 3 0.403836 0.824085 0.5
41 3 0.429307 0.825608 0.5
16 1 0.572726 0.802484 0.5
44 3 0.870508 0.804913 0.5
76 4 0.141309 0.859594 0.5
46 3 0.286837 0.876668 0.5
57 3 0.698928 0.8802 0.5
64 4 0.0588392 0.910866 0.5
40 2 0.115891 0.899504 0.5
1 1 0.170222 0.915151 0.5
35 2 0.563093 0.90187 0.5
23 2 0.604148 0.92529 0.5
61 4 0.231747 0.979822 0.5
5 1 0.316508 0.950705 0.5
48 3 0.319948 0.973418 0.5
43 3 0.64122 0.98511 0.5
37 2 0.809006 0.963816 0.5
ITEM: TIMESTEP
20
ITEM: NUMBER OF ATOMS
80
ITEM: BOX BOUNDS pp pp pp
-8.3195927939350494e+00 8.3195927939350494e+00
-8.3195927939350494e+00 8.3195927939350494e+00
-1.0000000000000001e-01 1.0000000000000001e-01
ITEM: ATOMS id type xs ys zs
54 3 0.289763 0.0445104 0.5
22 2 0.87619 0.0319679 0.5
30 2 0.924825 0.0223484 0.5
58 3 0.96855 0.0255873 0.5
59 3 0.500212 0.0692353 0.5
39 2 0.587618 0.104846 0.5
14 1 0.666965 0.133218 0.5
75 4 0.641555 0.14703 0.5
51 3 0.813061 0.12394 0.5
74 4 0.579056 0.19558 0.5
45 3 0.78754 0.191852 0.5
65 4 0.882285 0.198147 0.5
10 1 0.914371 0.195252 0.5
73 4 0.0269071 0.227949 0.5
29 2 0.0494975 0.306441 0.5
69 4 0.060076 0.296184 0.5
62 4 0.136025 0.310953 0.5
63 4 0.266156 0.284091 0.5
72 4 0.597277 0.31271 0.5
8 1 0.712795 0.308675 0.5
19 1 0.769405 0.269646 0.5
11 1 0.821442 0.30135 0.5
53 3 0.804325 0.314568 0.5
78 4 0.166209 0.332014 0.5
42 3 0.438302 0.327427 0.5
33 2 0.559592 0.348736 0.5
17 1 0.617134 0.320035 0.5
28 2 0.851664 0.338984 0.5
20 1 0.951113 0.350298 0.5
70 4 0.133897 0.406089 0.5
79 4 0.199168 0.414478 0.5
2 1 0.435125 0.382075 0.5
3 1 0.612167 0.3695 0.5
66 4 0.161448 0.463667 0.5
15 1 0.276914 0.446122 0.5
24 2 0.350793 0.427317 0.5
38 2 0.445141 0.459004 0.5
55 3 0.750889 0.455157 0.5
47 3 0.0115138 0.513233 0.5
52 3 0.642322 0.510666 0.5
27 2 0.796856 0.493577 0.5
12 1 0.912565 0.486683 0.5
60 3 0.196136 0.53926 0.5
80 4 0.232798 0.555725 0.5
36 2 0.297289 0.53721 0.5
13 1 0.443108 0.553077 0.5
77 4 0.421244 0.546156 0.5
6 1 0.0783571 0.592914 0.5
26 2 0.152123 0.597355 0.5
67 4 0.462459 0.60018 0.5
25 2 0.197143 0.644334 0.5
4 1 0.246293 0.671176 0.5
50 3 0.392138 0.671761 0.5
32 2 0.526782 0.633389 0.5
21 2 0.631382 0.637963 0.5
9 1 0.756332 0.67357 0.5
34 2 0.923412 0.6667 0.5
71 4 0.597234 0.705519 0.5
49 3 0.830286 0.724538 0.5
7 1 0.430818 0.750011 0.5
18 1 0.892632 0.736875 0.5
31 2 0.900938 0.761717 0.5
68 4 0.948525 0.788847 0.5
56 3 0.403502 0.824065 0.5
41 3 0.429641 0.825629 0.5
16 1 0.572726 0.802484 0.5
44 3 0.870453 0.804996 0.5
76 4 0.141341 0.859531 0.5
46 3 0.286837 0.876668 0.5
57 3 0.698928 0.8802 0.5
64 4 0.0588389 0.910866 0.5
40 2 0.115619 0.899493 0.5
1 1 0.170461 0.915226 0.5
35 2 0.562865 0.90174 0.5
23 2 0.604376 0.92542 0.5
61 4 0.231747 0.979822 0.5
5 1 0.316424 0.950152 0.5
48 3 0.320032 0.973972 0.5
43 3 0.64122 0.98511 0.5
37 2 0.809006 0.963816 0.5
ITEM: TIMESTEP
30
ITEM: NUMBER OF ATOMS
80
ITEM: BOX BOUNDS pp pp pp
-7.6254336145416701e+00 7.6254336145416701e+00
-7.6254336145416701e+00 7.6254336145416701e+00
-1.0000000000000001e-01 1.0000000000000001e-01
ITEM: ATOMS id type xs ys zs
54 3 0.289763 0.0445104 0.5
22 2 0.875699 0.0320647 0.5
30 2 0.924875 0.0222193 0.5
58 3 0.968991 0.0256196 0.5
59 3 0.500212 0.0692353 0.5
39 2 0.587596 0.104838 0.5
14 1 0.667676 0.132851 0.5
75 4 0.640866 0.147404 0.5
51 3 0.813061 0.12394 0.5
74 4 0.579056 0.19558 0.5
45 3 0.787541 0.191848 0.5
65 4 0.881578 0.19821 0.5
10 1 0.915078 0.195188 0.5
73 4 0.0269071 0.227949 0.5
29 2 0.0488383 0.307081 0.5
69 4 0.0607353 0.295545 0.5
62 4 0.135983 0.310924 0.5
63 4 0.266156 0.284091 0.5
72 4 0.596408 0.312191 0.5
8 1 0.712442 0.308923 0.5
19 1 0.76903 0.268809 0.5
11 1 0.822421 0.300426 0.5
53 3 0.803419 0.315417 0.5
78 4 0.166251 0.332043 0.5
42 3 0.438324 0.327042 0.5
33 2 0.558704 0.34876 0.5
17 1 0.618431 0.319345 0.5
28 2 0.85233 0.33965 0.5
20 1 0.951113 0.350298 0.5
70 4 0.133897 0.406089 0.5
79 4 0.199168 0.414478 0.5
2 1 0.435091 0.382373 0.5
3 1 0.612614 0.370686 0.5
66 4 0.161448 0.463667 0.5
15 1 0.276811 0.446148 0.5
24 2 0.350896 0.42729 0.5
38 2 0.445153 0.459092 0.5
55 3 0.750818 0.455097 0.5
47 3 0.0115138 0.513233 0.5
52 3 0.642322 0.510666 0.5
27 2 0.796927 0.493637 0.5
12 1 0.912565 0.486683 0.5
60 3 0.195997 0.539197 0.5
80 4 0.232937 0.555787 0.5
36 2 0.297289 0.53721 0.5
13 1 0.443876 0.553098 0.5
77 4 0.420368 0.545877 0.5
6 1 0.0782139 0.592905 0.5
26 2 0.152163 0.597257 0.5
67 4 0.462566 0.600439 0.5
25 2 0.196768 0.644179 0.5
4 1 0.246771 0.671437 0.5
50 3 0.392138 0.671761 0.5
32 2 0.526782 0.633389 0.5
21 2 0.631382 0.637963 0.5
9 1 0.756332 0.67357 0.5
34 2 0.923452 0.666609 0.5
71 4 0.597234 0.705519 0.5
49 3 0.830108 0.724502 0.5
7 1 0.43082 0.749985 0.5
18 1 0.892401 0.735791 0.5
31 2 0.901418 0.762661 0.5
68 4 0.948564 0.788869 0.5
56 3 0.402843 0.824031 0.5
41 3 0.430298 0.825689 0.5
16 1 0.572726 0.802484 0.5
44 3 0.870302 0.805241 0.5
76 4 0.141411 0.859335 0.5
46 3 0.286835 0.876662 0.5
57 3 0.698928 0.8802 0.5
64 4 0.0588209 0.91087 0.5
40 2 0.115041 0.899492 0.5
1 1 0.170988 0.915418 0.5
35 2 0.562393 0.90147 0.5
23 2 0.604846 0.925686 0.5
61 4 0.231747 0.979822 0.5
5 1 0.316265 0.949088 0.5
48 3 0.320194 0.975041 0.5
43 3 0.641223 0.985114 0.5
37 2 0.809006 0.963816 0.5
ITEM: TIMESTEP
40
ITEM: NUMBER OF ATOMS
80
ITEM: BOX BOUNDS pp pp pp
-7.1323198881695138e+00 7.1323198881695138e+00
-7.1323198881695138e+00 7.1323198881695138e+00
-1.0000000000000001e-01 1.0000000000000001e-01
ITEM: ATOMS id type xs ys zs
54 3 0.289763 0.0445104 0.5
22 2 0.874873 0.0322284 0.5
30 2 0.924958 0.0220001 0.5
58 3 0.969735 0.025675 0.5
59 3 0.500212 0.0692353 0.5
39 2 0.5875 0.104804 0.5
14 1 0.668867 0.13229 0.5
75 4 0.639771 0.148 0.5
51 3 0.813061 0.12394 0.5
74 4 0.579056 0.19558 0.5
45 3 0.787553 0.191801 0.5
65 4 0.880446 0.198313 0.5
10 1 0.916209 0.195086 0.5
73 4 0.0269071 0.227949 0.5
29 2 0.0478087 0.308079 0.5
69 4 0.0617649 0.294546 0.5
62 4 0.135879 0.310852 0.5
63 4 0.266156 0.284091 0.5
72 4 0.595067 0.311297 0.5
8 1 0.711892 0.309357 0.5
19 1 0.768404 0.2674 0.5
11 1 0.823987 0.29896 0.5
53 3 0.801989 0.316783 0.5
78 4 0.166354 0.332115 0.5
42 3 0.438363 0.326373 0.5
33 2 0.55716 0.348845 0.5
17 1 0.62047 0.318183 0.5
28 2 0.853446 0.340764 0.5
20 1 0.951114 0.350298 0.5
70 4 0.133897 0.406089 0.5
79 4 0.199168 0.414478 0.5
2 1 0.435029 0.382808 0.5
3 1 0.613372 0.372666 0.5
66 4 0.161448 0.463667 0.5
15 1 0.276554 0.446196 0.5
24 2 0.351142 0.42723 0.5
38 2 0.445183 0.459309 0.5
55 3 0.750649 0.454956 0.5
47 3 0.0115138 0.513233 0.5
52 3 0.642322 0.510666 0.5
27 2 0.797096 0.493778 0.5
12 1 0.912565 0.486683 0.5
60 3 0.195745 0.539062 0.5
80 4 0.233199 0.555907 0.5
36 2 0.297295 0.537225 0.5
13 1 0.445065 0.553078 0.5
77 4 0.418987 0.545441 0.5
6 1 0.0778935 0.592886 0.5
26 2 0.152248 0.597059 0.5
67 4 0.462757 0.600908 0.5
25 2 0.196186 0.643974 0.5
4 1 0.247576 0.671876 0.5
50 3 0.392137 0.671759 0.5
32 2 0.526782 0.633389 0.5
21 2 0.631382 0.637963 0.5
9 1 0.756332 0.67357 0.5
34 2 0.923556 0.666375 0.5
71 4 0.597234 0.705519 0.5
49 3 0.829743 0.724433 0.5
7 1 0.430839 0.749846 0.5
18 1 0.892102 0.734127 0.5
31 2 0.90216 0.764056 0.5
68 4 0.948685 0.788936 0.5
56 3 0.401778 0.824015 0.5
41 3 0.431345 0.825845 0.5
16 1 0.572726 0.802483 0.5
44 3 0.87 0.805746 0.5
76 4 0.141521 0.858921 0.5
46 3 0.286813 0.876609 0.5
57 3 0.698928 0.8802 0.5
64 4 0.0587415 0.910886 0.5
40 2 0.114093 0.899513 0.5
1 1 0.171905 0.915795 0.5
35 2 0.561609 0.901023 0.5
23 2 0.605606 0.926093 0.5
61 4 0.231747 0.979822 0.5
5 1 0.316032 0.947462 0.5
48 3 0.320448 0.976721 0.5
43 3 0.641247 0.985154 0.5
37 2 0.809006 0.963816 0.5
ITEM: TIMESTEP
50
ITEM: NUMBER OF ATOMS
80
ITEM: BOX BOUNDS pp pp pp
-6.7916765493330296e+00 6.7916765493330296e+00
-6.7916765493330296e+00 6.7916765493330296e+00
-1.0000000000000001e-01 1.0000000000000001e-01
ITEM: ATOMS id type xs ys zs
54 3 0.289763 0.0445105 0.5
22 2 0.873663 0.03247 0.5
30 2 0.925077 0.0216753 0.5
58 3 0.970825 0.0257583 0.5
59 3 0.500212 0.0692353 0.5
39 2 0.587272 0.104719 0.5
14 1 0.670613 0.131532 0.5
75 4 0.638253 0.148842 0.5
51 3 0.813062 0.12394 0.5
74 4 0.579056 0.19558 0.5
45 3 0.787589 0.191656 0.5
65 4 0.878855 0.198456 0.5
10 1 0.9178 0.194942 0.5
73 4 0.0269071 0.227949 0.5
29 2 0.0463916 0.309453 0.5
69 4 0.0631826 0.293172 0.5
62 4 0.135693 0.310722 0.5
63 4 0.266156 0.284091 0.5
72 4 0.593236 0.309993 0.5
8 1 0.711166 0.310008 0.5
19 1 0.767491 0.265373 0.5
11 1 0.82619 0.296903 0.5
53 3 0.800014 0.318715 0.5
78 4 0.16654 0.332245 0.5
42 3 0.438422 0.325374 0.5
33 2 0.554871 0.349009 0.5
17 1 0.623247 0.316489 0.5
28 2 0.855038 0.342381 0.5
20 1 0.95114 0.350301 0.5
70 4 0.133897 0.406089 0.5
79 4 0.199168 0.414478 0.5
2 1 0.434963 0.383348 0.5
3 1 0.614472 0.375525 0.5
66 4 0.161448 0.463667 0.5
15 1 0.276082 0.446238 0.5
24 2 0.351548 0.42714 0.5
38 2 0.44524 0.459671 0.5
55 3 0.750349 0.454705 0.5
47 3 0.0115138 0.513233 0.5
52 3 0.642322 0.510666 0.5
27 2 0.797396 0.494029 0.5
12 1 0.912565 0.486683 0.5
60 3 0.195376 0.538809 0.5
80 4 0.233593 0.556102 0.5
36 2 0.297337 0.537292 0.5
13 1 0.446697 0.553019 0.5
77 4 0.417068 0.544843 0.5
6 1 0.0773387 0.592854 0.5
26 2 0.152371 0.596752 0.5
67 4 0.463045 0.601635 0.5
25 2 0.195392 0.643736 0.5
4 1 0.248752 0.672518 0.5
50 3 0.392124 0.671731 0.5
32 2 0.526783 0.63339 0.5
21 2 0.631382 0.637963 0.5
9 1 0.75632 0.673561 0.5
34 2 0.923755 0.665936 0.5
71 4 0.597234 0.705519 0.5
49 3 0.829145 0.724332 0.5
7 1 0.430903 0.749532 0.5
18 1 0.891747 0.731869 0.5
31 2 0.903167 0.765882 0.5
68 4 0.948939 0.78908 0.5
56 3 0.400261 0.824055 0.5
41 3 0.432812 0.826147 0.5
16 1 0.572728 0.802464 0.5
44 3 0.869504 0.806583 0.5
76 4 0.141676 0.85823 0.5
46 3 0.286749 0.876452 0.5
57 3 0.698928 0.8802 0.5
64 4 0.0585566 0.910924 0.5
40 2 0.112751 0.899561 0.5
1 1 0.173277 0.9164 0.5
35 2 0.560473 0.900396 0.5
23 2 0.606669 0.926623 0.5
61 4 0.231747 0.979822 0.5
5 1 0.315745 0.945295 0.5
48 3 0.3208 0.979044 0.5
43 3 0.641317 0.985271 0.5
37 2 0.809006 0.963816 0.5
ITEM: TIMESTEP
60
ITEM: NUMBER OF ATOMS
80
ITEM: BOX BOUNDS pp pp pp
-6.5483231496456602e+00 6.5483231496456602e+00
-6.5483231496456602e+00 6.5483231496456602e+00
-1.0000000000000001e-01 1.0000000000000001e-01
ITEM: ATOMS id type xs ys zs
54 3 0.289758 0.0445205 0.5
22 2 0.872052 0.032805 0.5
30 2 0.925233 0.0212336 0.5
58 3 0.972289 0.0258736 0.5
59 3 0.500212 0.0692353 0.5
39 2 0.586862 0.104557 0.5
14 1 0.672945 0.130588 0.5
75 4 0.63633 0.149949 0.5
51 3 0.813065 0.12393 0.5
74 4 0.579056 0.19558 0.5
45 3 0.787661 0.191376 0.5
65 4 0.876798 0.198642 0.5
10 1 0.919857 0.194757 0.5
73 4 0.0269071 0.227949 0.5
29 2 0.0446117 0.311191 0.5
69 4 0.0649844 0.291425 0.5
62 4 0.13541 0.310524 0.5
63 4 0.266156 0.284091 0.5
72 4 0.590925 0.308289 0.5
8 1 0.71028 0.310897 0.5
19 1 0.766272 0.262719 0.5
11 1 0.829061 0.294234 0.5
53 3 0.79753 0.321239 0.5
78 4 0.166824 0.332443 0.5
42 3 0.438501 0.324018 0.5
33 2 0.551814 0.349259 0.5
17 1 0.626697 0.314236 0.5
28 2 0.857064 0.344525 0.5
20 1 0.95122 0.350319 0.5
70 4 0.133897 0.406089 0.5
79 4 0.199157 0.414474 0.5
2 1 0.434926 0.383954 0.5
3 1 0.615905 0.37928 0.5
66 4 0.161448 0.463667 0.5
15 1 0.275358 0.446246 0.5
24 2 0.352111 0.427033 0.5
38 2 0.445329 0.46018 0.5
55 3 0.749894 0.454325 0.5
47 3 0.0115138 0.513233 0.5
52 3 0.642322 0.510666 0.5
27 2 0.797851 0.494409 0.5
12 1 0.912565 0.486683 0.5
60 3 0.194892 0.538402 0.5
80 4 0.234107 0.55639 0.5
36 2 0.297452 0.537443 0.5
13 1 0.448771 0.552926 0.5
77 4 0.414606 0.544089 0.5
6 1 0.0765096 0.592807 0.5
26 2 0.152524 0.596333 0.5
67 4 0.463418 0.602645 0.5
25 2 0.194392 0.643489 0.5
4 1 0.250323 0.673372 0.5
50 3 0.392081 0.671646 0.5
32 2 0.5268 0.633398 0.5
21 2 0.631382 0.637963 0.5
9 1 0.756266 0.673524 0.5
34 2 0.924076 0.665243 0.5
71 4 0.597234 0.705519 0.5
49 3 0.828304 0.724223 0.5
7 1 0.431037 0.74901 0.5
18 1 0.891344 0.729033 0.5
31 2 0.904428 0.768105 0.5
68 4 0.949376 0.789326 0.5
56 3 0.398276 0.824179 0.5
41 3 0.434706 0.82663 0.5
16 1 0.572738 0.802387 0.5
44 3 0.868784 0.807789 0.5
76 4 0.141876 0.857226 0.5
46 3 0.286621 0.876144 0.5
57 3 0.698928 0.8802 0.5
64 4 0.0582281 0.910992 0.5
40 2 0.111021 0.899638 0.5
1 1 0.175135 0.917258 0.5
35 2 0.558965 0.899619 0.5
23 2 0.608031 0.927249 0.5
61 4 0.231749 0.979823 0.5
5 1 0.315425 0.942638 0.5
48 3 0.321253 0.982 0.5
43 3 0.641454 0.985499 0.5
37 2 0.808998 0.963807 0.5
ITEM: TIMESTEP
70
ITEM: NUMBER OF ATOMS
80
ITEM: BOX BOUNDS pp pp pp
-6.3830960805792198e+00 6.3830960805792198e+00
-6.3830960805792198e+00 6.3830960805792198e+00
-1.0000000000000001e-01 1.0000000000000001e-01
ITEM: ATOMS id type xs ys zs
54 3 0.289733 0.0445708 0.5
22 2 0.870055 0.0332586 0.5
30 2 0.925423 0.020668 0.5
58 3 0.974131 0.0260245 0.5
59 3 0.500212 0.0692353 0.5
39 2 0.586238 0.104298 0.5
14 1 0.675857 0.129472 0.5
75 4 0.634042 0.151324 0.5
51 3 0.813079 0.123893 0.5
74 4 0.579056 0.19558 0.5
45 3 0.787778 0.190938 0.5
65 4 0.874296 0.198867 0.5
10 1 0.92236 0.194531 0.5
73 4 0.0269071 0.227949 0.5
29 2 0.0425352 0.313251 0.5
69 4 0.0671452 0.289329 0.5
62 4 0.13502 0.310253 0.5
63 4 0.266156 0.284091 0.5
72 4 0.588173 0.306232 0.5
8 1 0.709288 0.312026 0.5
19 1 0.764745 0.25947 0.5
11 1 0.832585 0.290962 0.5
53 3 0.794609 0.324343 0.5
78 4 0.167214 0.332715 0.5
42 3 0.438602 0.322298 0.5
33 2 0.548031 0.349588 0.5
17 1 0.630699 0.311434 0.5
28 2 0.859443 0.347189 0.5
20 1 0.951359 0.35037 0.5
70 4 0.133897 0.406089 0.5
79 4 0.199112 0.414455 0.5
2 1 0.434946 0.384582 0.5
3 1 0.617619 0.383893 0.5
66 4 0.161448 0.463667 0.5
15 1 0.274376 0.446208 0.5
24 2 0.352813 0.42692 0.5
38 2 0.445455 0.460834 0.5
55 3 0.749274 0.453807 0.5
47 3 0.0115138 0.513233 0.5
52 3 0.642322 0.510666 0.5
27 2 0.798471 0.494927 0.5
12 1 0.912565 0.486683 0.5
60 3 0.194304 0.537813 0.5
80 4 0.234725 0.55678 0.5
36 2 0.297672 0.537697 0.5
13 1 0.451269 0.552802 0.5
77 4 0.411626 0.543194 0.5
6 1 0.0753834 0.592746 0.5
26 2 0.152694 0.595798 0.5
67 4 0.46385 0.603945 0.5
25 2 0.193202 0.64326 0.5
4 1 0.25229 0.674439 0.5
50 3 0.391996 0.671476 0.5
32 2 0.526855 0.633426 0.5
21 2 0.631385 0.637958 0.5
9 1 0.756146 0.673439 0.5
34 2 0.924543 0.664262 0.5
71 4 0.597231 0.705524 0.5
49 3 0.827218 0.724132 0.5
7 1 0.431261 0.748272 0.5
18 1 0.8909 0.725674 0.5
31 2 0.905918 0.770676 0.5
68 4 0.950031 0.789689 0.5
56 3 0.395834 0.824403 0.5
41 3 0.437009 0.827314 0.5
16 1 0.57276 0.802218 0.5
44 3 0.86782 0.809371 0.5
76 4 0.142123 0.855904 0.5
46 3 0.286409 0.875642 0.5
57 3 0.698928 0.8802 0.5
64 4 0.0577243 0.911097 0.5
40 2 0.108933 0.899741 0.5
1 1 0.177461 0.918353 0.5
35 2 0.557083 0.89873 0.5
23 2 0.609673 0.927938 0.5
61 4 0.231766 0.979842 0.5
5 1 0.315098 0.939567 0.5
48 3 0.321817 0.985522 0.5
43 3 0.641671 0.985867 0.5
37 2 0.808962 0.963768 0.5
ITEM: TIMESTEP
80
ITEM: NUMBER OF ATOMS
80
ITEM: BOX BOUNDS pp pp pp
-6.2847802399392680e+00 6.2847802399392680e+00
-6.2847802399392680e+00 6.2847802399392680e+00
-1.0000000000000001e-01 1.0000000000000001e-01
ITEM: ATOMS id type xs ys zs
54 3 0.289669 0.0446912 0.5
22 2 0.867709 0.0338497 0.5
30 2 0.925644 0.0199773 0.5
58 3 0.976336 0.0262132 0.5
59 3 0.500212 0.0692353 0.5
39 2 0.585395 0.103935 0.5
14 1 0.679294 0.128208 0.5
75 4 0.631448 0.152951 0.5
51 3 0.81311 0.12381 0.5
74 4 0.579056 0.19558 0.5
45 3 0.787949 0.190329 0.5
65 4 0.871397 0.199129 0.5
10 1 0.925259 0.194269 0.5
73 4 0.0269071 0.227949 0.5
29 2 0.0402482 0.315573 0.5
69 4 0.0696177 0.286931 0.5
62 4 0.134525 0.309907 0.5
63 4 0.266156 0.284091 0.5
72 4 0.585052 0.303904 0.5
8 1 0.708269 0.313387 0.5
19 1 0.762928 0.255704 0.5
11 1 0.836696 0.287142 0.5
53 3 0.791353 0.327972 0.5
78 4 0.167709 0.33306 0.5
42 3 0.438724 0.32023 0.5
33 2 0.54363 0.349985 0.5
17 1 0.635078 0.30813 0.5
28 2 0.862067 0.350333 0.5
20 1 0.951557 0.350469 0.5
70 4 0.133897 0.406089 0.5
79 4 0.199011 0.414413 0.5
2 1 0.435047 0.385191 0.5
3 1 0.619535 0.38925 0.5
66 4 0.161448 0.463667 0.5
15 1 0.273152 0.446116 0.5
24 2 0.353616 0.426808 0.5
38 2 0.445632 0.461628 0.5
55 3 0.748488 0.45315 0.5
47 3 0.0115128 0.513231 0.5
52 3 0.642322 0.510666 0.5
27 2 0.799256 0.495584 0.5
12 1 0.912566 0.486683 0.5
60 3 0.193629 0.537029 0.5
80 4 0.235423 0.557278 0.5
36 2 0.298017 0.538067 0.5
13 1 0.45414 0.552633 0.5
77 4 0.408187 0.54218 0.5
6 1 0.0739588 0.592674 0.5
26 2 0.15287 0.595147 0.5
67 4 0.464307 0.605528 0.5
25 2 0.191852 0.643079 0.5
4 1 0.254628 0.675704 0.5
50 3 0.391858 0.671202 0.5
32 2 0.526983 0.633496 0.5
21 2 0.631395 0.637937 0.5
9 1 0.755937 0.673292 0.5
34 2 0.925176 0.662972 0.5
71 4 0.597221 0.705545 0.5
49 3 0.825904 0.724091 0.5
7 1 0.431584 0.74733 0.5
18 1 0.890425 0.721894 0.5
31 2 0.907599 0.773532 0.5
68 4 0.950922 0.790164 0.5
56 3 0.392979 0.824731 0.5
41 3 0.439678 0.828202 0.5
16 1 0.572801 0.801934 0.5
44 3 0.866614 0.811298 0.5
76 4 0.142416 0.854286 0.5
46 3 0.286098 0.874918 0.5
57 3 0.698928 0.8802 0.5
64 4 0.0570229 0.911246 0.5
40 2 0.106549 0.89986 0.5
1 1 0.180199 0.919641 0.5
35 2 0.554849 0.897771 0.5
23 2 0.611558 0.928651 0.5
61 4 0.231821 0.979905 0.5
5 1 0.314792 0.936185 0.5
48 3 0.322498 0.989508 0.5
43 3 0.641979 0.986398 0.5
37 2 0.808883 0.963679 0.5
ITEM: TIMESTEP
90
ITEM: NUMBER OF ATOMS
80
ITEM: BOX BOUNDS pp pp pp
-6.2434726751869780e+00 6.2434726751869780e+00
-6.2434726751869780e+00 6.2434726751869780e+00
-1.0000000000000001e-01 1.0000000000000001e-01
ITEM: ATOMS id type xs ys zs
54 3 0.28955 0.0449052 0.5
22 2 0.865068 0.0345873 0.5
30 2 0.925886 0.0191663 0.5
58 3 0.978868 0.0264402 0.5
59 3 0.500212 0.0692349 0.5
39 2 0.584354 0.10347 0.5
14 1 0.683162 0.126828 0.5
75 4 0.628622 0.154795 0.5
51 3 0.813163 0.123671 0.5
74 4 0.579056 0.19558 0.5
45 3 0.788187 0.189546 0.5
65 4 0.868176 0.199418 0.5
10 1 0.928483 0.193977 0.5
73 4 0.0269071 0.227949 0.5
29 2 0.0378477 0.318082 0.5
69 4 0.0723368 0.284293 0.5
62 4 0.133933 0.309494 0.5
63 4 0.266156 0.284091 0.5
72 4 0.581654 0.301402 0.5
8 1 0.707296 0.314977 0.5
19 1 0.760849 0.251536 0.5
11 1 0.841293 0.282868 0.5
53 3 0.787886 0.33203 0.5
78 4 0.168301 0.333473 0.5
42 3 0.438863 0.317852 0.5
33 2 0.538783 0.350425 0.5
17 1 0.639619 0.304402 0.5
28 2 0.864807 0.353887 0.5
20 1 0.951809 0.35062 0.5
70 4 0.133897 0.406089 0.5
79 4 0.198839 0.41434 0.5
2 1 0.435235 0.385746 0.5
3 1 0.621567 0.39518 0.5
66 4 0.161448 0.463667 0.5
15 1 0.271713 0.445971 0.5
24 2 0.354476 0.426704 0.5
38 2 0.445866 0.462548 0.5
55 3 0.747551 0.452367 0.5
47 3 0.0115079 0.513218 0.5
52 3 0.642322 0.510666 0.5
27 2 0.800181 0.496369 0.5
12 1 0.912572 0.48668 0.5
60 3 0.192888 0.536047 0.5
80 4 0.236176 0.557879 0.5
36 2 0.2985 0.53855 0.5
13 1 0.457312 0.552405 0.5
77 4 0.40437 0.541074 0.5
6 1 0.0722605 0.592606 0.5
26 2 0.153037 0.594381 0.5
67 4 0.464755 0.607371 0.5
25 2 0.190379 0.642975 0.5
4 1 0.257293 0.677139 0.5
50 3 0.391661 0.670815 0.5
32 2 0.527212 0.633631 0.5
21 2 0.631418 0.637892 0.5
9 1 0.75563 0.673073 0.5
34 2 0.925989 0.661373 0.5
71 4 0.597198 0.705589 0.5
49 3 0.824386 0.724126 0.5
7 1 0.432008 0.746218 0.5
18 1 0.889926 0.717823 0.5
31 2 0.909418 0.776603 0.5
68 4 0.952049 0.790736 0.5
56 3 0.389782 0.825153 0.5
41 3 0.442649 0.829279 0.5
16 1 0.572866 0.801523 0.5
44 3 0.865179 0.813508 0.5
76 4 0.142753 0.852418 0.5
46 3 0.285674 0.873953 0.5
57 3 0.698928 0.8802 0.5
64 4 0.0561119 0.911443 0.5
40 2 0.103951 0.899984 0.5
1 1 0.18326 0.92106 0.5
35 2 0.552307 0.896782 0.5
23 2 0.613637 0.929349 0.5
61 4 0.231932 0.980032 0.5
5 1 0.314536 0.932613 0.5
48 3 0.323297 0.993832 0.5
43 3 0.642377 0.9871 0.5
37 2 0.808749 0.963526 0.5
ITEM: TIMESTEP
100
ITEM: NUMBER OF ATOMS
80
ITEM: BOX BOUNDS pp pp pp
-6.2474693355729372e+00 6.2474693355729372e+00
-6.2474693355729372e+00 6.2474693355729372e+00
-1.0000000000000001e-01 1.0000000000000001e-01
ITEM: ATOMS id type xs ys zs
54 3 0.289358 0.0452281 0.5
22 2 0.862193 0.035471 0.5
30 2 0.926143 0.0182448 0.5
58 3 0.981677 0.0267045 0.5
59 3 0.500203 0.0692315 0.5
39 2 0.583162 0.10292 0.5
14 1 0.687338 0.125367 0.5
75 4 0.625647 0.156811 0.5
51 3 0.813239 0.12347 0.5
74 4 0.579056 0.19558 0.5
45 3 0.788503 0.188591 0.5
65 4 0.864729 0.199699 0.5
10 1 0.931958 0.193646 0.5
73 4 0.0269071 0.227949 0.5
29 2 0.0354322 0.3207 0.5
69 4 0.0752275 0.281486 0.5
62 4 0.133258 0.309023 0.5
63 4 0.266156 0.284091 0.5
72 4 0.578071 0.298795 0.5
8 1 0.706429 0.316796 0.5
19 1 0.758548 0.247107 0.5
11 1 0.846227 0.278306 0.5
53 3 0.784349 0.336391 0.5
78 4 0.168976 0.333945 0.5
42 3 0.439016 0.315212 0.5
33 2 0.533718 0.350874 0.5
17 1 0.644097 0.300346 0.5
28 2 0.867534 0.35776 0.5
20 1 0.952106 0.350822 0.5
70 4 0.133897 0.406089 0.5
79 4 0.198587 0.414233 0.5
2 1 0.435488 0.386225 0.5
3 1 0.623643 0.401504 0.5
66 4 0.161448 0.463667 0.5
15 1 0.2701 0.445777 0.5
24 2 0.355356 0.426615 0.5
38 2 0.446154 0.463576 0.5
55 3 0.746484 0.451475 0.5
47 3 0.0114966 0.513186 0.5
52 3 0.642322 0.510666 0.5
27 2 0.801213 0.497263 0.5
12 1 0.912589 0.486673 0.5
60 3 0.192106 0.534878 0.5
80 4 0.236957 0.558574 0.5
36 2 0.29912 0.539135 0.5
13 1 0.460706 0.552109 0.5
77 4 0.400277 0.539908 0.5
6 1 0.070327 0.592554 0.5
26 2 0.153186 0.593505 0.5
67 4 0.465161 0.609442 0.5
25 2 0.188827 0.642975 0.5
4 1 0.260224 0.678711 0.5
50 3 0.391402 0.670313 0.5
32 2 0.52756 0.633847 0.5
21 2 0.631453 0.637822 0.5
9 1 0.755219 0.672778 0.5
34 2 0.926989 0.659481 0.5
71 4 0.597162 0.70566 0.5
49 3 0.822699 0.724262 0.5
7 1 0.432524 0.744985 0.5
18 1 0.889396 0.7136 0.5
31 2 0.911317 0.779818 0.5
68 4 0.953413 0.791387 0.5
56 3 0.386334 0.825652 0.5
41 3 0.445839 0.830515 0.5
16 1 0.572958 0.800984 0.5
44 3 0.863545 0.815917 0.5
76 4 0.143129 0.850367 0.5
46 3 0.285131 0.872744 0.5
57 3 0.698928 0.8802 0.5
64 4 0.0549895 0.91169 0.5
40 2 0.101238 0.900099 0.5
1 1 0.186539 0.922538 0.5
35 2 0.549513 0.895802 0.5
23 2 0.615854 0.929992 0.5
61 4 0.232112 0.980242 0.5
5 1 0.314354 0.92897 0.5
48 3 0.324214 0.99836 0.5
43 3 0.642862 0.987976 0.5
37 2 0.808557 0.963299 0.5
ITEM: TIMESTEP
110
ITEM: NUMBER OF ATOMS
80
ITEM: BOX BOUNDS pp pp pp
-6.2788384343435899e+00 6.2788384343435899e+00
-6.2788384343435899e+00 6.2788384343435899e+00
-1.0000000000000001e-01 1.0000000000000001e-01
ITEM: ATOMS id type xs ys zs
54 3 0.289079 0.0456674 0.5
22 2 0.859144 0.0364938 0.5
30 2 0.926405 0.017225 0.5
58 3 0.984712 0.0270041 0.5
59 3 0.500179 0.0692216 0.5
39 2 0.581883 0.102304 0.5
14 1 0.691689 0.123858 0.5
75 4 0.6226 0.158946 0.5
51 3 0.81334 0.123203 0.5
74 4 0.579056 0.19558 0.5
45 3 0.788912 0.187476 0.5
65 4 0.861153 0.199918 0.5
10 1 0.935615 0.193265 0.5
73 4 0.0269071 0.227949 0.5
29 2 0.0330904 0.323355 0.5
69 4 0.0782182 0.278581 0.5
62 4 0.132517 0.308506 0.5
63 4 0.266156 0.284091 0.5
72 4 0.574383 0.29614 0.5
8 1 0.705707 0.318853 0.5
19 1 0.756076 0.242555 0.5
11 1 0.851337 0.273651 0.5
53 3 0.780875 0.340915 0.5
78 4 0.169717 0.334462 0.5
42 3 0.43918 0.312363 0.5
33 2 0.52863 0.351312 0.5
17 1 0.648328 0.296048 0.5
28 2 0.870133 0.361861 0.5
20 1 0.952438 0.35107 0.5
70 4 0.133897 0.406089 0.5
79 4 0.19825 0.414087 0.5
2 1 0.435778 0.386614 0.5
3 1 0.625704 0.408045 0.5
66 4 0.161448 0.463667 0.5
15 1 0.268356 0.445547 0.5
24 2 0.356223 0.426549 0.5
38 2 0.446483 0.464694 0.5
55 3 0.745316 0.450499 0.5
47 3 0.0114749 0.513128 0.5
52 3 0.642322 0.510666 0.5
27 2 0.802318 0.498245 0.5
12 1 0.912624 0.486659 0.5
60 3 0.191307 0.533537 0.5
80 4 0.23774 0.559351 0.5
36 2 0.29987 0.539806 0.5
13 1 0.464248 0.551743 0.5
77 4 0.396005 0.538708 0.5
6 1 0.0681999 0.592529 0.5
26 2 0.153307 0.592521 0.5
67 4 0.465501 0.611702 0.5
25 2 0.187235 0.643104 0.5
4 1 0.263358 0.680383 0.5
50 3 0.391083 0.669702 0.5
32 2 0.528033 0.634148 0.5
21 2 0.631501 0.637727 0.5
9 1 0.754707 0.672404 0.5
34 2 0.928177 0.65732 0.5
71 4 0.597115 0.705754 0.5
49 3 0.82088 0.724516 0.5
7 1 0.433117 0.743689 0.5
18 1 0.888821 0.70934 0.5
31 2 0.913239 0.783116 0.5
68 4 0.955008 0.7921 0.5
56 3 0.382732 0.826202 0.5
41 3 0.449167 0.831872 0.5
16 1 0.57308 0.800326 0.5
44 3 0.861745 0.818447 0.5
76 4 0.143542 0.848205 0.5
46 3 0.284463 0.871295 0.5
57 3 0.698928 0.8802 0.5
64 4 0.0536594 0.91199 0.5
40 2 0.0985068 0.90019 0.5
1 1 0.189928 0.924002 0.5
35 2 0.546527 0.894856 0.5
23 2 0.618155 0.93055 0.5
61 4 0.232368 0.980551 0.5
5 1 0.314272 0.925367 0.5
48 3 0.325246 1.00297 0.5
43 3 0.643425 0.989021 0.5
37 2 0.80831 0.962997 0.5
ITEM: TIMESTEP
120
ITEM: NUMBER OF ATOMS
80
ITEM: BOX BOUNDS pp pp pp
-6.3146312408525676e+00 6.3146312408525676e+00
-6.3146312408525676e+00 6.3146312408525676e+00
-1.0000000000000001e-01 1.0000000000000001e-01
ITEM: ATOMS id type xs ys zs
54 3 0.288699 0.0462247 0.5
22 2 0.855965 0.0376474 0.5
30 2 0.926666 0.0161171 0.5
58 3 0.987931 0.0273369 0.5
59 3 0.500133 0.0692031 0.5
39 2 0.580576 0.101644 0.5
14 1 0.6961 0.122327 0.5
75 4 0.619542 0.161154 0.5
51 3 0.813466 0.12287 0.5
74 4 0.579055 0.19558 0.5
45 3 0.789427 0.186213 0.5
65 4 0.857519 0.200029 0.5
10 1 0.939399 0.192828 0.5
73 4 0.0269071 0.227949 0.5
29 2 0.0308923 0.325989 0.5
69 4 0.0812526 0.275632 0.5
62 4 0.131726 0.307954 0.5
63 4 0.266156 0.284091 0.5
72 4 0.570652 0.293474 0.5
8 1 0.705143 0.32117 0.5
19 1 0.753492 0.237983 0.5
11 1 0.856492 0.269075 0.5
53 3 0.777573 0.345484 0.5
78 4 0.170508 0.335013 0.5
42 3 0.439351 0.309347 0.5
33 2 0.523646 0.351735 0.5
17 1 0.65219 0.291566 0.5
28 2 0.872525 0.366114 0.5
20 1 0.952791 0.351353 0.5
70 4 0.133897 0.406089 0.5
79 4 0.197824 0.413903 0.5
2 1 0.43608 0.386909 0.5
3 1 0.627709 0.414645 0.5
66 4 0.161448 0.463667 0.5
15 1 0.266518 0.445294 0.5
24 2 0.357055 0.426513 0.5
38 2 0.446841 0.465883 0.5
55 3 0.744071 0.449458 0.5
47 3 0.0114376 0.513039 0.5
52 3 0.642323 0.510672 0.5
27 2 0.80347 0.499295 0.5
12 1 0.912681 0.486641 0.5
60 3 0.190508 0.53204 0.5
80 4 0.238506 0.560197 0.5