LAMMPS data file via write_data, version 23 Jun 2022, timestep = 10000

80 atoms
4 atom types

-4.8211552574397185 4.8211552574397185 xlo xhi
-4.8211552574397185 4.8211552574397185 ylo yhi
-0.1 0.1 zlo zhi

Atoms # sphere

2 1 1.6 0.2441406249999999 -3.5321970288106925 -4.262812101428678 0 0 0 0
44 3 1 1 -2.307879117330045 -4.181106319243781 0 1 1 0
79 4 0.7 2.915451895043732 -1.4532287079164643 -4.446618484080252 0 1 1 0
68 4 0.7 2.915451895043732 -0.21327909488464591 -4.125893654070441 0 0 0 0
77 4 0.7 2.915451895043732 0.3431174399067496 -4.276171747751579 0 0 0 0
62 4 0.7 2.915451895043732 0.709997265211392 -4.7288136158625775 0 0 0 0
12 1 1.6 0.2441406249999999 1.720643549437927 -4.038121004382255 0 -1 0 0
29 2 1.3 0.4551661356395083 3.3381189981933233 -4.580465936948234 0 0 0 0
48 3 1 1 4.478956980702343 -4.126189434877242 0 0 0 0
24 2 1.3 0.4551661356395083 -4.492521204493519 -3.2935444402128375 0 1 0 0
28 2 1.3 0.4551661356395083 -2.9996435061606666 -3.175556352474266 0 0 0 0
30 2 1.3 0.4551661356395083 -3.934824287544978 -2.3212020883017472 0 0 1 0
78 4 0.7 2.915451895043732 -2.123104504390231 -3.134843980803417 0 1 0 0
66 4 0.7 2.915451895043732 -1.595056499945163 -2.683606489873635 0 0 0 0
7 1 1.6 0.2441406249999999 -1.0691175462422846 -3.4564050651328397 0 1 1 0
15 1 1.6 0.2441406249999999 0.486719753905982 -3.2133116929014047 0 0 0 0
46 3 1 1 1.8585771412657888 -2.7697587244529482 0 0 1 0
51 3 1 1 2.879208446549339 -3.6222413918882195 0 0 1 0
26 2 1.3 0.4551661356395083 3.941183319748914 -3.219982780867864 0 0 0 0
43 3 1 1 -4.536938936867737 -1.6300312908179562 0 1 0 0
18 1 1.6 0.2441406249999999 -2.484100389460393 -2.088386352780138 0 0 1 0
71 4 0.7 2.915451895043732 -1.1289690170194135 -2.3002427288995917 0 0 0 0
54 3 1 1 -0.42478098423201605 -2.0674808151212916 0 0 0 0
73 4 0.7 2.915451895043732 1.992234354918219 -1.9072526657689401 0 0 1 0
20 1 1.6 0.2441406249999999 0.8483545351444164 -1.7954466839785503 0 0 0 0
32 2 1.3 0.4551661356395083 2.784041454915691 -2.6380587331763587 0 0 0 0
9 1 1.6 0.2441406249999999 3.959003526300524 -1.824989836288771 0 0 0 0
75 4 0.7 2.915451895043732 4.776868796980361 -2.4907367983516617 0 -1 0 0
11 1 1.6 0.2441406249999999 4.651509501988539 -0.5380301095865736 0 0 0 0
3 1 1.6 0.2441406249999999 -3.4933701321593147 -1.0536461653003486 0 0 0 0
47 3 1 1 -2.370621357542993 -0.9683949971152823 0 0 1 0
39 2 1.3 0.4551661356395083 -1.3223249411929752 -1.4216906832234044 0 0 0 0
63 4 0.7 2.915451895043732 0.45912878418916225 -0.6971154071321655 0 0 0 0
60 3 1 1 1.6345049697459748 -1.1001737461136272 0 0 1 0
37 2 1.3 0.4551661356395083 2.738603373028269 -1.3793029036119253 0 0 0 0
61 4 0.7 2.915451895043732 3.4952694645974294 -0.7547026576682399 0 0 0 0
6 1 1.6 0.2441406249999999 -3.337930776314596 0.5318837366532723 0 0 0 0
35 2 1.3 0.4551661356395083 -2.0433809204909514 -0.04317059863694972 0 0 1 0
25 2 1.3 0.4551661356395083 -0.7976019751903181 -0.18318644886301882 0 0 0 0
45 3 1 1 -0.21146466394075336 -1.1405423474371998 0 0 0 0
59 3 1 1 1.1387340401593784 -0.28895506015256434 0 -1 0 0
31 2 1.3 0.4551661356395083 2.123283205824367 -0.28223274481755034 0 0 0 0
36 2 1.3 0.4551661356395083 3.2208960839826073 0.07891901897345033 0 0 0 0
76 4 0.7 2.915451895043732 4.04758247078704 0.37784684963114845 0 0 0 0
70 4 0.7 2.915451895043732 -4.532094836221991 0.3948155814382206 0 0 0 0
64 4 0.7 2.915451895043732 -4.361977582449353 1.057481660145184 0 0 -1 0
17 1 1.6 0.2441406249999999 -1.361970008386598 1.0689552216823808 0 0 0 0
72 4 0.7 2.915451895043732 -0.33374164714685683 0.7821858851669257 0 0 0 0
56 3 1 1 0.12992411888154543 0.020150403611351564 0 0 0 0
34 2 1.3 0.4551661356395083 0.7072289381411112 0.9370471862303233 0 0 -1 0
21 2 1.3 0.4551661356395083 1.917823059531325 0.7502797675645958 0 0 0 0
16 1 1.6 0.2441406249999999 3.3350214461094563 1.4500482208203387 0 -1 0 0
58 3 1 1 4.522967058436668 1.0473783785067274 0 -1 0 0
49 3 1 1 -3.7560794169083564 1.617449669104909 0 0 0 0
4 1 1.6 0.2441406249999999 -2.5289405349639247 1.8869389880986471 0 0 0 0
27 2 1.3 0.4551661356395083 -1.2418093594358082 2.4513724241134875 0 0 0 0
23 2 1.3 0.4551661356395083 -0.28143338892345504 1.7574954014183177 0 0 -1 0
41 3 1 1 0.757947231526571 1.8832375609766423 0 0 0 0
67 4 0.7 2.915451895043732 1.0380796876872278 2.638641498614523 0 0 -1 0
19 1 1.6 0.2441406249999999 2.06617711635036 2.0588881008888933 0 0 0 0
74 4 0.7 2.915451895043732 3.614828225123256 2.529455288666087 0 -1 0 0
8 1 1.6 0.2441406249999999 4.79638775229812 2.268047713409411 0 0 0 0
53 3 1 1 -3.7118682425491816 2.6550369501050968 0 0 0 0
13 1 1.6 0.2441406249999999 -2.6624847753598897 3.2739599728754776 0 0 1 0
38 2 1.3 0.4551661356395083 -1.1327029079160136 3.5663477180735317 0 0 0 0
10 1 1.6 0.2441406249999999 0.10049015020471685 3.0336783617890974 0 0 0 0
14 1 1.6 0.2441406249999999 1.7671763896884913 3.569546467211133 0 0 0 0
42 3 1 1 2.8856902856558255 2.902141344217176 0 0 0 0
52 3 1 1 3.864434168410309 3.0900417499045796 0 0 0 0
80 4 0.7 2.915451895043732 4.587484165741245 3.3951832049876334 0 -1 0 0
5 1 1.6 0.2441406249999999 -4.145364302242051 3.8516101068701616 0 0 0 0
50 3 1 1 -2.986777752211958 4.423997336314098 0 0 0 0
33 2 1.3 0.4551661356395083 -1.9970365897442077 4.387813113290816 0 0 -1 0
1 1 1.6 0.2441406249999999 -0.32063735308114705 4.551140776464079 0 0 -1 0
65 4 0.7 2.915451895043732 1.4277223311937561 4.5841240434027455 0 0 0 0
55 3 1 1 0.6192519283083104 4.115363395090197 0 0 0 0
57 3 1 1 2.4606980195875554 4.554987215904175 0 0 -1 0
40 2 1.3 0.4551661356395083 3.277611302710575 3.8821172527637895 0 0 0 0
69 4 0.7 2.915451895043732 -4.641294460712853 -4.570855221977611 0 0 0 0
22 2 1.3 0.4551661356395083 4.280118426033985 4.4823492387215715 0 0 0 0

Velocities

2 -0.03864448607207283 -0.16841661638269417 0 0 0 0
44 0.0814588851871501 -0.11511608433901208 0 0 0 0
79 0.03323295161051448 0.0033424034502842685 0 0 0 0
68 -0.04338086809591905 0.16829532776775244 0 0 0 0
77 -0.02558134686568293 0.13605820740422225 0 0 0 0
62 -0.1697759162162394 0.012790122635610225 0 0 0 0
12 -0.10167725228826652 -0.04288961603198709 0 0 0 0
29 0.1339257049343034 0.13963469317952462 0 0 0 0
48 0.13487729518241026 -0.05112572840477736 0 0 0 0
24 0.10955681669467365 -0.12972889121505027 0 0 0 0
28 0.06327597519423928 0.23613845044312534 0 0 0 0
30 0.059088484579310714 -0.056187565309399605 0 0 0 0
78 -0.09862896461086884 -0.12220077216860223 0 0 0 0
66 -0.17155657108460576 -0.10605512535496485 0 0 0 0
7 0.09609454958148193 0.08355215694467755 0 0 0 0
15 0.16279859079906053 -0.019874965895864828 0 0 0 0
46 0.04485651006505745 -0.07418656784322183 0 0 0 0
51 -0.05216861809172509 0.19772613038103623 0 0 0 0
26 0.16624591518573498 -0.02401823268277678 0 0 0 0
43 0.02617966704963923 0.013021194487298365 0 0 0 0
18 0.07439826686049643 0.12898236336327223 0 0 0 0
71 -0.05057442539980838 -0.008416131463016544 0 0 0 0
54 0.010120958790241018 0.03533414317088103 0 0 0 0
73 -0.053741644768727004 -0.16503773156107918 0 0 0 0
20 -0.14783715630468458 0.05685056345350526 0 0 0 0
32 -5.898395013901102e-05 -0.14498536619712488 0 0 0 0
9 -0.12353118772573267 -0.007627647445005664 0 0 0 0
75 -0.08555962415229561 0.17823160871020904 0 0 0 0
11 -0.2794123331414613 0.02422048343118783 0 0 0 0
3 -0.16501428259862227 0.10061901129026009 0 0 0 0
47 0.03654068229800447 -0.027298283892900208 0 0 0 0
39 -0.1120842638770527 -0.020386876658853303 0 0 0 0
63 -0.06269371815862385 0.07458698924091042 0 0 0 0
60 -0.007058071580666727 0.33570931968153594 0 0 0 0
37 0.12727096439011784 0.005881696952221583 0 0 0 0
61 0.008608537142748398 0.013344869781932778 0 0 0 0
6 -0.04652259692424062 -0.10985855859553742 0 0 0 0
35 -0.08561399058805766 0.16683548140840743 0 0 0 0
25 0.05568932239324505 -0.19751770827338833 0 0 0 0
45 -0.10290028867392335 -0.18829286381008173 0 0 0 0
59 0.08153433531952779 -0.13881212153132277 0 0 0 0
31 0.07768048362111268 -0.2060300212293754 0 0 0 0
36 -0.024986202206640735 0.0890946997477762 0 0 0 0
76 0.09456985405192836 0.03556721789907913 0 0 0 0
70 -0.039479711301930835 -0.1342268768248103 0 0 0 0
64 -0.16161527762264777 0.03789296897501493 0 0 0 0
17 0.16932813906063726 -0.11099615582670377 0 0 0 0
72 0.06763276789611804 -0.08545392271047826 0 0 0 0
56 -0.019754086290575183 -0.2237603473676097 0 0 0 0
34 -0.0022609586858739305 0.02549663236122988 0 0 0 0
21 -0.22301985925902443 0.007723770686643787 0 0 0 0
16 -0.0636617039956275 0.20834332215600512 0 0 0 0
58 0.12196707371343225 0.12050883552740214 0 0 0 0
49 0.11832495661254638 0.06615997537652402 0 0 0 0
4 0.10899822105592778 -0.052091863685373045 0 0 0 0
27 -0.08213833373890306 0.12086008496641762 0 0 0 0
23 0.07339456610201883 0.002664260753949537 0 0 0 0
41 0.05324037680748593 0.03576072714826419 0 0 0 0
67 0.02081121584888701 -0.1344478469757891 0 0 0 0
19 0.05243858912394167 0.0038683387090352192 0 0 0 0
74 0.12942897214258456 -0.10463920567158635 0 0 0 0
8 0.006812924652316826 -0.030348532679989215 0 0 0 0
53 0.024346537115406717 0.20813019986592549 0 0 0 0
13 0.007541482714487256 0.10012639027880511 0 0 0 0
38 -0.11339811923124343 -0.2178219205037827 0 0 0 0
10 -0.10302222590769276 0.0006325393332348233 0 0 0 0
14 0.2358244239036609 0.08492118255453021 0 0 0 0
42 0.1679917158744569 0.13413676357444915 0 0 0 0
52 0.0012677610737994638 -0.06227441728538067 0 0 0 0
80 -0.01728046278521285 0.099093151573397 0 0 0 0
5 -0.006905396689913797 -0.042424202323128324 0 0 0 0
50 -0.16805016848698234 -0.19858500905813808 0 0 0 0
33 0.11348088308317246 -0.12944701863032373 0 0 0 0
1 -0.010727046360649885 0.07923189188600058 0 0 0 0
65 -0.1293975130398714 0.08524787522092092 0 0 0 0
55 -0.08049711537249275 -0.0453184787366027 0 0 0 0
57 0.04948114659106699 0.040432025283530446 0 0 0 0
40 0.09572865475698204 -0.09533664525575744 0 0 0 0
69 0.06392723632719584 0.10270706971245086 0 0 0 0
22 -0.08976162324241105 -0.008519220946951121 0 0 0 0
