ITEM: TIMESTEP
0
ITEM: NUMBER OF ATOMS
80
ITEM: BOX BOUNDS pp pp pp
-1.0000000000000000e+01 1.0000000000000000e+01
-1.0000000000000000e+01 1.0000000000000000e+01
-1.0000000000000001e-01 1.0000000000000001e-01
ITEM: ATOMS id type xs ys zs
64 4 0.19135 0.0245696 0.5
15 1 0.367646 0.0338597 0.5
33 2 0.400013 0.0246262 0.5
29 2 0.79723 0.0383888 0.5
67 4 0.92545 0.0432832 0.5
34 2 0.979473 0.00916636 0.5
59 3 0.061883 0.0671464 0.5
54 3 0.697869 0.0896969 0.5
9 1 0.763495 0.0664986 0.5
71 4 0.47606 0.13815 0.5
68 4 0.647178 0.117314 0.5
28 2 0.494864 0.185795 0.5
76 4 0.787837 0.169987 0.5
12 1 0.0134003 0.21924 0.5
38 2 0.21308 0.231189 0.5
62 4 0.471127 0.22921 0.5
61 4 0.672295 0.257162 0.5
63 4 0.940098 0.221916 0.5
2 1 0.07451 0.29009 0.5
75 4 0.20392 0.289198 0.5
49 3 0.444892 0.296293 0.5
20 1 0.678307 0.30016 0.5
23 2 0.647187 0.273638 0.5
78 4 0.81908 0.276358 0.5
66 4 0.128596 0.318473 0.5
57 3 0.250569 0.317574 0.5
77 4 0.675337 0.383381 0.5
36 2 0.822003 0.407745 0.5
3 1 0.158294 0.440399 0.5
69 4 0.284194 0.450604 0.5
4 1 0.429192 0.430121 0.5
43 3 0.871211 0.44764 0.5
80 4 0.0409659 0.514184 0.5
31 2 0.326382 0.507458 0.5
27 2 0.456389 0.524975 0.5
41 3 0.523265 0.519453 0.5
39 2 0.547182 0.489275 0.5
25 2 0.87068 0.513189 0.5
37 2 0.873178 0.502592 0.5
24 2 0.7449 0.528339 0.5
53 3 0.453776 0.621572 0.5
48 3 0.962493 0.623163 0.5
42 3 0.330615 0.638557 0.5
56 3 0.64477 0.646932 0.5
74 4 0.0336582 0.694181 0.5
6 1 0.195617 0.726564 0.5
1 1 0.213643 0.697378 0.5
46 3 0.723729 0.706022 0.5
26 2 0.74247 0.694054 0.5
10 1 0.00676823 0.753569 0.5
58 3 0.077573 0.769286 0.5
17 1 0.188597 0.750801 0.5
52 3 0.535359 0.779904 0.5
32 2 0.582065 0.760734 0.5
51 3 0.884974 0.761994 0.5
5 1 0.190148 0.819177 0.5
35 2 0.191399 0.836939 0.5
13 1 0.222279 0.838758 0.5
14 1 0.249943 0.791733 0.5
16 1 0.473007 0.821907 0.5
50 3 0.473244 0.814029 0.5
40 2 0.54845 0.800972 0.5
72 4 0.633773 0.823152 0.5
30 2 0.0687742 0.887355 0.5
70 4 0.379892 0.844025 0.5
45 3 0.541195 0.859087 0.5
22 2 0.62604 0.8511 0.5
8 1 0.639427 0.850982 0.5
19 1 0.867309 0.861053 0.5
44 3 0.932997 0.887606 0.5
55 3 0.485746 0.936837 0.5
60 3 0.510735 0.92041 0.5
7 1 0.664539 0.90348 0.5
21 2 0.743078 0.911269 0.5
18 1 0.519842 0.979798 0.5
73 4 0.652166 0.954133 0.5
47 3 0.697504 0.9511 0.5
65 4 0.745165 0.982701 0.5
79 4 0.743378 0.95297 0.5
11 1 0.918663 0.974562 0.5
ITEM: TIMESTEP
10
ITEM: NUMBER OF ATOMS
80
ITEM: BOX BOUNDS pp pp pp
-9.2750640078679432e+00 9.2750640078679432e+00
-9.2750640078679432e+00 9.2750640078679432e+00
-1.0000000000000001e-01 1.0000000000000001e-01
ITEM: ATOMS id type xs ys zs
64 4 0.19135 0.0245696 0.5
15 1 0.367508 0.0338993 0.5
33 2 0.400152 0.0245866 0.5
29 2 0.797312 0.0383203 0.5
67 4 0.92545 0.0432832 0.5
34 2 0.979484 0.00917267 0.5
59 3 0.061883 0.0671464 0.5
54 3 0.697869 0.0896969 0.5
9 1 0.763413 0.0665672 0.5
71 4 0.47606 0.13815 0.5
68 4 0.647178 0.117314 0.5
28 2 0.494867 0.185792 0.5
76 4 0.787837 0.169987 0.5
12 1 0.0134003 0.21924 0.5
38 2 0.21308 0.231189 0.5
62 4 0.471125 0.229214 0.5
61 4 0.67235 0.257068 0.5
63 4 0.940098 0.221916 0.5
2 1 0.07451 0.29009 0.5
75 4 0.20392 0.289198 0.5
49 3 0.444892 0.296293 0.5
20 1 0.678404 0.30029 0.5
23 2 0.647035 0.273603 0.5
78 4 0.81908 0.276358 0.5
66 4 0.128596 0.318473 0.5
57 3 0.250569 0.317574 0.5
77 4 0.675337 0.383381 0.5
36 2 0.822003 0.407745 0.5
3 1 0.158294 0.440399 0.5
69 4 0.284194 0.450604 0.5
4 1 0.429192 0.430121 0.5
43 3 0.871211 0.447627 0.5
80 4 0.0409659 0.514184 0.5
31 2 0.326382 0.507458 0.5
27 2 0.456389 0.524975 0.5
41 3 0.523221 0.519509 0.5
39 2 0.547227 0.489219 0.5
25 2 0.870634 0.513383 0.5
37 2 0.873224 0.50241 0.5
24 2 0.7449 0.528339 0.5
53 3 0.453776 0.621572 0.5
48 3 0.962493 0.623163 0.5
42 3 0.330615 0.638557 0.5
56 3 0.64477 0.646932 0.5
74 4 0.0336582 0.694181 0.5
6 1 0.195584 0.726514 0.5
1 1 0.213766 0.697162 0.5
46 3 0.723619 0.706092 0.5
26 2 0.74258 0.693984 0.5
10 1 0.00676823 0.753569 0.5
58 3 0.077573 0.769286 0.5
17 1 0.188484 0.751007 0.5
52 3 0.535269 0.779812 0.5
32 2 0.582122 0.760686 0.5
51 3 0.884974 0.761994 0.5
5 1 0.18995 0.818964 0.5
35 2 0.191258 0.837132 0.5
13 1 0.222518 0.838932 0.5
14 1 0.250065 0.791642 0.5
16 1 0.473 0.822117 0.5
50 3 0.47325 0.813819 0.5
40 2 0.548483 0.801111 0.5
72 4 0.633772 0.822971 0.5
30 2 0.0687742 0.887355 0.5
70 4 0.379892 0.844025 0.5
45 3 0.541195 0.859088 0.5
22 2 0.625783 0.851152 0.5
8 1 0.63963 0.851012 0.5
19 1 0.867309 0.861053 0.5
44 3 0.932997 0.887606 0.5
55 3 0.485659 0.936847 0.5
60 3 0.510795 0.920348 0.5
7 1 0.664582 0.903534 0.5
21 2 0.743078 0.911237 0.5
18 1 0.51987 0.97985 0.5
73 4 0.652161 0.954155 0.5
47 3 0.69752 0.951124 0.5
65 4 0.745166 0.982722 0.5
79 4 0.743377 0.952982 0.5
11 1 0.918652 0.974555 0.5
ITEM: TIMESTEP
20
ITEM: NUMBER OF ATOMS
80
ITEM: BOX BOUNDS pp pp pp
-8.3647251893240089e+00 8.3647251893240089e+00
-8.3647251893240089e+00 8.3647251893240089e+00
-1.0000000000000001e-01 1.0000000000000001e-01
ITEM: ATOMS id type xs ys zs
64 4 0.19135 0.0245696 0.5
15 1 0.367009 0.0340414 0.5
33 2 0.40065 0.0244444 0.5
29 2 0.797615 0.038068 0.5
67 4 0.92545 0.0432832 0.5
34 2 0.979553 0.00921154 0.5
59 3 0.061883 0.0671464 0.5
54 3 0.697858 0.089701 0.5
9 1 0.763122 0.0668153 0.5
71 4 0.476052 0.138129 0.5
68 4 0.647178 0.117314 0.5
28 2 0.494894 0.185778 0.5
76 4 0.787837 0.169987 0.5
12 1 0.0134002 0.21924 0.5
38 2 0.21308 0.231189 0.5
62 4 0.471106 0.229249 0.5
61 4 0.672551 0.256712 0.5
63 4 0.940098 0.221916 0.5
2 1 0.074499 0.290084 0.5
75 4 0.20392 0.289198 0.5
49 3 0.444892 0.296293 0.5
20 1 0.67876 0.300774 0.5
23 2 0.646478 0.273474 0.5
78 4 0.81908 0.276358 0.5
66 4 0.128607 0.318479 0.5
57 3 0.250569 0.317574 0.5
77 4 0.675337 0.383381 0.5
36 2 0.822 0.407742 0.5
3 1 0.158294 0.440399 0.5
69 4 0.284194 0.450604 0.5
4 1 0.429192 0.430121 0.5
43 3 0.871212 0.44756 0.5
80 4 0.0409659 0.514184 0.5
31 2 0.326382 0.507458 0.5
27 2 0.456389 0.524975 0.5
41 3 0.523054 0.519719 0.5
39 2 0.547393 0.489009 0.5
25 2 0.870474 0.514063 0.5
37 2 0.873387 0.501801 0.5
24 2 0.7449 0.528339 0.5
53 3 0.453776 0.621572 0.5
48 3 0.962493 0.623163 0.5
42 3 0.330615 0.638557 0.5
56 3 0.64477 0.646932 0.5
74 4 0.0336588 0.694179 0.5
6 1 0.195452 0.726327 0.5
1 1 0.214215 0.69637 0.5
46 3 0.723227 0.706342 0.5
26 2 0.742972 0.693733 0.5
10 1 0.00676451 0.75357 0.5
58 3 0.0775761 0.769287 0.5
17 1 0.188043 0.751702 0.5
52 3 0.534927 0.77949 0.5
32 2 0.58236 0.76049 0.5
51 3 0.884974 0.761994 0.5
5 1 0.18922 0.818252 0.5
35 2 0.190735 0.837827 0.5
13 1 0.223366 0.83957 0.5
14 1 0.250593 0.791303 0.5
16 1 0.472968 0.822854 0.5
50 3 0.473273 0.813084 0.5
40 2 0.548601 0.801598 0.5
72 4 0.633771 0.822313 0.5
30 2 0.0687742 0.887355 0.5
70 4 0.379892 0.844025 0.5
45 3 0.541191 0.859117 0.5
22 2 0.62486 0.851325 0.5
8 1 0.640337 0.851098 0.5
19 1 0.867302 0.86105 0.5
44 3 0.933004 0.887608 0.5
55 3 0.485324 0.936869 0.5
60 3 0.51101 0.920096 0.5
7 1 0.664743 0.903725 0.5
21 2 0.743097 0.911094 0.5
18 1 0.519988 0.98008 0.5
73 4 0.652128 0.954256 0.5
47 3 0.697585 0.951239 0.5
65 4 0.745171 0.982808 0.5
79 4 0.743379 0.953029 0.5
11 1 0.918584 0.974517 0.5
ITEM: TIMESTEP
30
ITEM: NUMBER OF ATOMS
80
ITEM: BOX BOUNDS pp pp pp
-7.7011718831861504e+00 7.7011718831861504e+00
-7.7011718831861504e+00 7.7011718831861504e+00
-1.0000000000000001e-01 1.0000000000000001e-01
ITEM: ATOMS id type xs ys zs
64 4 0.19135 0.0245696 0.5
15 1 0.366041 0.0343178 0.5
33 2 0.401619 0.0241681 0.5
29 2 0.798217 0.0375659 0.5
67 4 0.925451 0.043289 0.5
34 2 0.979741 0.00931872 0.5
59 3 0.061883 0.0671464 0.5
54 3 0.697784 0.0897268 0.5
9 1 0.762593 0.0672916 0.5
71 4 0.476019 0.138046 0.5
68 4 0.647178 0.117314 0.5
28 2 0.494986 0.185753 0.5
76 4 0.787837 0.169987 0.5
12 1 0.0133875 0.219225 0.5
38 2 0.213081 0.231178 0.5
62 4 0.471047 0.229356 0.5
61 4 0.672947 0.255992 0.5
63 4 0.940098 0.221916 0.5
2 1 0.0744488 0.290066 0.5
75 4 0.203919 0.289209 0.5
49 3 0.444892 0.296293 0.5
20 1 0.679466 0.301747 0.5
23 2 0.645376 0.273222 0.5
78 4 0.81908 0.276358 0.5
66 4 0.12867 0.318512 0.5
57 3 0.250569 0.317574 0.5
77 4 0.675337 0.383381 0.5
36 2 0.821964 0.407714 0.5
3 1 0.158294 0.440399 0.5
69 4 0.284194 0.450604 0.5
4 1 0.429192 0.430121 0.5
43 3 0.87124 0.447379 0.5
80 4 0.0409659 0.514184 0.5
31 2 0.326382 0.507458 0.5
27 2 0.456372 0.524977 0.5
41 3 0.522734 0.520142 0.5
39 2 0.54773 0.488585 0.5
25 2 0.870168 0.515369 0.5
37 2 0.8737 0.500704 0.5
24 2 0.7449 0.528339 0.5
53 3 0.453776 0.621572 0.5
48 3 0.962493 0.623163 0.5
42 3 0.330615 0.638557 0.5
56 3 0.64477 0.646932 0.5
74 4 0.0336703 0.694154 0.5
6 1 0.195153 0.725902 0.5
1 1 0.215102 0.694808 0.5
46 3 0.722471 0.706824 0.5
26 2 0.743727 0.693251 0.5
10 1 0.00671224 0.753586 0.5
58 3 0.0776169 0.769296 0.5
17 1 0.187115 0.752938 0.5
52 3 0.534242 0.77887 0.5
32 2 0.582882 0.760066 0.5
51 3 0.884974 0.761994 0.5
5 1 0.187761 0.817011 0.5
35 2 0.189682 0.839199 0.5
13 1 0.224994 0.840848 0.5
14 1 0.251817 0.790644 0.5
16 1 0.472833 0.824267 0.5
50 3 0.473315 0.811696 0.5
40 2 0.548861 0.802498 0.5
72 4 0.633768 0.821031 0.5
30 2 0.0687742 0.887355 0.5
70 4 0.379892 0.844025 0.5
45 3 0.541185 0.859236 0.5
22 2 0.623063 0.851626 0.5
8 1 0.641663 0.851224 0.5
19 1 0.867248 0.861028 0.5
44 3 0.933059 0.88763 0.5
55 3 0.484638 0.936884 0.5
60 3 0.511432 0.919549 0.5
7 1 0.665035 0.904083 0.5
21 2 0.743221 0.910756 0.5
18 1 0.520253 0.980611 0.5
73 4 0.652021 0.9545 0.5
47 3 0.697703 0.951536 0.5
65 4 0.745183 0.983001 0.5
79 4 0.743413 0.953131 0.5
11 1 0.918395 0.974404 0.5
ITEM: TIMESTEP
40
ITEM: NUMBER OF ATOMS
80
ITEM: BOX BOUNDS pp pp pp
-7.2373173383467861e+00 7.2373173383467861e+00
-7.2373173383467861e+00 7.2373173383467861e+00
-1.0000000000000001e-01 1.0000000000000001e-01
ITEM: ATOMS id type xs ys zs
64 4 0.19135 0.0245696 0.5
15 1 0.364516 0.0347527 0.5
33 2 0.403144 0.0237332 0.5
29 2 0.799183 0.0367604 0.5
67 4 0.925448 0.0433386 0.5
34 2 0.980116 0.00952307 0.5
59 3 0.061883 0.0671464 0.5
54 3 0.69759 0.0897942 0.5
9 1 0.761821 0.0680297 0.5
71 4 0.475944 0.137858 0.5
68 4 0.647178 0.117314 0.5
28 2 0.495182 0.18572 0.5
76 4 0.787837 0.169987 0.5
12 1 0.0133362 0.219151 0.5
38 2 0.21309 0.231122 0.5
62 4 0.470925 0.229578 0.5
61 4 0.673578 0.254826 0.5
63 4 0.940086 0.221917 0.5
2 1 0.0743528 0.290056 0.5
75 4 0.203904 0.289261 0.5
49 3 0.444892 0.296293 0.5
20 1 0.680591 0.303313 0.5
23 2 0.64362 0.272822 0.5
78 4 0.81908 0.276358 0.5
66 4 0.12883 0.318596 0.5
57 3 0.250575 0.317578 0.5
77 4 0.675337 0.383381 0.5
36 2 0.821859 0.407629 0.5
3 1 0.158294 0.440399 0.5
69 4 0.284194 0.450604 0.5
4 1 0.429192 0.430121 0.5
43 3 0.87133 0.447019 0.5
80 4 0.0409659 0.514184 0.5
31 2 0.326382 0.507458 0.5
27 2 0.456295 0.524982 0.5
41 3 0.522266 0.520826 0.5
39 2 0.548276 0.487896 0.5
25 2 0.869695 0.517424 0.5
37 2 0.874188 0.499095 0.5
24 2 0.7449 0.528339 0.5
53 3 0.453776 0.621572 0.5
48 3 0.962493 0.623163 0.5
42 3 0.330615 0.638557 0.5
56 3 0.64477 0.646932 0.5
74 4 0.0337117 0.694063 0.5
6 1 0.194622 0.725104 0.5
1 1 0.216515 0.692316 0.5
46 3 0.721291 0.707578 0.5
26 2 0.744907 0.692498 0.5
10 1 0.00654054 0.753649 0.5
58 3 0.0777472 0.769325 0.5
17 1 0.185547 0.754654 0.5
52 3 0.53316 0.777885 0.5
32 2 0.583777 0.759344 0.5
51 3 0.884974 0.761994 0.5
5 1 0.185421 0.815291 0.5
35 2 0.187992 0.841416 0.5
13 1 0.227539 0.842941 0.5
14 1 0.253988 0.789629 0.5
16 1 0.472457 0.826469 0.5
50 3 0.473383 0.809563 0.5
40 2 0.54933 0.803848 0.5
72 4 0.633763 0.819013 0.5
30 2 0.0687742 0.887355 0.5
70 4 0.379892 0.844025 0.5
45 3 0.541211 0.859523 0.5
22 2 0.620226 0.852059 0.5
8 1 0.643697 0.851357 0.5
19 1 0.867094 0.860966 0.5
44 3 0.933212 0.887692 0.5
55 3 0.483511 0.936875 0.5
60 3 0.512099 0.918623 0.5
7 1 0.665449 0.90463 0.5
21 2 0.743551 0.910144 0.5
18 1 0.520712 0.981548 0.5
73 4 0.651787 0.954946 0.5
47 3 0.697878 0.952098 0.5
65 4 0.745203 0.983339 0.5
79 4 0.743516 0.953303 0.5
11 1 0.918023 0.97415 0.5
ITEM: TIMESTEP
50
ITEM: NUMBER OF ATOMS
80
ITEM: BOX BOUNDS pp pp pp
-6.9413606786351387e+00 6.9413606786351387e+00
-6.9413606786351387e+00 6.9413606786351387e+00
-1.0000000000000001e-01 1.0000000000000001e-01
ITEM: ATOMS id type xs ys zs
64 4 0.19135 0.0245696 0.5
15 1 0.362412 0.0353529 0.5
33 2 0.405248 0.023133 0.5
29 2 0.800537 0.0356307 0.5
67 4 0.925424 0.0434806 0.5
34 2 0.980738 0.0098335 0.5
59 3 0.061883 0.0671464 0.5
54 3 0.697235 0.0899145 0.5
9 1 0.760831 0.0690343 0.5
71 4 0.475814 0.137533 0.5
68 4 0.647169 0.117319 0.5
28 2 0.495512 0.18568 0.5
76 4 0.787837 0.169987 0.5
12 1 0.0132436 0.218976 0.5
38 2 0.213111 0.230988 0.5
62 4 0.470725 0.229942 0.5
61 4 0.674455 0.253191 0.5
63 4 0.940029 0.221919 0.5
2 1 0.0742118 0.290077 0.5
75 4 0.203851 0.289376 0.5
49 3 0.444892 0.296293 0.5
20 1 0.682159 0.305498 0.5
23 2 0.641175 0.272267 0.5
78 4 0.81908 0.276358 0.5
66 4 0.12912 0.318748 0.5
57 3 0.250607 0.317597 0.5
77 4 0.675336 0.383385 0.5
36 2 0.821652 0.407463 0.5
3 1 0.158294 0.440399 0.5
69 4 0.284194 0.450604 0.5
4 1 0.429189 0.430109 0.5
43 3 0.871512 0.446433 0.5
80 4 0.0409659 0.514184 0.5
31 2 0.326382 0.507458 0.5
27 2 0.456118 0.525007 0.5
41 3 0.521674 0.521788 0.5
39 2 0.549047 0.486921 0.5
25 2 0.869048 0.520259 0.5
37 2 0.874861 0.497011 0.5
24 2 0.7449 0.528339 0.5
53 3 0.453776 0.621572 0.5
48 3 0.962493 0.623163 0.5
42 3 0.330615 0.638557 0.5
56 3 0.64477 0.646932 0.5
74 4 0.0337988 0.693871 0.5
6 1 0.193822 0.723838 0.5
1 1 0.21848 0.688826 0.5
46 3 0.719672 0.708612 0.5
26 2 0.746526 0.691464 0.5
10 1 0.00619156 0.753782 0.5
58 3 0.0780091 0.769383 0.5
17 1 0.183257 0.756723 0.5
52 3 0.531682 0.7765 0.5
32 2 0.585088 0.758291 0.5
51 3 0.884974 0.761994 0.5
5 1 0.182149 0.81321 0.5
35 2 0.185649 0.844551 0.5
13 1 0.231031 0.845921 0.5
14 1 0.257237 0.788281 0.5
16 1 0.471721 0.829485 0.5
50 3 0.473453 0.806682 0.5
40 2 0.550047 0.805608 0.5
72 4 0.633751 0.816242 0.5
30 2 0.0687742 0.887355 0.5
70 4 0.379892 0.844025 0.5
45 3 0.541304 0.860027 0.5
22 2 0.616331 0.852625 0.5
8 1 0.646455 0.851448 0.5
19 1 0.866802 0.860848 0.5
44 3 0.933507 0.887795 0.5
55 3 0.481905 0.936827 0.5
60 3 0.513015 0.917295 0.5
7 1 0.665961 0.905365 0.5
21 2 0.744164 0.909207 0.5
18 1 0.521392 0.982946 0.5
73 4 0.651387 0.955636 0.5
47 3 0.698094 0.952982 0.5
65 4 0.745246 0.983851 0.5
79 4 0.743715 0.953551 0.5
11 1 0.917422 0.973713 0.5
ITEM: TIMESTEP
60
ITEM: NUMBER OF ATOMS
80
ITEM: BOX BOUNDS pp pp pp
-6.7592358976597984e+00 6.7592358976597984e+00
-6.7592358976597984e+00 6.7592358976597984e+00
-1.0000000000000001e-01 1.0000000000000001e-01
ITEM: ATOMS id type xs ys zs
64 4 0.19135 0.0245696 0.5
15 1 0.359753 0.0361115 0.5
33 2 0.407907 0.0223743 0.5
29 2 0.802271 0.0341823 0.5
67 4 0.925365 0.0437468 0.5
34 2 0.981641 0.0102496 0.5
59 3 0.061883 0.0671464 0.5
54 3 0.696701 0.0900882 0.5
9 1 0.759666 0.07029 0.5
71 4 0.475622 0.137055 0.5
68 4 0.647134 0.117338 0.5
28 2 0.495991 0.185637 0.5
76 4 0.787837 0.169987 0.5
12 1 0.0131126 0.218671 0.5
38 2 0.213148 0.230755 0.5
62 4 0.470437 0.230463 0.5
61 4 0.67557 0.251115 0.5
63 4 0.939902 0.221924 0.5
2 1 0.0740291 0.290147 0.5
75 4 0.203741 0.289565 0.5
49 3 0.444892 0.296293 0.5
20 1 0.684154 0.308244 0.5
23 2 0.638068 0.27156 0.5
78 4 0.81908 0.276358 0.5
66 4 0.129561 0.318979 0.5
57 3 0.25068 0.317641 0.5
77 4 0.675333 0.383422 0.5
36 2 0.821322 0.4072 0.5
3 1 0.158294 0.440399 0.5
69 4 0.284189 0.450597 0.5
4 1 0.429174 0.430057 0.5
43 3 0.871801 0.445602 0.5
80 4 0.0409659 0.514184 0.5
31 2 0.326388 0.507465 0.5
27 2 0.455818 0.525077 0.5
41 3 0.520994 0.523027 0.5
39 2 0.550041 0.485663 0.5
25 2 0.868233 0.523834 0.5
37 2 0.875716 0.494529 0.5
24 2 0.7449 0.528339 0.5
53 3 0.453776 0.621572 0.5
48 3 0.962493 0.623163 0.5
42 3 0.330615 0.638557 0.5
56 3 0.64477 0.646932 0.5
74 4 0.0339417 0.693559 0.5
6 1 0.192747 0.722058 0.5
1 1 0.220983 0.684375 0.5
46 3 0.717635 0.709913 0.5
26 2 0.748563 0.690163 0.5
10 1 0.00562987 0.754003 0.5
58 3 0.0784279 0.769475 0.5
17 1 0.180239 0.75901 0.5
52 3 0.529852 0.774704 0.5
32 2 0.586813 0.756907 0.5
51 3 0.884974 0.761994 0.5
5 1 0.177986 0.81092 0.5
35 2 0.182711 0.84858 0.5
13 1 0.235411 0.849766 0.5
14 1 0.261549 0.786642 0.5
16 1 0.470559 0.833271 0.5
50 3 0.473483 0.803121 0.5
40 2 0.551006 0.807688 0.5
72 4 0.633727 0.812773 0.5
30 2 0.0687742 0.887355 0.5
70 4 0.379892 0.844025 0.5
45 3 0.541459 0.860762 0.5
22 2 0.611509 0.853335 0.5
8 1 0.649902 0.851442 0.5
19 1 0.866348 0.860665 0.5
44 3 0.933972 0.88792 0.5
55 3 0.479823 0.936731 0.5
60 3 0.514158 0.915601 0.5
7 1 0.666535 0.906273 0.5
21 2 0.745105 0.907924 0.5
18 1 0.522294 0.984811 0.5
73 4 0.650797 0.956586 0.5
47 3 0.698334 0.954207 0.5
65 4 0.745326 0.984559 0.5
79 4 0.744029 0.953871 0.5
11 1 0.916568 0.973089 0.5
ITEM: TIMESTEP
70
ITEM: NUMBER OF ATOMS
80
ITEM: BOX BOUNDS pp pp pp
-6.6686932059650710e+00 6.6686932059650710e+00
-6.6686932059650710e+00 6.6686932059650710e+00
-1.0000000000000001e-01 1.0000000000000001e-01
ITEM: ATOMS id type xs ys zs
64 4 0.19135 0.0245696 0.5
15 1 0.356602 0.0370105 0.5
33 2 0.411058 0.0214754 0.5
29 2 0.804348 0.0324431 0.5
67 4 0.925264 0.044149 0.5
34 2 0.982825 0.0107642 0.5
59 3 0.061883 0.0671464 0.5
54 3 0.695984 0.0903107 0.5
9 1 0.75838 0.0717659 0.5
71 4 0.475365 0.136421 0.5
68 4 0.64706 0.117379 0.5
28 2 0.496625 0.185594 0.5
76 4 0.787837 0.169987 0.5
12 1 0.0129478 0.21822 0.5
38 2 0.213202 0.230414 0.5
62 4 0.470061 0.231141 0.5
61 4 0.676894 0.248662 0.5
63 4 0.939688 0.221932 0.5
2 1 0.0738102 0.290276 0.5
75 4 0.203563 0.289831 0.5
49 3 0.444892 0.296293 0.5
20 1 0.686531 0.311436 0.5
23 2 0.634379 0.27072 0.5
78 4 0.81908 0.276358 0.5
66 4 0.130159 0.319291 0.5
57 3 0.250804 0.317716 0.5
77 4 0.675322 0.383524 0.5
36 2 0.820858 0.406836 0.5
3 1 0.158294 0.440399 0.5
69 4 0.28417 0.450572 0.5
4 1 0.429143 0.429947 0.5
43 3 0.872205 0.444532 0.5
80 4 0.0409659 0.514184 0.5
31 2 0.326406 0.50749 0.5
27 2 0.455384 0.525211 0.5
41 3 0.520263 0.524519 0.5
39 2 0.551238 0.484147 0.5
25 2 0.86727 0.528047 0.5
37 2 0.87674 0.491751 0.5
24 2 0.7449 0.528339 0.5
53 3 0.453776 0.621572 0.5
48 3 0.962493 0.623163 0.5
42 3 0.330615 0.638557 0.5
56 3 0.64477 0.646932 0.5
74 4 0.0341444 0.693118 0.5
6 1 0.191418 0.719771 0.5
1 1 0.223975 0.679088 0.5
46 3 0.715231 0.711448 0.5
26 2 0.750968 0.688628 0.5
10 1 0.00484356 0.754316 0.5
58 3 0.0790115 0.769602 0.5
17 1 0.17657 0.761389 0.5
52 3 0.527736 0.772522 0.5
32 2 0.588908 0.755213 0.5
51 3 0.884974 0.761994 0.5
5 1 0.173048 0.808583 0.5
35 2 0.179299 0.853396 0.5
13 1 0.240543 0.85436 0.5
14 1 0.266772 0.784763 0.5
16 1 0.468952 0.837711 0.5
50 3 0.47344 0.798988 0.5
40 2 0.552167 0.809973 0.5
72 4 0.633683 0.808722 0.5
30 2 0.0687742 0.887355 0.5
70 4 0.379892 0.844025 0.5
45 3 0.541649 0.861723 0.5
22 2 0.605978 0.854192 0.5
8 1 0.653962 0.851283 0.5
19 1 0.865726 0.860413 0.5
44 3 0.934619 0.888047 0.5
55 3 0.477309 0.936587 0.5
60 3 0.515496 0.91363 0.5
7 1 0.66713 0.907331 0.5
21 2 0.746382 0.906303 0.5
18 1 0.523403 0.987102 0.5
73 4 0.65001 0.957795 0.5
47 3 0.698584 0.95577 0.5
65 4 0.745457 0.985469 0.5
79 4 0.744465 0.954252 0.5
11 1 0.915459 0.972296 0.5
ITEM: TIMESTEP
80
ITEM: NUMBER OF ATOMS
80
ITEM: BOX BOUNDS pp pp pp
-6.6546391799091955e+00 6.6546391799091955e+00
-6.6546391799091955e+00 6.6546391799091955e+00
-1.0000000000000001e-01 1.0000000000000001e-01
ITEM: ATOMS id type xs ys zs
64 4 0.19135 0.0245696 0.5
15 1 0.353057 0.0380217 0.5
33 2 0.414603 0.0204641 0.5
29 2 0.80671 0.0304611 0.5
67 4 0.925126 0.0446794 0.5
34 2 0.984264 0.0113641 0.5
59 3 0.061883 0.0671464 0.5
54 3 0.695088 0.0905742 0.5
9 1 0.757036 0.0734171 0.5
71 4 0.475046 0.135642 0.5
68 4 0.646938 0.117446 0.5
28 2 0.497404 0.185553 0.5
76 4 0.787837 0.169987 0.5
12 1 0.0127548 0.217623 0.5
38 2 0.213274 0.229968 0.5
62 4 0.469601 0.231961 0.5
61 4 0.678379 0.24593 0.5
63 4 0.939382 0.221946 0.5
2 1 0.0735619 0.29047 0.5
75 4 0.203312 0.29017 0.5
49 3 0.444892 0.296293 0.5
20 1 0.689213 0.314921 0.5
23 2 0.630238 0.269772 0.5
78 4 0.81908 0.276358 0.5
66 4 0.130905 0.31968 0.5
57 3 0.250983 0.317823 0.5
77 4 0.675296 0.383718 0.5
36 2 0.820262 0.406375 0.5
3 1 0.158294 0.440399 0.5
69 4 0.284135 0.450524 0.5
4 1 0.429093 0.42977 0.5
43 3 0.872714 0.443253 0.5
80 4 0.0409659 0.514184 0.5
31 2 0.326441 0.507537 0.5
27 2 0.454815 0.525414 0.5
41 3 0.519519 0.526226 0.5
39 2 0.5526 0.482414 0.5
25 2 0.866186 0.532743 0.5
37 2 0.877909 0.488795 0.5
24 2 0.7449 0.528339 0.5
53 3 0.453776 0.621572 0.5
48 3 0.962493 0.623163 0.5
42 3 0.330615 0.638557 0.5
56 3 0.64477 0.646932 0.5
74 4 0.0344047 0.692557 0.5
6 1 0.189887 0.717034 0.5
1 1 0.227377 0.673168 0.5
46 3 0.712535 0.713169 0.5
26 2 0.753663 0.686906 0.5
10 1 0.00384439 0.754718 0.5
58 3 0.0797452 0.769761 0.5
17 1 0.172419 0.763746 0.5
52 3 0.525415 0.770017 0.5
32 2 0.591282 0.753243 0.5
51 3 0.884974 0.761994 0.5
5 1 0.167523 0.806364 0.5
35 2 0.175567 0.858832 0.5
13 1 0.246214 0.859512 0.5
14 1 0.272643 0.782694 0.5
16 1 0.466926 0.842617 0.5
50 3 0.473308 0.794428 0.5
40 2 0.553461 0.812325 0.5
72 4 0.633624 0.804265 0.5
30 2 0.0687742 0.887355 0.5
70 4 0.379892 0.844025 0.5
45 3 0.541839 0.862883 0.5
22 2 0.600018 0.855195 0.5
8 1 0.658511 0.850916 0.5
19 1 0.864945 0.860098 0.5
44 3 0.93544 0.888163 0.5
55 3 0.474442 0.936404 0.5
60 3 0.516995 0.911512 0.5
7 1 0.667697 0.908507 0.5
21 2 0.747981 0.904389 0.5
18 1 0.524681 0.989737 0.5
73 4 0.649035 0.959242 0.5
47 3 0.698837 0.957642 0.5
65 4 0.745641 0.98657 0.5
79 4 0.745017 0.954673 0.5
11 1 0.914118 0.971365 0.5
ITEM: TIMESTEP
90
ITEM: NUMBER OF ATOMS
80
ITEM: BOX BOUNDS pp pp pp
-6.6965847106307228e+00 6.6965847106307228e+00
-6.6965847106307228e+00 6.6965847106307228e+00
-1.0000000000000001e-01 1.0000000000000001e-01
ITEM: ATOMS id type xs ys zs
64 4 0.19135 0.0245696 0.5
15 1 0.349235 0.0391121 0.5
33 2 0.418425 0.0193738 0.5
29 2 0.809284 0.0282957 0.5
67 4 0.924957 0.0453138 0.5
34 2 0.985906 0.012032 0.5
59 3 0.061883 0.0671464 0.5
54 3 0.694029 0.0908681 0.5
9 1 0.755695 0.0751925 0.5
71 4 0.474671 0.134739 0.5
68 4 0.646764 0.117542 0.5
28 2 0.49831 0.185516 0.5
76 4 0.787837 0.169987 0.5
12 1 0.0125399 0.216892 0.5
38 2 0.21336 0.229428 0.5
62 4 0.46907 0.2329 0.5
61 4 0.67997 0.243036 0.5
63 4 0.938991 0.221965 0.5
2 1 0.0732915 0.290728 0.5
75 4 0.202996 0.290573 0.5
49 3 0.444892 0.296293 0.5
20 1 0.692108 0.318536 0.5
23 2 0.625798 0.26875 0.5
78 4 0.81908 0.276358 0.5
66 4 0.131782 0.320136 0.5
57 3 0.251213 0.31796 0.5
77 4 0.675249 0.38402 0.5
36 2 0.819545 0.405828 0.5
3 1 0.158294 0.440399 0.5
69 4 0.284083 0.450455 0.5
4 1 0.429027 0.429529 0.5
43 3 0.873314 0.441792 0.5
80 4 0.0409659 0.514184 0.5
31 2 0.326493 0.507607 0.5
27 2 0.454118 0.525679 0.5
41 3 0.518797 0.528098 0.5
39 2 0.554086 0.480518 0.5
25 2 0.865016 0.537761 0.5
37 2 0.879196 0.485785 0.5
24 2 0.7449 0.528339 0.5
53 3 0.453776 0.621572 0.5
48 3 0.962493 0.623163 0.5
42 3 0.330615 0.638557 0.5
56 3 0.64477 0.646932 0.5
74 4 0.0347152 0.691894 0.5
6 1 0.188223 0.713937 0.5
1 1 0.231083 0.666859 0.5
46 3 0.709636 0.71502 0.5
26 2 0.756562 0.685055 0.5
10 1 0.00266311 0.755196 0.5
58 3 0.0805607 0.769941 0.5
17 1 0.168036 0.765975 0.5
52 3 0.522978 0.767278 0.5
32 2 0.59383 0.751048 0.5
51 3 0.884974 0.761994 0.5
5 1 0.161653 0.804419 0.5
35 2 0.171654 0.864709 0.5
13 1 0.252179 0.864994 0.5
14 1 0.278857 0.780463 0.5
16 1 0.464553 0.847765 0.5
50 3 0.473084 0.789604 0.5
40 2 0.554802 0.814604 0.5
72 4 0.633549 0.799594 0.5
30 2 0.0687742 0.887355 0.5
70 4 0.379891 0.844025 0.5
45 3 0.541983 0.864203 0.5
22 2 0.59393 0.856337 0.5
8 1 0.663394 0.850294 0.5
19 1 0.864031 0.85973 0.5
44 3 0.936416 0.888255 0.5
55 3 0.471326 0.936213 0.5
60 3 0.518612 0.909379 0.5
7 1 0.668187 0.909766 0.5
21 2 0.749867 0.902252 0.5
18 1 0.526079 0.992609 0.5
73 4 0.647892 0.960893 0.5
47 3 0.699093 0.959776 0.5
65 4 0.745879 0.987838 0.5
79 4 0.745674 0.955113 0.5
11 1 0.912583 0.970339 0.5
ITEM: TIMESTEP
100
ITEM: NUMBER OF ATOMS
80
ITEM: BOX BOUNDS pp pp pp
-6.7617233500987641e+00 6.7617233500987641e+00
-6.7617233500987641e+00 6.7617233500987641e+00
-1.0000000000000001e-01 1.0000000000000001e-01
ITEM: ATOMS id type xs ys zs
64 4 0.19135 0.0245696 0.5
15 1 0.345241 0.0402515 0.5
33 2 0.422419 0.0182344 0.5
29 2 0.812004 0.0260016 0.5
67 4 0.924771 0.0460204 0.5
34 2 0.987691 0.0127517 0.5
59 3 0.061883 0.0671464 0.5
54 3 0.692823 0.0911823 0.5
9 1 0.754407 0.0770474 0.5
71 4 0.474249 0.133737 0.5
68 4 0.646539 0.117667 0.5
28 2 0.499322 0.185485 0.5
76 4 0.787837 0.169987 0.5
12 1 0.0123079 0.216042 0.5
38 2 0.21346 0.228814 0.5
62 4 0.46848 0.233933 0.5
61 4 0.681614 0.240086 0.5
63 4 0.938524 0.221988 0.5
2 1 0.0730048 0.291044 0.5
75 4 0.202624 0.291027 0.5
49 3 0.444892 0.296293 0.5
20 1 0.695133 0.322136 0.5
23 2 0.621207 0.267684 0.5
78 4 0.81908 0.276358 0.5
66 4 0.132768 0.320646 0.5
57 3 0.251486 0.318121 0.5
77 4 0.675171 0.384435 0.5
36 2 0.818721 0.405211 0.5
3 1 0.158294 0.440399 0.5
69 4 0.284019 0.450367 0.5
4 1 0.428946 0.429233 0.5
43 3 0.873986 0.440156 0.5
80 4 0.0409659 0.514184 0.5
31 2 0.326558 0.507694 0.5
27 2 0.453305 0.525992 0.5
41 3 0.518124 0.530089 0.5
39 2 0.555653 0.47851 0.5
25 2 0.863788 0.542976 0.5
37 2 0.880576 0.482823 0.5
24 2 0.7449 0.528339 0.5
53 3 0.453776 0.621572 0.5
48 3 0.962493 0.623163 0.5
42 3 0.330615 0.638557 0.5
56 3 0.64477 0.646932 0.5
74 4 0.0350661 0.691152 0.5
6 1 0.186499 0.710579 0.5
1 1 0.234993 0.660357 0.5
46 3 0.706614 0.71695 0.5
26 2 0.759584 0.683125 0.5
10 1 0.00133768 0.755734 0.5
58 3 0.0813607 0.77012 0.5
17 1 0.163661 0.767974 0.5
52 3 0.520512 0.764387 0.5
32 2 0.59645 0.748677 0.5
51 3 0.884974 0.761994 0.5
5 1 0.155676 0.802881 0.5
35 2 0.167673 0.870865 0.5
13 1 0.258227 0.870623 0.5
14 1 0.285131 0.778103 0.5
16 1 0.461922 0.852955 0.5
50 3 0.47277 0.784659 0.5
40 2 0.556106 0.816685 0.5
72 4 0.633454 0.794876 0.5
30 2 0.0687742 0.887355 0.5
70 4 0.379883 0.844025 0.5
45 3 0.542035 0.865644 0.5
22 2 0.587981 0.857609 0.5
8 1 0.668471 0.849389 0.5
19 1 0.86301 0.859321 0.5
44 3 0.937519 0.888318 0.5
55 3 0.46806 0.93606 0.5
60 3 0.520306 0.907344 0.5
7 1 0.668558 0.911075 0.5
21 2 0.751993 0.899968 0.5
18 1 0.527548 0.995614 0.5
73 4 0.646608 0.962711 0.5
47 3 0.69936 0.962118 0.5
65 4 0.746166 0.989248 0.5
79 4 0.74642 0.955547 0.5
11 1 0.910901 0.969259 0.5
ITEM: TIMESTEP
110
ITEM: NUMBER OF ATOMS
80
ITEM: BOX BOUNDS pp pp pp
-6.8154424413932739e+00 6.8154424413932739e+00
-6.8154424413932739e+00 6.8154424413932739e+00
-1.0000000000000001e-01 1.0000000000000001e-01
ITEM: ATOMS id type xs ys zs
64 4 0.19135 0.0245696 0.5
15 1 0.341145 0.0414199 0.5
33 2 0.426513 0.0170664 0.5
29 2 0.814826 0.0236138 0.5
67 4 0.924581 0.0467697 0.5
34 2 0.989573 0.0135128 0.5
59 3 0.061883 0.0671464 0.5
54 3 0.691477 0.0915084 0.5
9 1 0.753208 0.078954 0.5
71 4 0.473786 0.132653 0.5
68 4 0.646261 0.117822 0.5
28 2 0.500424 0.185461 0.5
76 4 0.787837 0.169987 0.5
12 1 0.0120616 0.215086 0.5
38 2 0.21357 0.228138 0.5
62 4 0.467841 0.235041 0.5
61 4 0.683271 0.237153 0.5
63 4 0.93799 0.222018 0.5
2 1 0.072705 0.291414 0.5
75 4 0.202204 0.291521 0.5
49 3 0.444892 0.296293 0.5
20 1 0.698229 0.325619 0.5
23 2 0.616571 0.266598 0.5
78 4 0.81908 0.276358 0.5
66 4 0.133848 0.321202 0.5
57 3 0.251795 0.318302 0.5
77 4 0.675054 0.384971 0.5
36 2 0.817799 0.404534 0.5
3 1 0.158294 0.440399 0.5
69 4 0.283945 0.450268 0.5
4 1 0.428854 0.428894 0.5
43 3 0.874716 0.438341 0.5
80 4 0.0409659 0.514184 0.5
31 2 0.326632 0.507794 0.5
27 2 0.452383 0.52634 0.5
41 3 0.517514 0.532168 0.5
39 2 0.557277 0.476422 0.5
25 2 0.862522 0.548314 0.5
37 2 0.882035 0.479977 0.5
24 2 0.7449 0.528339 0.5
53 3 0.453776 0.621572 0.5
48 3 0.962493 0.623163 0.5
42 3 0.330615 0.638557 0.5
56 3 0.64477 0.646932 0.5
74 4 0.0354487 0.69035 0.5
6 1 0.184761 0.707025 0.5
1 1 0.239058 0.65374 0.5
46 3 0.703522 0.718925 0.5
26 2 0.762677 0.681151 0.5
10 1 -0.000100751 0.756317 0.5
58 3 0.0820582 0.770274 0.5
17 1 0.159439 0.769715 0.5
52 3 0.518097 0.761379 0.5
32 2 0.599067 0.746161 0.5
51 3 0.884974 0.761994 0.5
5 1 0.149683 0.801836 0.5
35 2 0.1637 0.877192 0.5
13 1 0.264238 0.876292 0.5
14 1 0.291339 0.775648 0.5
16 1 0.4591 0.858067 0.5
50 3 0.472353 0.779683 0.5
40 2 0.557329 0.818473 0.5
72 4 0.633351 0.790208 0.5
30 2 0.0687742 0.887355 0.5
70 4 0.379858 0.844022 0.5
45 3 0.541949 0.86718 0.5
22 2 0.582355 0.859023 0.5
8 1 0.673649 0.848179 0.5
19 1 0.861906 0.858879 0.5
44 3 0.938727 0.888349 0.5
55 3 0.464718 0.935987 0.5
60 3 0.522036 0.905494 0.5
7 1 0.668774 0.912411 0.5
21 2 0.754319 0.897599 0.5
18 1 0.529054 0.998671 0.5
73 4 0.645203 0.964678 0.5
47 3 0.699648 0.964632 0.5
65 4 0.746498 0.990785 0.5
79 4 0.747244 0.955959 0.5
11 1 0.909107 0.96816 0.5
ITEM: TIMESTEP
120
ITEM: NUMBER OF ATOMS
80
ITEM: BOX BOUNDS pp pp pp
-6.8334190576466041e+00 6.8334190576466041e+00
-6.8334190576466041e+00 6.8334190576466041e+00
-1.0000000000000001e-01 1.0000000000000001e-01
ITEM: ATOMS id type xs ys zs
64 4 0.19135 0.0245696 0.5
15 1 0.336982 0.0426076 0.5
33 2 0.43066 0.0158815 0.5
29 2 0.817736 0.0211462 0.5
67 4 0.924395 0.0475409 0.5
34 2 0.991519 0.0143103 0.5
59 3 0.061883 0.0671464 0.5
54 3 0.689989 0.0918402 0.5
9 1 0.75212 0.0809019 0.5
71 4 0.473285 0.131495 0.5
68 4 0.645928 0.11801 0.5
28 2 0.50161 0.185443 0.5
76 4 0.787837 0.169987 0.5
12 1 0.0118014 0.214029 0.5
38 2 0.21369 0.22741 0.5
62 4 0.467157 0.236217 0.5
61 4 0.684917 0.234251 0.5
63 4 0.937395 0.222053 0.5
2 1 0.0723928 0.291838 0.5
75 4 0.201742 0.292051 0.5
49 3 0.444892 0.296293 0.5
20 1 0.701372 0.328954 0.5
23 2 0.611949 0.265506 0.5
78 4 0.81908 0.276358 0.5
66 4 0.135015 0.3218 0.5
57 3 0.252137 0.3185 0.5
77 4 0.674886 0.385631 0.5
36 2 0.816781 0.403801 0.5
3 1 0.158294 0.440399 0.5
69 4 0.283864 0.450159 0.5
4 1 0.428754 0.428518 0.5
43 3 0.875493 0.436327 0.5
80 4 0.0409659 0.514184 0.5
31 2 0.326712 0.507902 0.5
27 2 0.451352 0.526714 0.5
41 3 0.516977 0.534323 0.5
39 2 0.558945 0.47427 0.5
25 2 0.861226 0.55375 0.5
37 2 0.883573 0.477288 0.5
24 2 0.7449 0.528339 0.5
53 3 0.453776 0.621572 0.5