ITEM: TIMESTEP
250
ITEM: NUMBER OF ATOMS
65
ITEM: BOX BOUNDS pp pp pp
-4.8251548341194512e+00 4.8251548341194512e+00
-4.8265124995610327e+00 4.8265124995610327e+00
-1.0000000000000001e-01 1.0000000000000001e-01
ITEM: ATOMS id type xs ys zs
56 1 0.0241229 0.0978302 0.499911
20 1 0.110787 0.998121 0.499688
58 1 0.357846 0.0180144 0.499709
64 1 0.718083 0.0471677 0.498572
59 1 0.90087 0.0888351 0.500665
30 1 0.0562391 0.231073 0.500529
1 1 0.269229 0.204666 0.50018
12 1 0.388338 0.133812 0.500657
53 1 0.531918 0.147457 0.500193
9 1 0.647429 0.140976 0.50055
51 1 0.955145 0.174547 0.499759
40 1 0.160239 0.296327 0.500159
80 1 0.367207 0.245447 0.5003
24 1 0.460845 0.23516 0.500041
43 1 0.586651 0.23165 0.500838
14 1 0.930821 0.299213 0.499945
74 1 0.0574488 0.400641 0.499929
41 1 0.976584 0.404415 0.49991
7 1 0.278215 0.366931 0.499985
11 1 0.435554 0.361273 0.500311
19 1 0.590426 0.352519 0.49974
76 1 0.683796 0.391692 0.500132
61 1 0.667256 0.459386 0.499851
10 1 0.779955 0.343243 0.500868
62 1 0.0324464 0.466539 0.500135
25 1 0.0605184 0.555268 0.499909
67 1 0.0844988 0.46112 0.499555
4 1 0.190521 0.499251 0.499672
54 1 0.311816 0.490047 0.500049
33 1 0.432089 0.490132 0.500181
28 1 0.548725 0.483516 0.500575
60 1 0.732267 0.479258 0.500723
13 1 0.859271 0.465407 0.500209
45 1 0.963574 0.498203 0.499948
42 1 0.0247844 0.668382 0.500035
37 1 0.141541 0.63632 0.500355
26 1 0.356538 0.589355 0.499954
34 1 0.495376 0.601633 0.499722
46 1 0.597278 0.65375 0.499341
35 1 0.636176 0.554592 0.50014
15 1 0.772858 0.603036 0.500521
39 1 0.930268 0.595993 0.500305
2 1 0.106796 0.76901 0.499806
36 1 0.285003 0.690159 0.499843
6 1 0.42167 0.718251 0.499978
77 1 0.528598 0.68295 0.499144
29 1 0.656881 0.754973 0.499767
73 1 0.677775 0.666749 0.498915
16 1 0.811684 0.752168 0.500703
70 1 0.877736 0.657626 0.499932
23 1 0.950752 0.73953 0.500057
21 1 0.0290166 0.868286 0.500102
65 1 0.193195 0.834364 0.499459
63 1 0.211688 0.769965 0.500249
8 1 0.305593 0.838097 0.499701
38 1 0.458027 0.857636 0.500251
5 1 0.594409 0.887355 0.500167
27 1 0.737262 0.875669 0.500507
18 1 0.891482 0.861831 0.500023
44 1 0.140377 0.888996 0.500316
22 1 0.251525 0.971871 0.499721
52 1 0.392957 0.93634 0.499549
48 1 0.691145 0.97588 0.500338
17 1 0.810508 0.99416 0.500087
3 1 0.961145 0.993685 0.499683
ITEM: TIMESTEP
500
ITEM: NUMBER OF ATOMS
65
ITEM: BOX BOUNDS pp pp pp
-4.8239484862998783e+00 4.8239484862998783e+00
-4.8319367982707275e+00 4.8319367982707275e+00
-1.0000000000000001e-01 1.0000000000000001e-01
ITEM: ATOMS id type xs ys zs
56 1 0.0241094 0.097698 0.500894
20 1 0.111011 0.998368 0.500488
58 1 0.357916 0.0184665 0.498138
64 1 0.716745 0.047123 0.499986
59 1 0.90224 0.088909 0.499441
30 1 0.0569318 0.231601 0.50042
1 1 0.269191 0.20501 0.501113
12 1 0.38837 0.133662 0.501496
53 1 0.531959 0.148557 0.500613
9 1 0.647473 0.142148 0.499452
51 1 0.955665 0.174991 0.500172
40 1 0.160444 0.296837 0.500894
80 1 0.36703 0.244973 0.501359
24 1 0.460378 0.23532 0.501111
43 1 0.586906 0.232644 0.500614
14 1 0.931542 0.299441 0.500071
74 1 0.0576499 0.401027 0.501303
41 1 0.976786 0.404266 0.498904
7 1 0.277446 0.36762 0.501415
11 1 0.434662 0.361898 0.498771
19 1 0.590313 0.353783 0.498904
76 1 0.68469 0.39138 0.498779
61 1 0.667557 0.458488 0.498288
10 1 0.780557 0.342204 0.501023
62 1 0.0324753 0.466463 0.4997
25 1 0.0599307 0.555163 0.500957
67 1 0.0847512 0.461194 0.497273
4 1 0.190635 0.500085 0.501316
54 1 0.311451 0.490722 0.500635
33 1 0.431933 0.490555 0.500623
28 1 0.547684 0.484248 0.499287
60 1 0.732562 0.479245 0.499688
13 1 0.859361 0.465453 0.499466
45 1 0.963272 0.497642 0.500223
42 1 0.0246752 0.668752 0.499839
37 1 0.141275 0.636943 0.500998
26 1 0.356416 0.589887 0.499118
34 1 0.495414 0.602464 0.500649
46 1 0.597615 0.653364 0.497419
35 1 0.6358 0.55388 0.500726
15 1 0.772901 0.603396 0.50047
39 1 0.930153 0.595518 0.498883
2 1 0.106711 0.769578 0.50231
36 1 0.285613 0.690655 0.497634
6 1 0.422281 0.71872 0.500369
77 1 0.529021 0.68285 0.499632
29 1 0.656988 0.754662 0.499429
73 1 0.678277 0.66683 0.49885
16 1 0.812038 0.751676 0.500687
70 1 0.877878 0.657407 0.500616
23 1 0.952025 0.741693 0.50104
21 1 0.0290581 0.86832 0.499739
65 1 0.192779 0.83498 0.500263
63 1 0.211598 0.770236 0.499166
8 1 0.305906 0.838312 0.499625
38 1 0.457776 0.857924 0.501781
5 1 0.594848 0.88702 0.500095
27 1 0.738743 0.875365 0.501481
18 1 0.89014 0.862588 0.502733
44 1 0.140472 0.889433 0.499951
22 1 0.25225 0.972478 0.498645
52 1 0.392937 0.937005 0.498796
48 1 0.69085 0.975857 0.500223
17 1 0.810073 0.995866 0.500559
3 1 0.961109 0.992988 0.501209
ITEM: TIMESTEP
750
ITEM: NUMBER OF ATOMS
65
ITEM: BOX BOUNDS pp pp pp
-4.8227421384803053e+00 4.8227421384803053e+00
-4.8281491488111739e+00 4.8281491488111739e+00
-1.0000000000000001e-01 1.0000000000000001e-01
ITEM: ATOMS id type xs ys zs
56 1 0.024695 0.0985946 0.503392
20 1 0.111458 0.998489 0.499678
58 1 0.359168 0.0184774 0.497511
64 1 0.718445 0.0478361 0.501546
59 1 0.901373 0.0894837 0.50022
30 1 0.05691 0.231643 0.500044
1 1 0.26927 0.205388 0.500985
12 1 0.388304 0.134111 0.500604
53 1 0.532709 0.147192 0.502645
9 1 0.648758 0.14234 0.498167
51 1 0.955125 0.175293 0.500761
40 1 0.160002 0.296905 0.498945
80 1 0.367689 0.245188 0.500904
24 1 0.46094 0.234851 0.499949
43 1 0.586322 0.231962 0.500877
14 1 0.931697 0.299766 0.49874
74 1 0.0585736 0.401133 0.502681
41 1 0.977726 0.404226 0.499039
7 1 0.277138 0.367994 0.501742
11 1 0.435394 0.36205 0.500238
19 1 0.590452 0.353662 0.498508
76 1 0.684876 0.391212 0.500843
61 1 0.668326 0.458655 0.499359
10 1 0.78047 0.342178 0.501064
62 1 0.0330838 0.466877 0.500036
25 1 0.0599859 0.555799 0.502321
67 1 0.0854269 0.461741 0.495969
4 1 0.191279 0.500777 0.500684
54 1 0.312332 0.491104 0.499821
33 1 0.432219 0.490574 0.501297
28 1 0.548883 0.484716 0.499534
60 1 0.733317 0.479123 0.499384
13 1 0.859714 0.464915 0.499463
45 1 0.963755 0.497587 0.499858
42 1 0.0246725 0.668667 0.499817
37 1 0.140682 0.637269 0.502452
26 1 0.357592 0.590033 0.499337
34 1 0.494584 0.602255 0.500666
46 1 0.597343 0.653223 0.498658
35 1 0.636305 0.554133 0.497394
15 1 0.773029 0.603258 0.502029
39 1 0.93063 0.595683 0.49794
2 1 0.106952 0.769464 0.504172
36 1 0.285499 0.691158 0.49893
6 1 0.422213 0.718872 0.499185
77 1 0.528879 0.682656 0.499059
29 1 0.657739 0.754591 0.502107
73 1 0.678187 0.666715 0.497403
16 1 0.812023 0.752242 0.500897
70 1 0.878147 0.657686 0.498663
23 1 0.951857 0.740908 0.500888
21 1 0.0299371 0.869415 0.500786
65 1 0.193573 0.834034 0.501408
63 1 0.212007 0.769295 0.499008
8 1 0.305796 0.838863 0.501606
38 1 0.458568 0.858614 0.502234
5 1 0.595543 0.886607 0.501433
27 1 0.738188 0.875913 0.500726
18 1 0.890574 0.862391 0.502014
44 1 0.141476 0.889306 0.499828
22 1 0.252474 0.972569 0.498366
52 1 0.39329 0.93642 0.499537
48 1 0.691455 0.976672 0.500454
17 1 0.810414 0.995253 0.501055
3 1 0.961606 0.994273 0.502094
ITEM: TIMESTEP
1000
ITEM: NUMBER OF ATOMS
65
ITEM: BOX BOUNDS pp pp pp
-4.8215357906607323e+00 4.8215357906607323e+00
-4.8283624390470248e+00 4.8283624390470248e+00
-1.0000000000000001e-01 1.0000000000000001e-01
ITEM: ATOMS id type xs ys zs
56 1 0.0241708 0.0979135 0.501782
20 1 0.110657 0.998625 0.500884
58 1 0.357707 0.0183985 0.499807
64 1 0.718572 0.0483727 0.501593
59 1 0.901978 0.0891255 0.49883
30 1 0.0570432 0.231343 0.500442
1 1 0.270129 0.205584 0.500875
12 1 0.387931 0.133589 0.500742
53 1 0.533411 0.147601 0.502645
9 1 0.649637 0.143543 0.497845
51 1 0.955637 0.175059 0.501137
40 1 0.16131 0.296193 0.500042
80 1 0.367638 0.246105 0.502004
24 1 0.460794 0.234717 0.500794
43 1 0.586665 0.232749 0.501231
14 1 0.931679 0.299693 0.497984
74 1 0.0585034 0.400643 0.501857
41 1 0.977624 0.40386 0.496944
7 1 0.278439 0.367608 0.500564
11 1 0.435973 0.361903 0.500825
19 1 0.591039 0.353723 0.498659
76 1 0.684814 0.392069 0.499023
61 1 0.667308 0.459278 0.499407
10 1 0.78079 0.341985 0.501395
62 1 0.0334887 0.466028 0.498318
25 1 0.0609039 0.555327 0.500953
67 1 0.0858617 0.461109 0.493843
4 1 0.191456 0.500026 0.502185
54 1 0.312523 0.490785 0.500329
33 1 0.432827 0.490491 0.501867
28 1 0.549055 0.484629 0.498793
60 1 0.732649 0.479128 0.50076
13 1 0.859831 0.465306 0.501581
45 1 0.964285 0.497436 0.498005
42 1 0.025409 0.668451 0.503142
37 1 0.141578 0.636978 0.502394
26 1 0.357296 0.589359 0.498348
34 1 0.494726 0.602066 0.499159
46 1 0.597171 0.652762 0.500167
35 1 0.636436 0.554748 0.497217
15 1 0.772902 0.60316 0.502025
39 1 0.931441 0.595552 0.497651
2 1 0.106771 0.769642 0.504647
36 1 0.285455 0.68983 0.497071
6 1 0.422395 0.718567 0.500005
77 1 0.528539 0.682616 0.498211
29 1 0.657025 0.75394 0.502393
73 1 0.677995 0.666075 0.496125
16 1 0.81208 0.752515 0.502167
70 1 0.877879 0.656766 0.498001
23 1 0.952049 0.740177 0.501454
21 1 0.0300458 0.869413 0.500563
65 1 0.193183 0.834562 0.503558
63 1 0.211462 0.769664 0.500292
8 1 0.30611 0.837576 0.501798
38 1 0.458369 0.858176 0.502509
5 1 0.595109 0.886259 0.501946
27 1 0.737993 0.876361 0.499824
18 1 0.892242 0.861554 0.502527
44 1 0.141284 0.88978 0.499308
22 1 0.25164 0.971707 0.49673
52 1 0.393415 0.937143 0.499919
48 1 0.691148 0.977179 0.501399
17 1 0.810832 0.995054 0.498684
3 1 0.961135 0.993877 0.501871
ITEM: TIMESTEP
1250
ITEM: NUMBER OF ATOMS
65
ITEM: BOX BOUNDS pp pp pp
-4.8203294428411594e+00 4.8203294428411594e+00
-4.8313342912344490e+00 4.8313342912344490e+00
-1.0000000000000001e-01 1.0000000000000001e-01
ITEM: ATOMS id type xs ys zs
56 1 0.0242198 0.0986124 0.501695
20 1 0.111407 0.998808 0.5008
58 1 0.357188 0.0187315 0.49857
64 1 0.717963 0.0476393 0.50294
59 1 0.902464 0.0894798 0.497996
30 1 0.0564828 0.232096 0.500655
1 1 0.269373 0.204936 0.501401
12 1 0.388666 0.134188 0.503271
53 1 0.532804 0.147883 0.504307
9 1 0.648609 0.141649 0.496615
51 1 0.954938 0.175604 0.500475
40 1 0.160673 0.297284 0.501146
80 1 0.36706 0.245104 0.500171
24 1 0.460361 0.23492 0.500581
43 1 0.587478 0.232077 0.501214
14 1 0.931756 0.299832 0.496464
74 1 0.0582793 0.40154 0.50259
41 1 0.977355 0.404203 0.497186
7 1 0.277748 0.367909 0.500598
11 1 0.435619 0.36053 0.502666
19 1 0.591539 0.352941 0.500364
76 1 0.685171 0.391014 0.500639
61 1 0.667463 0.458369 0.500308
10 1 0.781183 0.342125 0.503077
62 1 0.0328504 0.466709 0.496299
25 1 0.0605241 0.555378 0.500665
67 1 0.0850886 0.461919 0.494824
4 1 0.190866 0.500864 0.501605
54 1 0.311587 0.491075 0.499596
33 1 0.43128 0.488802 0.50186
28 1 0.547536 0.483141 0.498996
60 1 0.732335 0.478365 0.502116
13 1 0.859677 0.464966 0.500726
45 1 0.963669 0.497397 0.49659
42 1 0.0250954 0.66816 0.503746
37 1 0.14077 0.636845 0.501824
26 1 0.357904 0.589498 0.499082
34 1 0.494667 0.60071 0.499251
46 1 0.597342 0.652834 0.500139
35 1 0.635279 0.553388 0.49624
15 1 0.772919 0.603201 0.500413
39 1 0.930525 0.59556 0.497666
2 1 0.106836 0.769778 0.504294
36 1 0.285435 0.689854 0.496407
6 1 0.422337 0.718845 0.499268
77 1 0.528272 0.681313 0.497418
29 1 0.656774 0.754432 0.501783
73 1 0.678219 0.666997 0.499076
16 1 0.813133 0.752589 0.502038
70 1 0.877863 0.657268 0.497846
23 1 0.952649 0.741007 0.501789
21 1 0.0294289 0.869206 0.49938
65 1 0.193514 0.834426 0.503
63 1 0.211349 0.76981 0.499763
8 1 0.306149 0.836925 0.500879
38 1 0.458783 0.858482 0.502037
5 1 0.595893 0.887211 0.502439
27 1 0.738969 0.876552 0.500652
18 1 0.892276 0.862925 0.502523
44 1 0.141391 0.889936 0.498313
22 1 0.251775 0.971 0.498126
52 1 0.392112 0.937132 0.498993
48 1 0.691833 0.976137 0.501093
17 1 0.810946 0.995756 0.500925
3 1 0.961636 0.994067 0.500086
ITEM: TIMESTEP
1500
ITEM: NUMBER OF ATOMS
65
ITEM: BOX BOUNDS pp pp pp
-4.8191230950215864e+00 4.8191230950215864e+00
-4.8317168254560503e+00 4.8317168254560503e+00
-1.0000000000000001e-01 1.0000000000000001e-01
ITEM: ATOMS id type xs ys zs
56 1 0.0246793 0.0988811 0.501648
20 1 0.110958 0.999001 0.500257
58 1 0.356793 0.0178022 0.499509
64 1 0.718271 0.0473125 0.502965
59 1 0.900457 0.0902401 0.499023
30 1 0.0573998 0.231059 0.498323
1 1 0.268677 0.205156 0.501939
12 1 0.387341 0.13324 0.503324
53 1 0.532806 0.148062 0.504258
9 1 0.648843 0.141163 0.497515
51 1 0.955568 0.175974 0.500631
40 1 0.159695 0.297901 0.498783
80 1 0.366537 0.245072 0.500023
24 1 0.459755 0.234361 0.5007
43 1 0.588097 0.231651 0.501644
14 1 0.933164 0.300334 0.497047
74 1 0.0583683 0.401636 0.503776
41 1 0.977327 0.404939 0.498072
7 1 0.278389 0.36731 0.500795
11 1 0.434811 0.360362 0.503367
19 1 0.590582 0.352741 0.50009
76 1 0.684342 0.390476 0.501101
61 1 0.666942 0.457878 0.500378
10 1 0.781236 0.343072 0.502731
62 1 0.0331389 0.467376 0.495658
25 1 0.0605773 0.556163 0.502718
67 1 0.0853915 0.461763 0.495791
4 1 0.190878 0.500264 0.502538
54 1 0.311619 0.490783 0.499547
33 1 0.431851 0.488842 0.503613
28 1 0.548545 0.483133 0.498002
60 1 0.732114 0.478478 0.5043
13 1 0.859121 0.465492 0.500221
45 1 0.963667 0.498263 0.495973
42 1 0.0246169 0.669305 0.504334
37 1 0.142228 0.637224 0.50389
26 1 0.35709 0.589373 0.500879
34 1 0.494528 0.600896 0.497395
46 1 0.596844 0.651657 0.501041
35 1 0.636237 0.552883 0.495598
15 1 0.771982 0.602958 0.501033
39 1 0.930748 0.59587 0.499613
2 1 0.107025 0.770005 0.505193
36 1 0.285755 0.690291 0.496261
6 1 0.42269 0.717721 0.49989
77 1 0.528714 0.681676 0.497626
29 1 0.654113 0.754074 0.501398
73 1 0.677523 0.666777 0.500473
16 1 0.812302 0.752665 0.503523
70 1 0.876689 0.656862 0.498555
23 1 0.95166 0.741813 0.501796
21 1 0.0292271 0.870089 0.499289
65 1 0.193947 0.834998 0.50494
63 1 0.211777 0.770366 0.498639
8 1 0.307375 0.837039 0.497948
38 1 0.457445 0.857652 0.503456
5 1 0.594104 0.887057 0.502125
27 1 0.737578 0.87564 0.500446
18 1 0.891648 0.86283 0.503787
44 1 0.14099 0.889613 0.49656
22 1 0.251285 0.970113 0.498708
52 1 0.392331 0.936563 0.498925
48 1 0.691856 0.97592 0.502515
17 1 0.810959 0.995233 0.501284
3 1 0.961244 0.995268 0.502038
ITEM: TIMESTEP
1750
ITEM: NUMBER OF ATOMS
65
ITEM: BOX BOUNDS pp pp pp
-4.8179167472020135e+00 4.8179167472020135e+00
-4.8348942358906175e+00 4.8348942358906175e+00
-1.0000000000000001e-01 1.0000000000000001e-01
ITEM: ATOMS id type xs ys zs
56 1 0.0245315 0.0981602 0.501601
20 1 0.112021 0.998942 0.499736
58 1 0.358283 0.0183953 0.498757
64 1 0.719027 0.0485323 0.503609
59 1 0.900972 0.0894305 0.499825
30 1 0.0576542 0.230067 0.498138
1 1 0.26786 0.20562 0.502091
12 1 0.386729 0.13423 0.503509
53 1 0.532431 0.148404 0.504018
9 1 0.647997 0.141821 0.498594
51 1 0.955444 0.174814 0.500339
40 1 0.160253 0.297833 0.50059
80 1 0.365912 0.245661 0.499664
24 1 0.459632 0.234517 0.500661
43 1 0.587786 0.232511 0.501084
14 1 0.93303 0.299817 0.496859
74 1 0.057895 0.401289 0.504137
41 1 0.976881 0.405016 0.498256
7 1 0.2789 0.367657 0.501641
11 1 0.437108 0.361455 0.504291
19 1 0.591923 0.352353 0.501068
76 1 0.685495 0.390997 0.499537
61 1 0.666518 0.457997 0.501371
10 1 0.781956 0.342822 0.50334
62 1 0.0328418 0.467125 0.49524
25 1 0.0608193 0.555621 0.501392
67 1 0.0850946 0.461735 0.495342
4 1 0.191532 0.500164 0.499861
54 1 0.313061 0.490175 0.500495
33 1 0.432026 0.489615 0.502596
28 1 0.548091 0.482458 0.497233
60 1 0.731424 0.4791 0.505313
13 1 0.858789 0.466752 0.497744
45 1 0.963767 0.49857 0.495744
42 1 0.0254757 0.669037 0.503956
37 1 0.141915 0.63719 0.502922
26 1 0.3575 0.589084 0.500209
34 1 0.495896 0.6007 0.497888
46 1 0.597881 0.651618 0.499248
35 1 0.635495 0.553006 0.49333
15 1 0.771632 0.603629 0.500056
39 1 0.930758 0.596539 0.498573
2 1 0.107686 0.770336 0.50494
36 1 0.28563 0.689687 0.496705
6 1 0.422438 0.718199 0.501126
77 1 0.52948 0.681667 0.496878
29 1 0.65309 0.755029 0.503857
73 1 0.678255 0.668154 0.498213
16 1 0.811201 0.753192 0.502672
70 1 0.877157 0.658161 0.497978
23 1 0.951263 0.740231 0.50004
21 1 0.0304632 0.869705 0.498045
65 1 0.194552 0.835134 0.50488
63 1 0.211993 0.769733 0.499952
8 1 0.307516 0.83584 0.501264
38 1 0.457099 0.85734 0.502093
5 1 0.594231 0.888237 0.500757
27 1 0.73669 0.876651 0.500007
18 1 0.891403 0.862812 0.505513
44 1 0.141837 0.889876 0.495935
22 1 0.252371 0.969449 0.49919
52 1 0.392393 0.936621 0.499427
48 1 0.691604 0.977381 0.501976
17 1 0.810699 0.99435 0.500149
3 1 0.961024 0.994579 0.50385
ITEM: TIMESTEP
2000
ITEM: NUMBER OF ATOMS
65
ITEM: BOX BOUNDS pp pp pp
-4.8167103993824405e+00 4.8167103993824405e+00
-4.8328818676708369e+00 4.8328818676708369e+00
-1.0000000000000001e-01 1.0000000000000001e-01
ITEM: ATOMS id type xs ys zs
56 1 0.0251729 0.0985704 0.501757
20 1 0.110823 0.998098 0.499863
58 1 0.357983 0.0185524 0.495843
64 1 0.718061 0.048203 0.502744
59 1 0.90112 0.0902051 0.499948
30 1 0.0581866 0.231373 0.498307
1 1 0.267389 0.206629 0.503786
12 1 0.38554 0.134541 0.505837
53 1 0.531578 0.147327 0.502907
9 1 0.647586 0.141856 0.500522
51 1 0.956457 0.175365 0.500575
40 1 0.159846 0.2998 0.499936
80 1 0.366135 0.246366 0.498603
24 1 0.459705 0.234319 0.501221
43 1 0.586173 0.23173 0.499473
14 1 0.932546 0.299993 0.494874
74 1 0.0575285 0.401107 0.502672
41 1 0.97674 0.405272 0.49905
7 1 0.278803 0.367834 0.501334
11 1 0.43613 0.360286 0.504055
19 1 0.592428 0.352469 0.502345
76 1 0.685157 0.391136 0.501545
61 1 0.668058 0.458454 0.501614
10 1 0.781182 0.343319 0.503894
62 1 0.0331122 0.467242 0.493714
25 1 0.0606418 0.556322 0.501782
67 1 0.0852651 0.461697 0.494672
4 1 0.190867 0.499822 0.500922
54 1 0.312256 0.490664 0.501418
33 1 0.431814 0.488805 0.501949
28 1 0.548337 0.482875 0.497012
60 1 0.732585 0.479767 0.504517
13 1 0.85965 0.466462 0.499006
45 1 0.963821 0.498844 0.494179
42 1 0.025121 0.669557 0.502628
37 1 0.142833 0.637287 0.502071
26 1 0.35737 0.589079 0.498846
34 1 0.495258 0.600787 0.498541
46 1 0.597722 0.651738 0.501538
35 1 0.635541 0.553144 0.492264
15 1 0.771981 0.603951 0.500858
39 1 0.930235 0.596979 0.495422
2 1 0.106691 0.77002 0.505614
36 1 0.285774 0.689979 0.499473
6 1 0.42242 0.717607 0.501977
77 1 0.528966 0.681408 0.498176
29 1 0.652987 0.754561 0.502918
73 1 0.678166 0.667904 0.50086
16 1 0.811202 0.753274 0.501298
70 1 0.877036 0.658391 0.496846
23 1 0.950563 0.740121 0.498578
21 1 0.0298656 0.870511 0.496879
65 1 0.193688 0.834479 0.504999
63 1 0.211314 0.769642 0.498108
8 1 0.306606 0.837114 0.501174
38 1 0.457023 0.857635 0.502753
5 1 0.593498 0.888332 0.498942
27 1 0.73699 0.87651 0.499425
18 1 0.892249 0.862185 0.505174
44 1 0.142003 0.889913 0.494198
22 1 0.25206 0.971331 0.498635
52 1 0.391931 0.936468 0.498386
48 1 0.69115 0.977064 0.503605
17 1 0.810696 0.995132 0.500449
3 1 0.961083 0.994816 0.50463
ITEM: TIMESTEP
2250
ITEM: NUMBER OF ATOMS
65
ITEM: BOX BOUNDS pp pp pp
-4.8155040515628675e+00 4.8155040515628675e+00
-4.8306199074495249e+00 4.8306199074495249e+00
-1.0000000000000001e-01 1.0000000000000001e-01
ITEM: ATOMS id type xs ys zs
56 1 0.0255079 0.0978278 0.501076
20 1 0.112064 0.998388 0.500811
58 1 0.357819 0.0185234 0.495649
64 1 0.717762 0.0479003 0.502171
59 1 0.900964 0.0886315 0.499794
30 1 0.0581432 0.230027 0.497598
1 1 0.266678 0.205802 0.504532
12 1 0.385637 0.134307 0.504885
53 1 0.530937 0.146966 0.502366
9 1 0.647151 0.141069 0.501267
51 1 0.956147 0.174256 0.500927
40 1 0.158847 0.29924 0.500328
80 1 0.365424 0.245487 0.497174
24 1 0.459108 0.234106 0.500396
43 1 0.585548 0.231088 0.497884
14 1 0.933661 0.299413 0.496023
74 1 0.0577293 0.401403 0.501322
41 1 0.976788 0.405063 0.499587
7 1 0.278628 0.367253 0.499911
11 1 0.436155 0.36083 0.502723
19 1 0.590702 0.352266 0.502711
76 1 0.685222 0.390451 0.501987
61 1 0.667235 0.45757 0.501553
10 1 0.781976 0.342542 0.503331
62 1 0.0329249 0.467068 0.494652
25 1 0.0611629 0.555914 0.502314
67 1 0.085313 0.461583 0.493811
4 1 0.191628 0.500119 0.500478
54 1 0.313046 0.490292 0.501035
33 1 0.432026 0.489369 0.502139
28 1 0.548719 0.483174 0.496451
60 1 0.731765 0.479077 0.503332
13 1 0.859253 0.466018 0.499121
45 1 0.963921 0.498599 0.494263
42 1 0.0242367 0.668537 0.503647
37 1 0.142103 0.637504 0.499454
26 1 0.35749 0.589076 0.499139
34 1 0.494935 0.600864 0.498085
46 1 0.59782 0.651766 0.502874
35 1 0.636684 0.552699 0.49354
15 1 0.772876 0.60337 0.502825
39 1 0.929567 0.596554 0.494686
2 1 0.106996 0.769339 0.506227
36 1 0.285228 0.68893 0.499159
6 1 0.422521 0.717925 0.501446
77 1 0.529176 0.681674 0.499196
29 1 0.654539 0.754389 0.504092
73 1 0.678419 0.667441 0.500925
16 1 0.81061 0.75327 0.5002
70 1 0.877016 0.658597 0.498468
23 1 0.950147 0.7395 0.496971
21 1 0.0293319 0.868752 0.497146
65 1 0.193854 0.834443 0.505339
63 1 0.212062 0.769853 0.496558
8 1 0.306436 0.836701 0.500339
38 1 0.45685 0.857018 0.501973
5 1 0.593183 0.887624 0.50003
27 1 0.736147 0.876352 0.499656
18 1 0.89167 0.86244 0.507229
44 1 0.141479 0.889205 0.495231
22 1 0.25222 0.970208 0.498147
52 1 0.392487 0.936597 0.498699
48 1 0.690285 0.976954 0.504087
17 1 0.810259 0.994899 0.501225
3 1 0.961793 0.994169 0.504567
ITEM: TIMESTEP
2500
ITEM: NUMBER OF ATOMS
65
ITEM: BOX BOUNDS pp pp pp
-4.8142977037432946e+00 4.8142977037432946e+00
-4.8316405376540761e+00 4.8316405376540761e+00
-1.0000000000000001e-01 1.0000000000000001e-01
ITEM: ATOMS id type xs ys zs
56 1 0.0243643 0.0978446 0.50114
20 1 0.111366 0.99811 0.499826
58 1 0.356782 0.0187774 0.495349
64 1 0.717818 0.0476202 0.501615
59 1 0.900307 0.0886964 0.498801
30 1 0.057681 0.228725 0.496274
1 1 0.266344 0.205718 0.50232
12 1 0.385734 0.134256 0.505488
53 1 0.530335 0.146964 0.504293
9 1 0.646391 0.141046 0.500992
51 1 0.955229 0.173748 0.501792
40 1 0.15849 0.298462 0.500862
80 1 0.364636 0.245682 0.49662
24 1 0.458799 0.235044 0.499982
43 1 0.585083 0.230752 0.498111
14 1 0.932816 0.2988 0.495447
74 1 0.0583523 0.401428 0.502327
41 1 0.976909 0.404315 0.498462
7 1 0.277871 0.367379 0.502338
11 1 0.435424 0.361409 0.501806
19 1 0.591032 0.351788 0.503033
76 1 0.684147 0.390161 0.500985
61 1 0.667278 0.457428 0.501933
10 1 0.781288 0.342911 0.503863
62 1 0.0325544 0.466858 0.495878
25 1 0.0600824 0.555953 0.501799
67 1 0.0851537 0.461621 0.493526
4 1 0.191232 0.500216 0.500461
54 1 0.312607 0.490481 0.502209
33 1 0.432136 0.489494 0.502126
28 1 0.548129 0.482502 0.497988
60 1 0.731896 0.4795 0.502169
13 1 0.859701 0.465845 0.501087
45 1 0.963708 0.498214 0.494189
42 1 0.0246938 0.668516 0.503397
37 1 0.141992 0.636626 0.498014
26 1 0.357491 0.589748 0.499282
34 1 0.493681 0.600881 0.498821
46 1 0.59694 0.651129 0.502587
35 1 0.636595 0.552677 0.491811
15 1 0.772546 0.603066 0.504367
39 1 0.930081 0.59616 0.493939
2 1 0.106541 0.769084 0.504531
36 1 0.285762 0.689947 0.497114
6 1 0.422135 0.718937 0.502191
77 1 0.528401 0.681325 0.497862
29 1 0.652807 0.754304 0.504028
73 1 0.677599 0.666937 0.501424
16 1 0.810631 0.752089 0.49898
70 1 0.877185 0.657873 0.499978
23 1 0.950768 0.739721 0.495845
21 1 0.0290319 0.868469 0.497317
65 1 0.193596 0.834303 0.506175
63 1 0.211772 0.76935 0.496397
8 1 0.30661 0.83667 0.50117
38 1 0.45673 0.85787 0.501762
5 1 0.594131 0.887279 0.500248
27 1 0.737298 0.876155 0.499875
18 1 0.890977 0.862507 0.506793
44 1 0.14083 0.889167 0.495413
22 1 0.25145 0.970302 0.497583
52 1 0.392203 0.937655 0.49992
48 1 0.690702 0.976513 0.502554
17 1 0.810102 0.994721 0.501241
3 1 0.96141 0.994008 0.50512
ITEM: TIMESTEP
2750
ITEM: NUMBER OF ATOMS
65
ITEM: BOX BOUNDS pp pp pp
-4.8130913559237216e+00 4.8130913559237216e+00
-4.8378366541400792e+00 4.8378366541400792e+00
-1.0000000000000001e-01 1.0000000000000001e-01
ITEM: ATOMS id type xs ys zs
56 1 0.0243847 0.0979205 0.503217
20 1 0.111113 0.998607 0.500561
58 1 0.356984 0.0180036 0.494906
64 1 0.716981 0.0467609 0.502557
59 1 0.900657 0.0888272 0.499483
30 1 0.0570168 0.229927 0.496742
1 1 0.2656 0.206455 0.503188
12 1 0.384012 0.134345 0.507013
53 1 0.52994 0.148381 0.504157
9 1 0.645853 0.140547 0.502955
51 1 0.954658 0.17446 0.500377
40 1 0.157857 0.299086 0.500039
80 1 0.363697 0.245902 0.494232
24 1 0.457483 0.234974 0.500013
43 1 0.586276 0.231692 0.499667
14 1 0.932415 0.2991 0.494965
74 1 0.0575148 0.401792 0.501039
41 1 0.976439 0.404815 0.499263
7 1 0.277937 0.367421 0.50383
11 1 0.434797 0.360964 0.50123
19 1 0.590129 0.352287 0.501589
76 1 0.684337 0.389741 0.50236
61 1 0.666452 0.457369 0.501058
10 1 0.781127 0.342355 0.504157
62 1 0.032216 0.467195 0.494693
25 1 0.0598216 0.55578 0.50196
67 1 0.0845689 0.461914 0.494444
4 1 0.190819 0.500004 0.501112
54 1 0.311673 0.49058 0.502797
33 1 0.431747 0.489235 0.500881
28 1 0.548991 0.48314 0.498382
60 1 0.730717 0.480248 0.503675
13 1 0.85858 0.465937 0.501572
45 1 0.962832 0.497892 0.495865
42 1 0.0251879 0.668643 0.503176
37 1 0.141892 0.636487 0.498514
26 1 0.357076 0.589614 0.499913
34 1 0.494334 0.600835 0.496913
46 1 0.596563 0.65176 0.504461
35 1 0.636148 0.55307 0.491745
15 1 0.772008 0.604057 0.503624
39 1 0.930248 0.596363 0.49391
2 1 0.106611 0.769418 0.504296
36 1 0.285545 0.690255 0.498255
6 1 0.422624 0.718477 0.501501
77 1 0.528427 0.681499 0.497308
29 1 0.653363 0.754408 0.505498
73 1 0.677006 0.667235 0.501479
16 1 0.810803 0.752458 0.498692
70 1 0.877427 0.658227 0.500427
23 1 0.950134 0.739273 0.495227
21 1 0.0288014 0.868516 0.496694
65 1 0.193263 0.834568 0.506293
63 1 0.211253 0.769923 0.497938
8 1 0.306737 0.836724 0.499596
38 1 0.456233 0.857094 0.500044
5 1 0.592635 0.88698 0.498802
27 1 0.736673 0.875553 0.501344
18 1 0.890445 0.861484 0.507374
44 1 0.140271 0.889266 0.4954
22 1 0.251894 0.969393 0.49629
52 1 0.392341 0.936298 0.498034
48 1 0.690189 0.97543 0.502228
17 1 0.8097 0.994567 0.500014
3 1 0.961003 0.993708 0.505274
ITEM: TIMESTEP
3000
ITEM: NUMBER OF ATOMS
65
ITEM: BOX BOUNDS pp pp pp
-4.8118850081041487e+00 4.8118850081041487e+00
-4.8391331150436088e+00 4.8391331150436088e+00
-1.0000000000000001e-01 1.0000000000000001e-01
ITEM: ATOMS id type xs ys zs
56 1 0.0234908 0.0979111 0.501121
20 1 0.11061 0.998727 0.501411
58 1 0.356028 0.0178115 0.493072
64 1 0.717598 0.0477054 0.504236
59 1 0.901354 0.0889589 0.500011
30 1 0.0571552 0.229614 0.496725
1 1 0.263928 0.206191 0.503169
12 1 0.382464 0.13416 0.505881
53 1 0.529528 0.148026 0.504522
9 1 0.645353 0.140693 0.502877
51 1 0.954815 0.174382 0.499512
40 1 0.157403 0.30035 0.501237
80 1 0.362375 0.245102 0.495778
24 1 0.456274 0.23372 0.500173
43 1 0.585271 0.231783 0.498086
14 1 0.932702 0.298928 0.495917
74 1 0.0571027 0.401225 0.502001
41 1 0.976139 0.404743 0.500762
7 1 0.277474 0.367967 0.503535
11 1 0.435291 0.360637 0.500424
19 1 0.59051 0.352337 0.502563
76 1 0.684597 0.390499 0.502202
61 1 0.667142 0.457576 0.499873
10 1 0.781262 0.342592 0.50312
62 1 0.0321874 0.466893 0.494617
25 1 0.0601483 0.555761 0.502002
67 1 0.0844554 0.461399 0.496245
4 1 0.190311 0.500098 0.501495
54 1 0.311602 0.490828 0.501847
33 1 0.431838 0.488749 0.500598
28 1 0.547719 0.482878 0.500501
60 1 0.731322 0.480101 0.50398
13 1 0.858511 0.466222 0.501266
45 1 0.963119 0.498503 0.496351
42 1 0.0245784 0.668668 0.503152
37 1 0.141483 0.636806 0.499697
26 1 0.358527 0.589453 0.497567
34 1 0.494571 0.600815 0.498271
46 1 0.59739 0.651583 0.504457
35 1 0.635927 0.552598 0.493155
15 1 0.772448 0.603971 0.50632
39 1 0.929943 0.596315 0.493256
2 1 0.106512 0.7695 0.502694
36 1 0.285283 0.688916 0.49756
6 1 0.421922 0.718325 0.501868
77 1 0.529002 0.681617 0.498537
29 1 0.653016 0.754803 0.505072
73 1 0.677865 0.667739 0.501399
16 1 0.810246 0.753124 0.497853
70 1 0.877635 0.658937 0.500883
23 1 0.950937 0.740282 0.495191
21 1 0.0284583 0.868177 0.4977
65 1 0.193608 0.834897 0.507669
63 1 0.211329 0.769771 0.498224
8 1 0.306489 0.836184 0.500622
38 1 0.456652 0.857152 0.498517
5 1 0.593333 0.887709 0.497517
27 1 0.736413 0.876074 0.499827
18 1 0.890875 0.861542 0.505405
44 1 0.140717 0.889739 0.49244
22 1 0.250733 0.969797 0.497329
52 1 0.391837 0.936661 0.498746
48 1 0.690912 0.97678 0.503228
17 1 0.810454 0.994686 0.499608
3 1 0.960543 0.993081 0.504324
ITEM: TIMESTEP
3250
ITEM: NUMBER OF ATOMS
65
ITEM: BOX BOUNDS pp pp pp
-4.8106786602845748e+00 4.8106786602845748e+00
-4.8319999501587318e+00 4.8319999501587318e+00
-1.0000000000000001e-01 1.0000000000000001e-01
ITEM: ATOMS id type xs ys zs
56 1 0.0232241 0.0974804 0.498414
20 1 0.109958 0.997817 0.500637
58 1 0.356871 0.016782 0.492794
64 1 0.718687 0.048453 0.504282
59 1 0.901088 0.0888643 0.501634
30 1 0.0575743 0.22854 0.498547
1 1 0.263226 0.205737 0.503688
12 1 0.381443 0.133149 0.507103
53 1 0.530009 0.147945 0.505878
9 1 0.64573 0.140162 0.501158
51 1 0.954267 0.174582 0.498964
40 1 0.157112 0.301513 0.502421
80 1 0.36175 0.245585 0.493934
24 1 0.455557 0.23244 0.498897
43 1 0.586044 0.231354 0.498409
14 1 0.933422 0.299223 0.49488
74 1 0.0577419 0.401789 0.501152
41 1 0.976479 0.40537 0.500044
7 1 0.278239 0.36692 0.504184
11 1 0.435337 0.359568 0.500821
19 1 0.590833 0.352347 0.504629
76 1 0.6846 0.390231 0.502207
61 1 0.666845 0.457459 0.499778
10 1 0.781441 0.341692 0.50242
62 1 0.0327456 0.467558 0.493969
25 1 0.0610408 0.556117 0.501117
67 1 0.0849884 0.462073 0.495071
4 1 0.191109 0.499612 0.502217
54 1 0.312055 0.490049 0.500663
33 1 0.43289 0.488239 0.49918
28 1 0.549201 0.482796 0.501077
60 1 0.731227 0.479936 0.503885
13 1 0.858662 0.466139 0.501202
45 1 0.963554 0.498944 0.495871
42 1 0.0241499 0.669065 0.501618
37 1 0.142565 0.636797 0.499886
26 1 0.357547 0.588788 0.499467
34 1 0.494288 0.600563 0.498355
46 1 0.596696 0.651319 0.504348
35 1 0.636424 0.552571 0.493287
15 1 0.772451 0.604113 0.50753
39 1 0.929504 0.596433 0.493471
2 1 0.107653 0.768733 0.502291
36 1 0.285325 0.689153 0.500156
6 1 0.422056 0.718479 0.502847
77 1 0.52824 0.681045 0.499594
29 1 0.653188 0.754784 0.505183
73 1 0.677438 0.667613 0.499705
16 1 0.810312 0.753231 0.500658
70 1 0.877669 0.659363 0.501194
23 1 0.950202 0.740578 0.495553
21 1 0.0285178 0.867599 0.49874
65 1 0.194609 0.834801 0.508395
63 1 0.212332 0.769795 0.496326
8 1 0.307438 0.836275 0.499245
38 1 0.457307 0.856468 0.497109
5 1 0.593393 0.888517 0.497787
27 1 0.736352 0.876251 0.500641
18 1 0.890362 0.86233 0.50514
44 1 0.140668 0.888458 0.490541
22 1 0.251037 0.969502 0.496522
52 1 0.393031 0.935919 0.498762
48 1 0.69072 0.977454 0.502686
17 1 0.810384 0.994755 0.499536
3 1 0.96077 0.993241 0.504993
ITEM: TIMESTEP
3500
ITEM: NUMBER OF ATOMS
65
ITEM: BOX BOUNDS pp pp pp