LAMMPS (23 Jun 2022 - Update 4)
  using 1 OpenMP thread(s) per MPI task
# Compute elastic constant tensor for a crystal
#
# Written by Aidan Thompson (Sandia, athomps@sandia.gov)
#
#  This script uses the following three include files.
#
#   init.mod      (must be modified for different crystal structures)
# 	       	  Define units, deformation parameters and initial
#		  configuration of the atoms and simulation cell.
#
#
#   potential.mod    (must be modified for different pair styles)
# 		     Define pair style and other attributes
#		     not stored in restart file
#
#
#   displace.mod    (displace.mod should not need to be modified)
# 		    Perform positive and negative box displacements
# 		    in direction ${dir} and size ${up}.
# 		    It uses the resultant changes
#		    in stress to compute one
# 		    row of the elastic stiffness tensor
#
#		    Inputs variables:
#		    	   dir = the Voigt deformation component
#		    		    (1,2,3,4,5,6)
#		    Global constants:
#       	    	   up = the deformation magnitude (strain units)
#       		   cfac = conversion from LAMMPS pressure units to
#               	   output units for elastic constants
#
#
#  To run this on a different system, it should only be necessary to
#  modify the files init.mod and potential.mod. In order to calculate
#  the elastic constants correctly, care must be taken to specify
#  the correct units in init.mod (units, cfac and cunits). It is also
#  important to verify that the minimization of energy w.r.t atom
#  positions in the deformed cell is fully converged.
#  One indication of this is that the elastic constants are insensitive
#  to the choice of the variable ${up} in init.mod. Another is to check
#  the final max and two-norm forces reported in the log file. If you know
#  that minimization is not required, you can set maxiter = 0.0 in
#  init.mod.
#



variable dt equal 0.01
variable strain equal 0.05
variable srate equal 1e-4
variable M equal 1000 # averaging time for properties
variable strainsteps equal ${strain}/${dt}/${srate}
variable strainsteps equal 0.05/${dt}/${srate}
variable strainsteps equal 0.05/0.01/${srate}
variable strainsteps equal 0.05/0.01/0.0001


dimension 2
include init.mod
# NOTE: This script can be modified for different atomic structures,
# units, etc. See in.elastic for more info.
#

# Define the finite deformation size. Try several values of this
# variable to verify that results do not depend on it.
variable up equal 1.0e-1

# Define the amount of random jiggle for atoms
# This prevents atoms from staying on saddle points
variable atomjiggle equal 1.0e-6

# Uncomment one of these blocks, depending on what units
# you are using in LAMMPS and for output

# metal units, elastic constants in eV/A^3
#units		metal
#variable cfac equal 6.2414e-7
#variable cunits string eV/A^3

# Choose potential
# metal units, elastic constants in GPa
units		metal
atom_style	full
#pair_style      lj/cut 1.0
#pair_style      yukawa 1.0 2.0
#pair_modify     mix arithmetic
bond_style      harmonic
angle_style     harmonic
dihedral_style  zero
special_bonds   amber
variable cfac equal 1.0e-4
variable cunits string GPa
boundary	p p p

# Need to set mass to something, just to satisfy LAMMPS
#mass 1 1.0e-20
read_data network.lmp
Reading data file ...
  orthogonal box = (-4.825391 -4.825391 -0.1) to (4.825391 4.825391 0.1)
  1 by 1 by 1 MPI processor grid
WARNING: Atom style in data file differs from currently defined atom style (src/read_data.cpp:538)
  reading atoms ...
  65 atoms
WARNING: Bond style in data file differs from currently defined bond style (src/read_data.cpp:630)
  scanning bonds ...
  5 = max bonds/atom
  reading bonds ...
  145 bonds
Finding 1-2 1-3 1-4 neighbors ...
  special bond factors lj:    0        0        0.5     
  special bond factors coul:  0        0        0.8333333333333334
     9 = max # of 1-2 neighbors
    39 = max # of 1-3 neighbors
   232 = max # of 1-4 neighbors
    31 = max # of special neighbors
  special bonds CPU = 0.000 seconds
  read_data CPU = 0.003 seconds

# real units, elastic constants in GPa
#units		real
#variable cfac equal 1.01325e-4
#variable cunits string GPa

# Define minimization parameters
variable etol equal 0.0
variable ftol equal 5.0e-10
variable maxiter equal 100000
variable maxeval equal 20000
variable dmax equal 1.0e-2


include potential.mod
# NOTE: This script can be modified for different pair styles
# See in.elastic for more info.

# Setup neighbor style
neighbor 3.0 nsq
neigh_modify once no every 1 delay 0 check yes
comm_modify cutoff 2.0

# Setup minimization style
min_style	     cg
min_modify	     dmax ${dmax} line quadratic
min_modify	     dmax 0.01 line quadratic

timestep	0.001


# Setup output
thermo		500
thermo_style custom step temp pe ebond eangle edihed press pxx pyy pzz pxy pxz pyz lx ly lz vol
thermo_modify norm no


#change_box all triclinic
comm_modify mode single cutoff 10.0 vel yes
atom_modify sort 0 0



# Compute initial state

#dump rela all atom 1 traj_relax.lmpstrj
fix 3 all box/relax x 0 y 0 # xy 0  #MS comment: relax if the network is periodic
minimize ${etol} ${ftol} ${maxiter} ${maxeval}
minimize 0 ${ftol} ${maxiter} ${maxeval}
minimize 0 5e-10 ${maxiter} ${maxeval}
minimize 0 5e-10 100000 ${maxeval}
minimize 0 5e-10 100000 20000
Neighbor list info ...
  update every 1 steps, delay 0 steps, check yes
  max neighbors/atom: 2000, page size: 100000
  master list distance cutoff = 0
  ghost atom cutoff = 10
  0 neighbor lists, perpetual/occasional/extra = 0 0 0
WARNING: Inconsistent image flags (src/domain.cpp:819)
Per MPI rank memory allocation (min/avg/max) = 8.908 | 8.908 | 8.908 Mbytes
   Step          Temp          PotEng         E_bond        E_angle        E_dihed         Press           Pxx            Pyy            Pzz            Pxy            Pxz            Pyz             Lx             Ly             Lz           Volume    
         0   0              5.0650216e-11  5.0650216e-11  0              0             -0.22310598    -0.17172173    -0.27449024     0             -0.079935756    0              0              9.650782       9.650782       0.2            93.137593    
       201   0              1.7207827e-15  1.7207827e-15  0              0              1.4080639e-08  2.3049511e-07 -2.0233383e-07  0              4.3076172e-06  0              0              9.6507826      9.6507811      0.2            93.13759     
Loop time of 0.0117769 on 1 procs for 201 steps with 65 atoms

96.3% CPU use with 1 MPI tasks x 1 OpenMP threads

Minimization stats:
  Stopping criterion = force tolerance
  Energy initial, next-to-last, final = 
    5.06502155703908e-11 1.72080764888073e-15 1.7207827212975e-15
  Force two-norm initial, final = 3.4416375e-05 3.9157306e-10
  Force max component initial, final = 1.5956644e-05 1.1686898e-10
  Final line search alpha, max atom move = 1 1.1686898e-10
  Iterations, force evaluations = 201 402

MPI task timing breakdown:
Section |  min time  |  avg time  |  max time  |%varavg| %total
---------------------------------------------------------------
Pair    | 0          | 0          | 0          |   0.0 |  0.00
Bond    | 0.001723   | 0.001723   | 0.001723   |   0.0 | 14.63
Neigh   | 0          | 0          | 0          |   0.0 |  0.00
Comm    | 0.003553   | 0.003553   | 0.003553   |   0.0 | 30.17
Output  | 0          | 0          | 0          |   0.0 |  0.00
Modify  | 0          | 0          | 0          |   0.0 |  0.00
Other   |            | 0.006501   |            |       | 55.20

Nlocal:             65 ave          65 max          65 min
Histogram: 1 0 0 0 0 0 0 0 0 0
Nghost:            553 ave         553 max         553 min
Histogram: 1 0 0 0 0 0 0 0 0 0
Neighs:              0 ave           0 max           0 min
Histogram: 1 0 0 0 0 0 0 0 0 0

Total # of neighbors = 0
Ave neighs/atom = 0
Ave special neighs/atom = 24.061538
Neighbor list builds = 0
Dangerous builds = 0
#dump rela all atom 1 traj_relax.lmpstrj
thermo 100
unfix 3

fix 2d all enforce2d



#dump dump0 all xyz 1000000 cfg0.xyz
#dump_modify dump0 format line "%d %20.10g %20.10g %20.10g"
#minimize ${etol} ${ftol} ${maxiter} ${maxeval}

#undump rela

#write_restart restart.equil

# These formulas define the derivatives w.r.t. strain components
# Constants uses $, variables use v_


timestep        ${dt}
timestep        0.01
variable nsteps equal round(${strainsteps})
variable nsteps equal round(50000)

fix             4 all nve
fix             5 all langevin 0.1 0.1 1 904297
#fix		6 all press/berendsen y  0.0 0.0 1 x 0.0 0.0 10
fix             6 all nph y 0.0 0.0 10 ptemp 0.1 # x 0.0 0.0 10

# For PLUMED2
# fix 22 all plumed plumedfile plumed.dat outfile plumed.out

#fix             6 all nph x 0.0 0.0 10
fix     	9 all deform 1 x erate -${srate} units box remap x
fix     	9 all deform 1 x erate -0.0001 units box remap x

#fix     8 all deform 1 xy erate ${srate} units box remap x



#fix    10 all ave/time

dump 1 all atom 250 deform_dump.lammpstrj


#To avoid flying ice cube phenomenon:
#fix 21 all momentum 100 linear 1 1 1 angular


run  ${nsteps}
run  50000
WARNING: One or more atoms are time integrated more than once (src/modify.cpp:292)
WARNING: Inconsistent image flags (src/domain.cpp:819)
Per MPI rank memory allocation (min/avg/max) = 7.783 | 7.783 | 7.783 Mbytes
   Step          Temp          PotEng         E_bond        E_angle        E_dihed         Press           Pxx            Pyy            Pzz            Pxy            Pxz            Pyz             Lx             Ly             Lz           Volume    
       201   0              1.7207827e-15  1.7207827e-15  0              0              1.4080639e-08  2.3049511e-07 -2.0233383e-07  0              4.3076172e-06  0              0              9.6507826      9.6507811      0.2            93.13759     
       300   0.18882855     0.00049469119  0.00049469119  0              0             -276.74293     -457.7078      -95.94409       0             -200.80853      0              0              9.6498271      9.656692       0.2            93.185409    
       400   0.19924145     0.0011631918   0.0011631918   0              0             -4.6523764      96.593087     -106.07916      0             -479.28717      0              0              9.6488621      9.6603801      0.2            93.211675    
       500   0.22386748     0.0010463061   0.0010463061   0              0             -255.00836     -476.36928     -33.845625      0             -30.786092      0              0              9.647897       9.6638736      0.2            93.236057    
       600   0.21660322     0.0010566641   0.0010566641   0              0              124.14325      251.26382     -3.158009       0              276.63656      0              0              9.6469319      9.659902       0.2            93.188417    
       700   0.20406993     0.0010805453   0.0010805453   0              0             -147.96261     -309.96244      13.852848      0              502.62536      0              0              9.6459668      9.6572215      0.2            93.153238    
       800   0.23924399     0.0011629768   0.0011629768   0              0              111.04179      5.3036717      216.61388      0              221.93259      0              0              9.6450017      9.6498062      0.2            93.072398    
       900   0.22301375     0.001116156    0.001116156    0              0              425.02324      648.40382      201.44587      0              166.96298      0              0              9.6440367      9.6473825      0.2            93.03971     
      1000   0.2092181      0.0010361018   0.0010361018   0              0              345.52061      599.95774      90.904973      0             -6.7304846      0              0              9.6430716      9.6567249      0.2            93.120489    
      1100   0.20654764     0.0011427699   0.0011427699   0              0             -157.27934     -113.24381     -201.49787      0             -53.164363      0              0              9.6421065      9.6601383      0.2            93.144082    
      1200   0.21019797     0.00092217628  0.00092217628  0              0             -292.87118     -169.01967     -416.90442      0              6.1755127      0              0              9.6411414      9.6642831      0.2            93.17472     
      1300   0.23054543     0.001107437    0.001107437    0              0             -387.22808     -334.46594     -440.22481      0              293.26094      0              0              9.6401763      9.6636577      0.2            93.159364    
      1400   0.17627239     0.001076613    0.001076613    0              0              67.406356      500.99697     -366.3807       0              100.67743      0              0              9.6392113      9.6665167      0.2            93.177597    
      1500   0.21416086     0.0010755078   0.0010755078   0              0              329.41403      642.99073      15.637535      0              397.60249      0              0              9.6382462      9.6634337      0.2            93.138553    
      1600   0.25035338     0.0011171569   0.0011171569   0              0              153.88568     -142.68907      450.24263      0             -1006.8501      0              0              9.6372811      9.6594768      0.2            93.091093    
      1700   0.17968285     0.0011102519   0.0011102519   0              0             -168.11417     -1067.3066      730.91508      0             -257.3781       0              0              9.636316       9.6634183      0.2            93.119753    
      1800   0.19774915     0.0012059279   0.0012059279   0              0              522.76718      319.21086      726.12028      0              146.818        0              0              9.635351       9.6587985      0.2            93.065914    
      1900   0.2075169      0.00088425694  0.00088425694  0              0              100.13168     -91.681211      291.75664      0             -68.807941      0              0              9.6343859      9.6580529      0.2            93.049408    
      2000   0.21376945     0.001071354    0.001071354    0              0             -74.128649      268.80011     -417.26287      0              15.002614      0              0              9.6334208      9.6657637      0.2            93.114369    
      2100   0.1839089      0.00090967615  0.00090967615  0              0             -590.81267     -281.81946     -899.97962      0             -55.975326      0              0              9.6324557      9.669693       0.2            93.14289     
      2200   0.17760045     0.00090944615  0.00090944615  0              0             -1009.5809     -950.80071     -1068.5599      0              38.705034      0              0              9.6314906      9.6702011      0.2            93.138452    
      2300   0.16849936     0.00090856124  0.00090856124  0              0             -386.08196     -179.47076     -592.87504      0              348.50082      0              0              9.6305256      9.6613116      0.2            93.043508    
      2400   0.18426242     0.0010771791   0.0010771791   0              0              315.67248      609.68524      21.474897      0              880.67607      0              0              9.6295605      9.6647671      0.2            93.067459    
      2500   0.19706272     0.0012897357   0.0012897357   0              0              253.66609     -414.35839      921.50283      0              705.90261      0              0              9.6285954      9.6632811      0.2            93.043824    
      2600   0.25230235     0.0010551453   0.0010551453   0              0              805.50309      187.10315      1423.6928      0              28.174689      0              0              9.6276303      9.6629516      0.2            93.031326    
      2700   0.22054951     0.0010813257   0.0010813257   0              0              531.41582     -153.99141      1216.5938      0              165.36015      0              0              9.6266653      9.6656228      0.2            93.047715    
      2800   0.21566131     0.0009917123   0.0009917123   0              0              124.2843      -185.1868       433.55193      0             -372.0907       0              0              9.6257002      9.6704512      0.2            93.084864    
      2900   0.23201227     0.0010751006   0.0010751006   0              0             -386.78934     -145.85009     -627.922        0              277.78371      0              0              9.6247351      9.6751975      0.2            93.121213    
      3000   0.25109319     0.00096601174  0.00096601174  0              0             -641.16572      43.810111     -1326.3369      0             -61.981943      0              0              9.62377        9.6782662      0.2            93.141408    
      3100   0.18743962     0.0011632036   0.0011632036   0              0             -733.23774     -160.33476     -1306.3293      0              994.16883      0              0              9.6228049      9.676478       0.2            93.11486     
      3200   0.22076679     0.0010343658   0.0010343658   0              0             -142.71837      426.72434     -712.33647      0              1322.719       0              0              9.6218399      9.6739387      0.2            93.081089    
      3300   0.18836243     0.00097854194  0.00097854194  0              0              475.29557      752.17437      198.25616      0              435.00005      0              0              9.6208748      9.6663564      0.2            92.998805    
      3400   0.25387828     0.00096259251  0.00096259251  0              0              1481.0801      2076.7102      885.24989      0              133.56269      0              0              9.6199097      9.6665582      0.2            92.991417    
      3500   0.23911722     0.0014739735   0.0014739735   0              0              1492.1004      1898.4191      1085.6         0             -123.81231      0              0              9.6189446      9.6674557      0.2            92.990721    
      3600   0.22499056     0.0010187965   0.0010187965   0              0              770.9429       749.21328      792.50869      0             -573.78779      0              0              9.6179795      9.6633672      0.2            92.942068    
      3700   0.23732627     0.0010662464   0.0010662464   0              0              509.61612      877.92016      141.12237      0              283.73493      0              0              9.6170145      9.6674397      0.2            92.971908    
      3800   0.22258757     0.00083634639  0.00083634639  0              0              183.72005      935.49725     -568.21555      0             -30.933522      0              0              9.6160494      9.6816784      0.2            93.099498    
      3900   0.22697448     0.0010686854   0.0010686854   0              0             -177.60637      679.17147     -1034.596       0              184.56137      0              0              9.6150843      9.6858183      0.2            93.12996     
      4000   0.23981346     0.0011826029   0.0011826029   0              0             -637.81838     -315.8437      -959.949        0              142.86273      0              0              9.6141192      9.6845095      0.2            93.108029    
      4100   0.21598476     0.0011865052   0.0011865052   0              0             -742.51361     -1161.9008     -323.34534      0              176.61829      0              0              9.6131542      9.6802689      0.2            93.057917    
      4200   0.26738476     0.0011759657   0.0011759657   0              0             -30.455539     -462.42916      401.29517      0             -292.69184      0              0              9.6121891      9.6768552      0.2            93.015762    
      4300   0.21482163     0.0013576661   0.0013576661   0              0              643.21322      397.00114      889.24401      0              380.91813      0              0              9.611224       9.676169       0.2            92.999827    
      4400   0.20661976     0.0011786162   0.0011786162   0              0              653.97582      495.17504      812.55353      0              12.480896      0              0              9.6102589      9.6802806      0.2            93.030003    
      4500   0.16147373     0.0011035637   0.0011035637   0              0              362.39779      401.31805      323.26189      0             -163.69174      0              0              9.6092938      9.6832475      0.2            93.049171    
      4600   0.21565682     0.0010030995   0.0010030995   0              0             -432.88113     -564.77502     -301.17142      0              376.94434      0              0              9.6083288      9.6812358      0.2            93.020496    
      4700   0.1736405      0.00093989432  0.00093989432  0              0             -966.99097     -1148.2415     -785.92577      0              216.59968      0              0              9.6073637      9.6940835      0.2            93.134586    
      4800   0.19489913     0.00093092555  0.00093092555  0              0             -432.46881     -108.61535     -756.51133      0              222.4364       0              0              9.6063986      9.6903281      0.2            93.089154    
      4900   0.19515049     0.0011188075   0.0011188075   0              0             -302.45836     -256.80431     -348.28918      0              384.75649      0              0              9.6054335      9.6870911      0.2            93.04871     
      5000   0.20003092     0.00094416911  0.00094416911  0              0              298.43507      231.18447      365.48366      0              153.52422      0              0              9.6044685      9.6805872      0.2            92.976894    
      5100   0.21353646     0.0012123831   0.0012123831   0              0              500.24325      237.45073      762.82806      0              231.88463      0              0              9.6035034      9.6789575      0.2            92.951901    
      5200   0.23840979     0.0013286877   0.0013286877   0              0              451.14674      350.26637      551.81546      0             -268.39874      0              0              9.6025383      9.6803503      0.2            92.955934    
      5300   0.21412862     0.0011888137   0.0011888137   0              0              80.438603      17.350786      143.31534      0              290.82933      0              0              9.6015732      9.6852816      0.2            92.993941    
      5400   0.21725302     0.0010568747   0.0010568747   0              0             -322.00444     -235.51897     -408.71457      0             -61.389729      0              0              9.6006081      9.6958934      0.2            93.086473    
      5500   0.21919057     0.001049142    0.001049142    0              0             -239.57353      152.53409     -631.89451      0              17.5374        0              0              9.5996431      9.696148       0.2            93.07956     
      5600   0.17778626     0.0012071472   0.0012071472   0              0             -208.86858      50.827431     -468.80789      0              1384.0391      0              0              9.598678       9.6964282      0.2            93.072892    
      5700   0.20323531     0.00093403973  0.00093403973  0              0              166.68592      448.45907     -115.27456      0              73.36439       0              0              9.5977129      9.6949919      0.2            93.049749    
      5800   0.18800917     0.001144083    0.001144083    0              0              565.29297      720.24678      410.17563      0             -411.4992       0              0              9.5967478      9.6987863      0.2            93.076806    
      5900   0.19840548     0.0010076886   0.0010076886   0              0              580.63365      554.26363      606.82556      0              309.33615      0              0              9.5957827      9.6933204      0.2            93.014996    
      6000   0.18326411     0.0011210287   0.0011210287   0              0              571.99311      780.25203      363.5255       0              683.81417      0              0              9.5948177      9.6878786      0.2            92.953429    
      6100   0.22623036     0.00096203096  0.00096203096  0              0              267.05435      724.61449     -190.67159      0              468.06846      0              0              9.5938526      9.6895849      0.2            92.960449    
      6200   0.22644844     0.0010654985   0.0010654985   0              0             -121.88877      283.86322     -527.82013      0              393.11499      0              0              9.5928875      9.6917965      0.2            92.972314    
      6300   0.23434817     0.0011319642   0.0011319642   0              0              357.285        1279.2318     -564.82715      0              877.71902      0              0              9.5919224      9.6929375      0.2            92.973905    
      6400   0.23351482     0.0010359617   0.0010359617   0              0              480.39416      1116.3902     -155.80729      0              1077.8516      0              0              9.5909574      9.6874206      0.2            92.911638    
      6500   0.18869716     0.0011119795   0.0011119795   0              0              942.61151      1584.445       300.60462      0              1350.4945      0              0              9.5899923      9.6869843      0.2            92.898104    
      6600   0.19056762     0.0010169188   0.0010169188   0              0              680.53187      794.03506      566.81952      0              870.04081      0              0              9.5890272      9.6886455      0.2            92.904685    
      6700   0.20897058     0.0013147478   0.0013147478   0              0              217.1989       25.408428      408.79908      0              186.68106      0              0              9.5880621      9.6953109      0.2            92.959243    
      6800   0.20249384     0.0012218928   0.0012218928   0              0              265.06405      660.05188     -130.12996      0              1080.2846      0              0              9.587097       9.6969243      0.2            92.965354    
      6900   0.21101647     0.0013386537   0.0013386537   0              0              173.54363      863.35024     -516.47539      0              986.02762      0              0              9.586132       9.6994125      0.2            92.979848    
      7000   0.21053712     0.001188335    0.001188335    0              0             -588.82349     -630.28421     -547.5769       0              303.88251      0              0              9.5851669      9.6973815      0.2            92.95102     
      7100   0.23152269     0.0013572702   0.0013572702   0              0              847.65191      1737.0007     -41.896423      0              775.03331      0              0              9.5842018      9.6921777      0.2            92.891787    
      7200   0.23765194     0.0011999032   0.0011999032   0              0              459.12722      409.67898      508.40686      0              201.0866       0              0              9.5832367      9.6975909      0.2            92.934309    
      7300   0.19707633     0.001347178    0.001347178    0              0              1513.2664      2464.6955      561.65813      0              455.33261      0              0              9.5822717      9.6966182      0.2            92.91563     
      7400   0.21564225     0.0010851253   0.0010851253   0              0              271.81564      337.88011      205.56535      0              545.18916      0              0              9.5813066      9.7010011      0.2            92.948266    
      7500   0.18175195     0.0011960542   0.0011960542   0              0             -246.50214     -249.71463     -243.49634      0              321.13418      0              0              9.5803415      9.7069564      0.2            92.995957    
      7600   0.23608009     0.0010436553   0.0010436553   0              0             -293.3132      -149.66829     -437.15226      0              84.950104      0              0              9.5793764      9.7021708      0.2            92.940746    
      7700   0.19647588     0.0011839364   0.0011839364   0              0              125.23637      494.92481     -244.68495      0             -756.92242      0              0              9.5784113      9.7039372      0.2            92.948302    
      7800   0.19711148     0.0011562272   0.0011562272   0              0              603.7498       1162.5133      44.752717      0              416.67389      0              0              9.5774463      9.7049175      0.2            92.948326    
      7900   0.20389318     0.0011394253   0.0011394253   0              0              667.92539      1034.5767      301.03882      0             -180.15637      0              0              9.5764812      9.7032956      0.2            92.923428    
      8000   0.18729102     0.0011194138   0.0011194138   0              0              665.92578      930.32014      401.2859       0              312.51482      0              0              9.5755161      9.7046576      0.2            92.927105    
      8100   0.16564567     0.0012559005   0.0012559005   0              0              601.77758      1070.9868      132.35761      0              143.88373      0              0              9.574551       9.7002123      0.2            92.875177    
      8200   0.22111025     0.0010788645   0.0010788645   0              0              42.372605      268.67805     -184.09909      0              141.75771      0              0              9.5735859      9.7063922      0.2            92.92498     
      8300   0.22887951     0.0010690818   0.0010690818   0              0              366.93087      1163.4418     -429.80033      0              155.06041      0              0              9.5726209      9.7103306      0.2            92.953314    
      8400   0.20817508     0.0012623559   0.0012623559   0              0              706.66229      1786.3382     -373.23757      0              172.44024      0              0              9.5716558      9.710638       0.2            92.946885    
      8500   0.1531265      0.0012489501   0.0012489501   0              0              404.74917      816.74179     -7.4460862      0              984.0546       0              0              9.5706907      9.7132093      0.2            92.962122    
      8600   0.21030081     0.0011341423   0.0011341423   0              0              749.32705      1137.5634      360.90032      0             -131.5643       0              0              9.5697256      9.7067374      0.2            92.890814    
      8700   0.22746906     0.0010432644   0.0010432644   0              0              862.87002      1299.9805      425.59783      0              142.63653      0              0              9.5687606      9.7109289      0.2            92.921554    
      8800   0.18592644     0.0013323398   0.0013323398   0              0              771.06833      1316.6417      225.32314      0              794.18669      0              0              9.5677955      9.7131115      0.2            92.933065    
      8900   0.20033257     0.001171368    0.001171368    0              0              296.01902      759.68916     -167.85098      0              84.480913      0              0              9.5668304      9.7158037      0.2            92.949446    
      9000   0.21641758     0.0010915141   0.0010915141   0              0              312.63832      1016.6367     -391.58408      0              332.04865      0              0              9.5658653      9.7223995      0.2            93.003165    
      9100   0.17302576     0.0010656607   0.0010656607   0              0              69.65781       441.22096     -302.07386      0              652.77772      0              0              9.5649002      9.7166372      0.2            92.938665    
      9200   0.16584709     0.0011744451   0.0011744451   0              0              147.12897      234.49885      59.548942      0              586.51242      0              0              9.5639352      9.7177374      0.2            92.93981     
      9300   0.15387236     0.0012898404   0.0012898404   0              0              1273.1815      2247.0476      299.14884      0              594.55239      0              0              9.5629701      9.7114993      0.2            92.870777    
      9400   0.21710804     0.001055939    0.001055939    0              0              567.20201      674.01887      460.19546      0              556.92124      0              0              9.562005       9.7122471      0.2            92.868555    
      9500   0.21993891     0.0013335698   0.0013335698   0              0              790.78178      1381.5946      199.80972      0              853.55675      0              0              9.5610399      9.7118764      0.2            92.855638    
      9600   0.2206685      0.0012065642   0.0012065642   0              0             -310.82327     -346.73178     -275.06679      0              1172.2116      0              0              9.5600749      9.716964       0.2            92.894903    
      9700   0.23764724     0.0010120167   0.0010120167   0              0             -225.92386      69.724381     -521.79356      0              503.40108      0              0              9.5591098      9.720001       0.2            92.914557    
      9800   0.19161285     0.0011230585   0.0011230585   0              0              286.65547      818.17431     -245.04477      0              1030.3512      0              0              9.5581447      9.7170954      0.2            92.877404    
      9900   0.22877098     0.0013289664   0.0013289664   0              0              561.56085      879.86103      243.09348      0              1080.5125      0              0              9.5571796      9.7160893      0.2            92.858411    
     10000   0.19188284     0.0012324436   0.0012324436   0              0              959.03475      1271.7581      646.16887      0              199.9233       0              0              9.5562145      9.7173506      0.2            92.861087    
     10100   0.22234        0.0010020864   0.0010020864   0              0             -54.665379     -530.30333      420.79476      0              37.853983      0              0              9.5552495      9.7162074      0.2            92.840785    
     10200   0.16382553     0.0011054806   0.0011054806   0              0             -378.75265     -598.85719     -158.82137      0             -29.350373      0              0              9.5542844      9.7199828      0.2            92.86748     
     10300   0.15294428     0.0012499339   0.0012499339   0              0             -157.3587       198.25418     -513.18634      0             -371.0082       0              0              9.5533193      9.7169539      0.2            92.829163    
     10400   0.21025593     0.0012032369   0.0012032369   0              0              115.92971      571.80255     -340.12568      0             -254.187        0              0              9.5523542      9.7233038      0.2            92.880442    
     10500   0.18627769     0.0010685064   0.0010685064   0              0              807.85852      1424.4538      191.07593      0              382.52921      0              0              9.5513891      9.72158        0.2            92.854594    
     10600   0.17555247     0.0010984327   0.0010984327   0              0              969.07328      1276.1173      661.84388      0              483.73464      0              0              9.5504241      9.7189707      0.2            92.820292    
     10700   0.22211537     0.0010476104   0.0010476104   0              0              903.28539      1364.9531      441.45227      0              220.33083      0              0              9.549459       9.722682       0.2            92.846353    
     10800   0.21478293     0.0011031192   0.0011031192   0              0              93.670972      479.74157     -292.59576      0             -350.20732      0              0              9.5484939      9.7299632      0.2            92.906494    
     10900   0.20415238     0.0012642385   0.0012642385   0              0             -102.68078      361.41983     -566.96523      0              118.18099      0              0              9.5475288      9.7277803      0.2            92.876263    
     11000   0.17633135     0.0012712251   0.0012712251   0              0              595.13423      1447.3785     -257.3254       0             -529.64197      0              0              9.5465638      9.7184465      0.2            92.777769    
     11100   0.17164442     0.001003201    0.001003201    0              0              811.06806      1165.77        456.16347      0              8.8055725      0              0              9.5455987      9.7171316      0.2            92.755838    
     11200   0.18239875     0.001043931    0.001043931    0              0              391.44936      111.62908      671.08461      0             -176.48653      0              0              9.5446336      9.721915       0.2            92.792116    
     11300   0.24686721     0.00096890215  0.00096890215  0              0              727.81924      1207.5567      247.85999      0             -51.683998      0              0              9.5436685      9.7252648      0.2            92.814703    
     11400   0.17987084     0.0012386838   0.0012386838   0              0             -70.136611      283.47033     -423.91922      0             -55.661997      0              0              9.5427034      9.7284457      0.2            92.835672    
     11500   0.19762235     0.0011434706   0.0011434706   0              0              68.686786      911.77583     -774.56861      0              701.27693      0              0              9.5417384      9.7324858      0.2            92.864833    
     11600   0.2135971      0.0010612802   0.0010612802   0              0             -135.51618     -163.58838     -107.6386       0             -60.470292      0              0              9.5407733      9.7278353      0.2            92.811072    
     11700   0.17592633     0.0011388283   0.0011388283   0              0              189.76805     -131.68575      510.98723      0              147.11092      0              0              9.5398082      9.7265517      0.2            92.789437    
     11800   0.25684077     0.00091937768  0.00091937768  0              0             -59.084865     -542.20598      423.81078      0              675.12443      0              0              9.5388431      9.7277674      0.2            92.791647    
     11900   0.19112084     0.00097811556  0.00097811556  0              0             -265.89075     -496.0852      -35.900321      0              572.49689      0              0              9.5378781      9.7319524      0.2            92.822175    
     12000   0.19051797     0.00089064451  0.00089064451  0              0              121.95945      506.09721     -262.36517      0              326.24463      0              0              9.536913       9.7332555      0.2            92.82521     
     12100   0.18367455     0.00091720209  0.00091720209  0              0             -579.18516     -930.00529     -228.54832      0              16.71855       0              0              9.5359479      9.7403903      0.2            92.883855    
     12200   0.19976458     0.0008765015   0.0008765015   0              0              74.311899      169.15884     -20.738744      0              134.64326      0              0              9.5349828      9.7350722      0.2            92.823746    
     12300   0.222078       0.0010334698   0.0010334698   0              0             -689.21334     -1414.2656      35.670023      0             -840.2898       0              0              9.5340177      9.7335603      0.2            92.799937    
     12400   0.20996985     0.0011480569   0.0011480569   0              0             -333.69248     -823.18509      155.61942      0              225.03318      0              0              9.5330527      9.7418136      0.2            92.869222    
     12500   0.22182068     0.0010433678   0.0010433678   0              0             -431.23981     -889.63449      26.97352       0              311.60277      0              0              9.5320876      9.7424343      0.2            92.865737    
     12600   0.19806772     0.0010057897   0.0010057897   0              0              73.105749      272.82904     -126.83189      0             -162.26788      0              0              9.5311225      9.7378695      0.2            92.812827    
     12700   0.13997074     0.0011263757   0.0011263757   0              0             -143.20289     -68.612086     -217.9695       0              130.13495      0              0              9.5301574      9.7367091      0.2            92.792371    
     12800   0.19089274     0.00090140427  0.00090140427  0              0             -158.1641      -147.77752     -168.71753      0              110.3373       0              0              9.5291923      9.7362626      0.2            92.77872     
     12900   0.20441572     0.001159524    0.001159524    0              0             -48.380357     -359.03114      262.05942      0             -80.593769      0              0              9.5282273      9.730979       0.2            92.718979    
     13000   0.19246766     0.00091078822  0.00091078822  0              0              794.71625      1208.695       380.54012      0             -397.05122      0              0              9.5272622      9.7328333      0.2            92.727255    
     13100   0.16964235     0.0011604716   0.0011604716   0              0              199.77422      549.13428     -149.74418      0             -10.364421      0              0              9.5262971      9.7449865      0.2            92.833637    
     13200   0.18993818     0.0012668103   0.0012668103   0              0              29.539971      355.83341     -296.97357      0              36.666451      0              0              9.525332       9.745167       0.2            92.825952    
     13300   0.1875665      0.0012794267   0.0012794267   0              0              587.86533      1403.9755     -228.48287      0             -375.14323      0              0              9.524367       9.7497288      0.2            92.859995    
     13400   0.25261183     0.00091324327  0.00091324327  0              0              532.14721      914.53903      149.56243      0             -599.98278      0              0              9.5234019      9.7517061      0.2            92.869416    
     13500   0.21888779     0.001139356    0.001139356    0              0              447.3662       596.31851      298.22787      0             -504.1993       0              0              9.5224368      9.7475861      0.2            92.820773    
     13600   0.18522832     0.0012857246   0.0012857246   0              0              311.23057      636.73081     -14.468865      0             -115.72678      0              0              9.5214717      9.7434055      0.2            92.77156     
     13700   0.23477911     0.0010345915   0.0010345915   0              0             -562.79182     -808.44912     -317.29153      0             -421.13674      0              0              9.5205066      9.7478654      0.2            92.804617    
     13800   0.28566435     0.0011878659   0.0011878659   0              0             -735.78549     -1226.1031     -245.68489      0             -441.01989      0              0              9.5195416      9.7438812      0.2            92.757282    
     13900   0.16995137     0.0013468234   0.0013468234   0              0              221.65364      155.91387      287.21054      0             -987.06453      0              0              9.5185765      9.7410344      0.2            92.720781    
     14000   0.18900352     0.0011503892   0.0011503892   0              0              753.29056      1067.8855      438.49836      0             -944.00381      0              0              9.5176114      9.7439131      0.2            92.738779    
     14100   0.23326012     0.001155149    0.001155149    0              0              164.35409      289.75164      38.752791      0             -1115.7395      0              0              9.5166463      9.7492428      0.2            92.780095    
     14200   0.19070387     0.0012393849   0.0012393849   0              0             -227.52511      287.01554     -742.28753      0             -554.8512       0              0              9.5156813      9.75353        0.2            92.811483    
     14300   0.21429418     0.0011293359   0.0011293359   0              0              33.075398      350.84074     -284.89382      0             -654.07427      0              0              9.5147162      9.7542603      0.2            92.809019    
     14400   0.23436238     0.0012431419   0.0012431419   0              0              110.69405     -526.51712      747.74736      0             -793.2593       0              0              9.5137511      9.7542884      0.2            92.799872    
     14500   0.24284301     0.0012447894   0.0012447894   0              0              374.30486     -82.099733      830.52098      0             -223.58177      0              0              9.512786       9.7437989      0.2            92.690674    
     14600   0.19462818     0.001249544    0.001249544    0              0             -312.04226     -55.429378     -568.87505      0              29.774366      0              0              9.5118209      9.7513201      0.2            92.752811    
     14700   0.23024916     0.0012772746   0.0012772746   0              0             -923.10327     -596.59494     -1249.8077      0             -66.165161      0              0              9.5108559      9.7488215      0.2            92.719636    
     14800   0.19390836     0.0012001601   0.0012001601   0              0              349.96847      820.50315     -120.75604      0              307.82316      0              0              9.5098908      9.7445307      0.2            92.669423    
     14900   0.18392754     0.0009993127   0.0009993127   0              0              1075.9368      855.65027      1296.0269      0             -186.0431       0              0              9.5089257      9.7358406      0.2            92.577385    
     15000   0.20377881     0.0010482745   0.0010482745   0              0              1384.0046      2154.3485      613.46573      0              263.229        0              0              9.5079606      9.7383533      0.2            92.591879    
     15100   0.21424984     0.0014301868   0.0014301868   0              0             -646.89482     -304.52662     -989.45441      0              744.90518      0              0              9.5069955      9.7553807      0.2            92.744361    
     15200   0.19264259     0.0013703125   0.0013703125   0              0             -1311.8761     -1342.1388     -1281.8063      0              561.41177      0              0              9.5060305      9.7510722      0.2            92.69399     
     15300   0.23724431     0.0010109726   0.0010109726   0              0              71.469185     -196.94475      339.68377      0             -166.8901       0              0              9.5050654      9.7480374      0.2            92.655733    
     15400   0.18648585     0.0013340073   0.0013340073   0              0              1023.0208      711.66159      1334.1582      0             -572.61619      0              0              9.5041003      9.7397873      0.2            92.567916    
     15500   0.23538194     0.0012408153   0.0012408153   0              0              571.52181      653.63965      489.18113      0              1051.165       0              0              9.5031352      9.7475662      0.2            92.63244     
     15600   0.21221843     0.00099133643  0.00099133643  0              0             -860.4755      -748.62328     -972.50331      0              801.82039      0              0              9.5021702      9.7585959      0.2            92.727839    
     15700   0.2294869      0.0012356882   0.0012356882   0              0             -799.3712      -528.64234     -1070.2996      0              531.10622      0              0              9.5012051      9.7587717      0.2            92.720092    
     15800   0.20539855     0.0012249539   0.0012249539   0              0              908.58012      1402.7971      414.19157      0              621.04655      0              0              9.50024        9.745631       0.2            92.585834    
     15900   0.15101833     0.0011096908   0.0011096908   0              0              766.63131      355.3486       1177.7655      0             -2.9975437      0              0              9.4992749      9.7463111      0.2            92.582888    
     16000   0.23281942     0.00079035186  0.00079035186  0              0              134.08416      123.35937      144.65634      0              241.29173      0              0              9.4983098      9.7496106      0.2            92.604822    
     16100   0.16590598     0.0011846164   0.0011846164   0              0             -580.14861     -343.77902     -816.73087      0             -583.24644      0              0              9.4973448      9.7546832      0.2            92.643589    
     16200   0.19329861     0.0013139178   0.0013139178   0              0              219.59403      1026.7495     -587.75521      0             -342.89445      0              0              9.4963797      9.7491198      0.2            92.581343    
     16300   0.16136843     0.0013487704   0.0013487704   0              0              587.34874      954.82705      219.67302      0             -43.374027      0              0              9.4954146      9.7430706      0.2            92.514495    
     16400   0.16655179     0.0010360418   0.0010360418   0              0              254.04424     -209.8656       717.73562      0             -751.57882      0              0              9.4944495      9.7446084      0.2            92.519692    
     16500   0.19966371     0.0010518809   0.0010518809   0              0              166.36309      83.982541      248.57234      0              94.864757      0              0              9.4934845      9.7479321      0.2            92.541842    
     16600   0.19966015     0.0012629418   0.0012629418   0              0             -890.3921      -1279.4136     -501.54403      0              233.06319      0              0              9.4925194      9.7565134      0.2            92.613893    
     16700   0.21105227     0.00088795379  0.00088795379  0              0             -390.88933     -379.16665     -402.81195      0              31.073355      0              0              9.4915543      9.7565052      0.2            92.604399    
     16800   0.19448725     0.001084119    0.001084119    0              0              307.56809      303.92939      310.9704       0             -246.3416       0              0              9.4905892      9.7536622      0.2            92.568002    
     16900   0.20854956     0.0013135011   0.0013135011   0              0              1080.7492      1818.4367      342.87246      0             -582.83999      0              0              9.4896241      9.7571157      0.2            92.59136     
     17000   0.17749685     0.0010672671   0.0010672671   0              0             -142.94351     -222.12151     -63.949747      0             -528.93862      0              0              9.4886591      9.7516119      0.2            92.529721    
     17100   0.1850179      0.00095990436  0.00095990436  0              0             -279.72637     -291.44914     -268.20344      0              69.726826      0              0              9.487694       9.7621281      0.2            92.620084    
     17200   0.23723331     0.00097136423  0.00097136423  0              0             -121.58114     -202.13833     -41.194326      0             -149.88833      0              0              9.4867289      9.7621876      0.2            92.611227    
     17300   0.21577102     0.00080942479  0.00080942479  0              0              507.71036      747.62445      267.64828      0             -752.40091      0              0              9.4857638      9.7583925      0.2            92.565806    
     17400   0.21243589     0.0012521214   0.0012521214   0              0              204.1065       298.2001       109.76495      0             -311.72359      0              0              9.4847987      9.7598992      0.2            92.570679    
     17500   0.2096182      0.0011272206   0.0011272206   0              0             -762.85524     -1272.4175     -253.49413      0             -159.0276       0              0              9.4838337      9.764846       0.2            92.608175    
     17600   0.18565569     0.0015202569   0.0015202569   0              0             -462.22218     -754.06572     -170.58237      0             -367.38791      0              0              9.4828686      9.7638875      0.2            92.589662    
     17700   0.20536029     0.0015897092   0.0015897092   0              0             -371.4648      -1065.055       321.95471      0             -223.78167      0              0              9.4819035      9.7504505      0.2            92.452831    
     17800   0.20751669     0.00095679608  0.00095679608  0              0             -20.636958     -385.65613      344.19191      0             -142.70986      0              0              9.4809384      9.7579795      0.2            92.514803    
     17900   0.16830505     0.0010136555   0.0010136555   0              0             -61.711819      48.472845     -172.10645      0              699.91082      0              0              9.4799734      9.7599123      0.2            92.523708    
     18000   0.21507874     0.00101596     0.00101596     0              0             -355.63821     -333.42209     -378.06112      0              153.32826      0              0              9.4790083      9.7648162      0.2            92.560774    
     18100   0.20531222     0.0012461918   0.0012461918   0              0              733.45116      1339.0572      127.66838      0             -319.48453      0              0              9.4780432      9.7612833      0.2            92.517864    
     18200   0.20407533     0.001095693    0.001095693    0              0              91.533915     -187.53015      370.40056      0             -636.08037      0              0              9.4770781      9.7580113      0.2            92.477436    
     18300   0.20889104     0.0012846714   0.0012846714   0              0              142.82014      302.48113     -17.053236      0             -426.68646      0              0              9.476113       9.7626205      0.2            92.511696    
     18400   0.19833744     0.00088163618  0.00088163618  0              0             -379.09443     -295.22442     -463.17753      0             -230.61533      0              0              9.475148       9.7644158      0.2            92.519284    
     18500   0.16014215     0.0011297772   0.0011297772   0              0             -875.6854      -1521.6769     -229.91528      0             -347.11363      0              0              9.4741829      9.7562006      0.2            92.432028    
     18600   0.21528534     0.0010886993   0.0010886993   0              0              143.69824     -122.83572      410.02058      0              684.371        0              0              9.4732178      9.7581481      0.2            92.441062    
     18700   0.22763347     0.0010136657   0.0010136657   0              0              241.28771      85.158775      397.24148      0              143.65703      0              0              9.4722527      9.7613003      0.2            92.461504    
     18800   0.22907664     0.00095430374  0.00095430374  0              0             -379.47859     -470.97577     -288.18223      0              386.50309      0              0              9.4712877      9.7609941      0.2            92.449183    
     18900   0.20669944     0.0010936257   0.0010936257   0              0             -322.42594     -182.78595     -462.21859      0             -45.715464      0              0              9.4703226      9.7606053      0.2            92.436081    
     19000   0.22581084     0.001137798    0.001137798    0              0             -158.49742     -432.11516      114.94043      0             -495.29449      0              0              9.4693575      9.7611172      0.2            92.431509    
     19100   0.21905581     0.0010787953   0.0010787953   0              0              262.32366     -19.352694      543.80679      0             -350.86806      0              0              9.4683924      9.7613561      0.2            92.42435     
     19200   0.24392445     0.00098224374  0.00098224374  0              0             -120.12947     -65.112996     -175.36389      0              694.39293      0              0              9.4674273      9.7662264      0.2            92.461039    
     19300   0.22246181     0.0012367786   0.0012367786   0              0             -41.485447      390.08692     -473.26826      0              230.9194       0              0              9.4664623      9.7649198      0.2            92.439245    
     19400   0.20739428     0.001034113    0.001034113    0              0              976.79466      2030.4779     -77.086142      0             -466.07631      0              0              9.4654972      9.765223       0.2            92.432691    
     19500   0.20717204     0.00099912741  0.00099912741  0              0              722.88493      1025.0422      420.53049      0             -145.53811      0              0              9.4645321      9.7617514      0.2            92.390409    
     19600   0.19004414     0.001323583    0.001323583    0              0              234.18025      317.81722      150.35066      0              164.02996      0              0              9.463567       9.762597       0.2            92.388991    
     19700   0.20534129     0.0010160757   0.0010160757   0              0             -365.33816     -285.39267     -445.49805      0              823.92057      0              0              9.4626019      9.7632015      0.2            92.385289    
     19800   0.15669967     0.0011580378   0.0011580378   0              0             -490.57988     -711.92791     -269.41955      0              808.41866      0              0              9.4616369      9.7666355      0.2            92.408359    
     19900   0.18386868     0.0010657912   0.0010657912   0              0              389.93168      520.10282      259.57473      0              848.22617      0              0              9.4606718      9.7718277      0.2            92.448055    
     20000   0.22752963     0.00097475516  0.00097475516  0              0             -175.23036     -654.48896      303.81532      0             -130.90914      0              0              9.4597067      9.7714204      0.2            92.434771    
     20100   0.18043233     0.0011262545   0.0011262545   0              0             -266.94689     -322.94249     -211.13074      0              1049.4988      0              0              9.4587416      9.7767968      0.2            92.476195    
     20200   0.17091832     0.0012132765   0.0012132765   0              0             -164.66254      9.9222625     -339.42357      0             -621.99101      0              0              9.4577766      9.7763628      0.2            92.462655    
     20300   0.20001925     0.0012625625   0.0012625625   0              0              423.66687      784.02911      63.071264      0              570.85226      0              0              9.4568115      9.779263       0.2            92.480646    
     20400   0.24443045     0.001032284    0.001032284    0              0              840.27312      1278.4971      401.8619       0              264.86145      0              0              9.4558464      9.7753579      0.2            92.434283    
     20500   0.21369201     0.0011181241   0.0011181241   0              0              697.51292      1398.8762     -4.0147906      0              196.61851      0              0              9.4548813      9.7775809      0.2            92.445867    
     20600   0.19739388     0.0012197667   0.0012197667   0              0             -225.79801      94.401687     -546.19413      0             -123.3461       0              0              9.4539162      9.7839887      0.2            92.49701     
     20700   0.18453628     0.0010090061   0.0010090061   0              0              426.55237      1086.7537     -233.82884      0             -41.475732      0              0              9.4529512      9.772435       0.2            92.378351    
     20800   0.16672581     0.00096666898  0.00096666898  0              0              438.55755      275.20651      601.7499       0             -167.73465      0              0              9.4519861      9.7673412      0.2            92.320773    
     20900   0.23352026     0.00081049241  0.00081049241  0              0              196.45601      10.173716      382.49143      0             -12.506175      0              0              9.451021       9.7680273      0.2            92.317831    
     21000   0.20040673     0.0012893438   0.0012893438   0              0             -259.40145     -219.57484     -299.40667      0             -403.1704       0              0              9.4500559      9.7759432      0.2            92.38321     
     21100   0.23542318     0.0011381863   0.0011381863   0              0             -370.23534     -296.16917     -444.50242      0             -354.9831       0              0              9.4490909      9.7749632      0.2            92.364515    
     21200   0.20314        0.0013011947   0.0013011947   0              0              70.930146     -117.89407      259.54675      0             -226.90092      0              0              9.4481258      9.7716824      0.2            92.324084    
     21300   0.19826995     0.0011464742   0.0011464742   0              0              368.57456      156.36294      580.60357      0             -70.383575      0              0              9.4471607      9.7714551      0.2            92.312506    
     21400   0.21406933     0.0012197552   0.0012197552   0              0              98.462018      215.96816     -19.226379      0              213.12231      0              0              9.4461956      9.7761149      0.2            92.347094    
     21500   0.21034108     0.001143526    0.001143526    0              0             -653.48531     -634.69897     -672.45386      0              289.6891       0              0              9.4452305      9.7776297      0.2            92.351967    
     21600   0.21436176     0.0011502267   0.0011502267   0              0             -97.191936     -33.072374     -161.52299      0              921.32075      0              0              9.4442655      9.7716457      0.2            92.286016    
     21700   0.22311471     0.0010056024   0.0010056024   0              0              360.79083      146.59933      574.76944      0             -142.06803      0              0              9.4433004      9.7709585      0.2            92.270096    
     21800   0.1661014      0.001230536    0.001230536    0              0             -15.336323     -536.58712      505.7417       0              612.37962      0              0              9.4423353      9.7741769      0.2            92.291055    
     21900   0.19259592     0.0012055491   0.0012055491   0              0             -620.28841     -706.89064     -533.8779       0              1110.0286      0              0              9.4413702      9.7792288      0.2            92.329319    
     22000   0.20189515     0.0011986583   0.0011986583   0              0             -329.58834      17.500509     -676.87359      0              683.34231      0              0              9.4404051      9.7751084      0.2            92.280983    
     22100   0.20864162     0.00092558937  0.00092558937  0              0              988.17482      1516.6457      459.54994      0              538.47622      0              0              9.4394401      9.7718807      0.2            92.241083    
     22200   0.20717421     0.0012456824   0.0012456824   0              0              962.8584       1302.3064      623.22617      0             -273.65057      0              0              9.438475       9.772046       0.2            92.233212    
     22300   0.20529889     0.0011362955   0.0011362955   0              0              381.60188      1124.0618     -361.03078      0              946.24897      0              0              9.4375099      9.7754909      0.2            92.256292    
     22400   0.17972195     0.0013300051   0.0013300051   0              0             -37.884176      669.34918     -745.31923      0              15.572415      0              0              9.4365448      9.7765652      0.2            92.256996    
     22500   0.20352202     0.0010731042   0.0010731042   0              0              900.96516      1506.4252      295.31776      0              278.20409      0              0              9.4355798      9.7727547      0.2            92.211606    
     22600   0.16580773     0.0010983654   0.0010983654   0              0              907.52525      1005.3529      809.47178      0              408.11488      0              0              9.4346147      9.7782094      0.2            92.253638    
     22700   0.20888958     0.0011320102   0.0011320102   0              0              609.20926      1522.5509     -304.34248      0              739.4782       0              0              9.4336496      9.781752       0.2            92.277621    
     22800   0.206688       0.0011725062   0.0011725062   0              0             -391.10941     -3.8251422     -778.5425       0              681.16038      0              0              9.4326845      9.7760255      0.2            92.214164    
     22900   0.23929624     0.0011921533   0.0011921533   0              0              108.21156      45.373979      170.84312      0             -30.916854      0              0              9.4317194      9.7726767      0.2            92.173145    
     23000   0.20863312     0.0012234267   0.0012234267   0              0              578.29808      428.333        728.05644      0              113.90015      0              0              9.4307544      9.776165       0.2            92.19661     
     23100   0.21192284     0.0011888528   0.0011888528   0              0             -118.40302     -186.84501     -50.168056      0              254.41815      0              0              9.4297893      9.7801659      0.2            92.224903    
     23200   0.19446089     0.001487137    0.001487137    0              0             -215.46773      265.279       -696.40248      0             -194.0091       0              0              9.4288242      9.783065       0.2            92.2428      
     23300   0.22561631     0.0010617795   0.0010617795   0              0             -96.456639     -254.05185      60.966716      0             -186.32388      0              0              9.4278591      9.7814607      0.2            92.218234    
     23400   0.19052958     0.0010115494   0.0010115494   0              0              678.11464      646.08698      709.94972      0              953.9574       0              0              9.4268941      9.7772281      0.2            92.168893    
     23500   0.24521067     0.00097122348  0.00097122348  0              0             -72.336327     -278.85089      134.01614      0              626.95114      0              0              9.425929       9.7769614      0.2            92.156944    
     23600   0.21860736     0.0011938863   0.0011938863   0              0             -753.5444      -738.32419     -768.97299      0             -189.01234      0              0              9.4249639      9.787322       0.2            92.245157    
     23700   0.23253608     0.0010202282   0.0010202282   0              0              111.98815      552.31592     -328.52339      0             -42.547607      0              0              9.4239988      9.7871942      0.2            92.234507    
     23800   0.24133829     0.0010826111   0.0010826111   0              0              605.42393      406.14625      804.4853       0              415.43944      0              0              9.4230337      9.7806206      0.2            92.163118    
     23900   0.17574197     0.0012187794   0.0012187794   0              0              383.11172      373.92838      392.13412      0             -634.52515      0              0              9.4220687      9.7803868      0.2            92.151476    
     24000   0.23275204     0.0011120666   0.0011120666   0              0             -461.63508     -66.43833      -857.02893      0              698.94262      0              0              9.4211036      9.7854829      0.2            92.190048    
     24100   0.24810802     0.00094860465  0.00094860465  0              0             -0.51698        414.17035     -415.36685      0              149.29326      0              0              9.4201385      9.7840857      0.2            92.167443    
     24200   0.24515896     0.0011737734   0.0011737734   0              0              878.25678      843.50286      912.81079      0              481.82832      0              0              9.4191734      9.7743407      0.2            92.06621     
     24300   0.24427363     0.0011139993   0.0011139993   0              0              138.35956     -230.80286      507.3474       0              44.042255      0              0              9.4182083      9.7785162      0.2            92.096103    
     24400   0.19195116     0.0010456155   0.0010456155   0              0             -869.02552     -819.38021     -918.8711       0              332.82656      0              0              9.4172433      9.7916885      0.2            92.210713    
     24500   0.19581742     0.0011159629   0.0011159629   0              0             -605.38526     -552.40438     -658.5526       0              215.18746      0              0              9.4162782      9.7935358      0.2            92.218658    
     24600   0.25070955     0.0010952832   0.0010952832   0              0              549.79065      286.12511      813.26486      0              55.584057      0              0              9.4153131      9.7826345      0.2            92.106567    
     24700   0.21817746     0.0011752991   0.0011752991   0              0              847.8532       982.30609      713.19543      0              28.674284      0              0              9.414348       9.7833213      0.2            92.103591    
     24800   0.21584211     0.0011675768   0.0011675768   0              0             -183.30119      432.83511     -799.63302      0             -215.56522      0              0              9.413383       9.7901822      0.2            92.158735    
     24900   0.20392524     0.0011963299   0.0011963299   0              0             -372.69085      99.479101     -845.0729       0              926.10187      0              0              9.4124179      9.7900287      0.2            92.147842    
     25000   0.29167176     0.0011367907   0.0011367907   0              0              587.30514      611.51177      562.92297      0              187.09633      0              0              9.4114528      9.7811637      0.2            92.05496     
     25100   0.2063734      0.0012587598   0.0012587598   0              0              243.33116     -419.2494       905.66937      0              663.0883       0              0              9.4104877      9.7789532      0.2            92.024719    
     25200   0.19884295     0.00097186044  0.00097186044  0              0             -346.16154     -250.5433      -441.97318      0              505.10858      0              0              9.4095226      9.7825857      0.2            92.049462    
     25300   0.24310762     0.0012291092   0.0012291092   0              0             -220.68515      531.42074     -972.9694       0              270.63134      0              0              9.4085576      9.7875227      0.2            92.086471    
     25400   0.22812459     0.0012267293   0.0012267293   0              0              493.70768      581.23128      405.99482      0              124.72593      0              0              9.4075925      9.7867986      0.2            92.070213    
     25500   0.17832363     0.0012495872   0.0012495872   0              0              842.62587      858.80331      826.25027      0              958.26844      0              0              9.4066274      9.7767571      0.2            91.966311    
     25600   0.22877741     0.0012044908   0.0012044908   0              0             -38.29412       200.8427      -277.58882      0              513.84785      0              0              9.4056623      9.7873077      0.2            92.056111    
     25700   0.19566524     0.001028906    0.001028906    0              0             -259.87071      218.46897     -738.43677      0              97.666431      0              0              9.4046973      9.7874306      0.2            92.047821    
     25800   0.21587724     0.001000904    0.001000904    0              0              896.08392      1378.468       413.49369      0              92.901521      0              0              9.4037322      9.786483       0.2            92.029465    
     25900   0.24172037     0.00095869104  0.00095869104  0              0              672.75581      717.9528       627.34507      0              134.01242      0              0              9.4027671      9.7811795      0.2            91.970153    
     26000   0.21849302     0.0010096738   0.0010096738   0              0             -244.77491      112.92288     -602.70998      0              949.2378       0              0              9.401802       9.7865492      0.2            92.011198    
     26100   0.23285056     0.00119089     0.00119089     0              0             -252.65885      145.90598     -651.44807      0              734.6132       0              0              9.4008369      9.7940398      0.2            92.072171    
     26200   0.21059813     0.0011137706   0.0011137706   0              0              174.93248     -193.96447      543.64692      0              728.41624      0              0              9.3998719      9.7896899      0.2            92.021831    
     26300   0.20584192     0.0010118315   0.0010118315   0              0              667.78082      698.92209      636.45008      0              404.57237      0              0              9.3989068      9.7781475      0.2            91.903897    
     26400   0.18402019     0.0010426355   0.0010426355   0              0             -348.33704     -4.4189577     -692.48165      0              522.71591      0              0              9.3979417      9.7849128      0.2            91.95804     
     26500   0.16436017     0.0011427677   0.0011427677   0              0              72.578044      800.33347     -655.3284       0              864.44498      0              0              9.3969766      9.7895781      0.2            91.992437    
     26600   0.15873568     0.00087722349  0.00087722349  0              0              514.67216      287.93477      741.19452      0              876.08869      0              0              9.3960115      9.7879005      0.2            91.967227    
     26700   0.21632639     0.0013290698   0.0013290698   0              0              868.68151      1056.4979      680.64322      0              939.01838      0              0              9.3950465      9.7884227      0.2            91.962686    
     26800   0.16499647     0.0011194607   0.0011194607   0              0              91.034998      1030.2067     -848.3489       0              605.37181      0              0              9.3940814      9.7944508      0.2            92.009868    
     26900   0.18400601     0.001156332    0.001156332    0              0             -590.81181     -596.3329      -585.45035      0             -39.131567      0              0              9.3931163      9.7887316      0.2            91.946694    
     27000   0.22234427     0.0011077113   0.0011077113   0              0              747.73114      714.88777      780.39973      0             -25.192631      0              0              9.3921512      9.7833453      0.2            91.886659    
     27100   0.15340104     0.001123647    0.001123647    0              0              175.59514     -197.68681      548.6834       0              432.72232      0              0              9.3911862      9.7862682      0.2            91.904667    
     27200   0.23909695     0.0011012874   0.0011012874   0              0             -318.22321      73.280054     -709.8662       0              605.94221      0              0              9.3902211      9.798307       0.2            92.008269    
     27300   0.21344956     0.0012998934   0.0012998934   0              0             -449.77222     -308.56766     -591.15813      0              455.11405      0              0              9.389256       9.7924039      0.2            91.943387    
     27400   0.20479146     0.0010887407   0.0010887407   0              0              485.03457      253.94041      715.95511      0              753.24233      0              0              9.3882909      9.7871973      0.2            91.885055    
     27500   0.1899515      0.0010358931   0.0010358931   0              0              754.19026      929.52315      578.6914       0             -140.99235      0              0              9.3873258      9.7851978      0.2            91.85684     
     27600   0.18906058     0.0014313192   0.0014313192   0              0              28.408148      806.09477     -749.46296      0             -572.87949      0              0              9.3863608      9.7880229      0.2            91.873914    
     27700   0.21081955     0.001054478    0.001054478    0              0              570.30335      1400.2212     -259.80301      0              502.32502      0              0              9.3853957      9.7932468      0.2            91.913496    
     27800   0.23511089     0.0011450938   0.0011450938   0              0              703.2446       496.03318      910.23965      0              857.7372       0              0              9.3844306      9.7902752      0.2            91.876158    
     27900   0.16458373     0.00091582289  0.00091582289  0              0              489.65538      938.29972      40.840615      0              102.24049      0              0              9.3834655      9.7975987      0.2            91.93543     
     28000   0.1291783      0.00099428811  0.00099428811  0              0             -94.942533      904.4927      -1094.5918      0              1070.9889      0              0              9.3825005      9.7976226      0.2            91.926198    
[...]
     43000   0.19503411     0.0011836582   0.0011836582   0              0             -457.05021      204.89817     -1119.1962      0              149.19869      0              0              9.2377387      9.8670698      0.2            91.149412    
     43100   0.19422679     0.0012197526   0.0012197526   0              0              430.7152       9.6747623      851.56812      0              523.83018      0              0              9.2367736      9.8528641      0.2            91.008675    
     43200   0.17478866     0.0011817251   0.0011817251   0              0             -231.54615     -302.55746     -160.71297      0             -304.65374      0              0              9.2358086      9.8554262      0.2            91.022829    
     43300   0.19032816     0.00099284685  0.00099284685  0              0              66.507546      742.9036      -610.06898      0              89.093949      0              0              9.2348435      9.8619262      0.2            91.073345    
     43400   0.15284968     0.0012627892   0.0012627892   0              0              925.36443      966.96269      883.59195      0             -198.04284      0              0              9.2338784      9.8563282      0.2            91.012136    
     43500   0.18593746     0.0011280004   0.0011280004   0              0              414.37918      1293.6826     -465.10965      0             -142.43278      0              0              9.2329133      9.8600477      0.2            91.036966    
     43600   0.19137149     0.0011018672   0.0011018672   0              0              326.5454       812.96428     -160.07541      0              625.91748      0              0              9.2319482      9.8597652      0.2            91.024842    
     43700   0.24729115     0.00092922361  0.00092922361  0              0              632.46981      709.49931      555.25395      0              304.99424      0              0              9.2309832      9.8555153      0.2            90.976096    
     43800   0.31096871     0.0015116059   0.0015116059   0              0             -584.13019     -580.79575     -587.66244      0              800.27708      0              0              9.2300181      9.8562303      0.2            90.973184    
     43900   0.22401451     0.0012953921   0.0012953921   0              0             -56.689279     -462.55172      348.97609      0              491.93164      0              0              9.229053       9.8534069      0.2            90.937615    
     44000   0.17949849     0.001123257    0.001123257    0              0              157.41908     -63.634394      378.27964      0              190.62798      0              0              9.2280879      9.8557646      0.2            90.949862    
     44100   0.208652       0.0010288283   0.0010288283   0              0             -352.24722      5.671101      -710.35068      0              290.33296      0              0              9.2271229      9.8601175      0.2            90.980515    
     44200   0.20787612     0.0012754206   0.0012754206   0              0             -20.795449     -775.05308      733.24501      0             -335.64819      0              0              9.2261578      9.8524158      0.2            90.899942    
     44300   0.1927274      0.0010836493   0.0010836493   0              0             -436.74557     -712.8788      -160.84563      0              455.62026      0              0              9.2251927      9.8579916      0.2            90.941872    
     44400   0.16831648     0.0010888498   0.0010888498   0              0             -292.71319     -39.561107     -546.02288      0             -218.88932      0              0              9.2242276      9.8666425      0.2            91.012156    
     44500   0.22283111     0.0012791261   0.0012791261   0              0              81.127642     -591.36078      753.40751      0             -132.16912      0              0              9.2232625      9.8625457      0.2            90.964849    
     44600   0.18713287     0.0013152774   0.0013152774   0              0              590.18296      1574.7018     -394.53144      0              160.70952      0              0              9.2222975      9.8699131      0.2            91.023275    
     44700   0.24226359     0.0012507452   0.0012507452   0              0              102.8309       341.67898     -136.25377      0             -267.69442      0              0              9.2213324      9.8658542      0.2            90.976321    
     44800   0.2428811      0.0012659656   0.0012659656   0              0              550.56942      614.4119       486.53462      0              297.81015      0              0              9.2203673      9.8756498      0.2            91.057118    
     44900   0.19899105     0.0012748141   0.0012748141   0              0             -459.50192     -389.27901     -529.90189      0              456.46711      0              0              9.2194022      9.8687058      0.2            90.983569    
     45000   0.16656962     0.0011365361   0.0011365361   0              0              2.8981501     -350.40108      356.00869      0              57.228285      0              0              9.2184371      9.8576958      0.2            90.872549    
     45100   0.19324188     0.0013389829   0.0013389829   0              0              28.368714     -133.807        190.33977      0              274.6809       0              0              9.2174721      9.8614769      0.2            90.897888    
     45200   0.18895772     0.0011828869   0.0011828869   0              0             -459.27969     -310.8388      -607.94223      0             -432.88418      0              0              9.216507       9.8704025      0.2            90.970634    
     45300   0.24014758     0.0013258482   0.0013258482   0              0              957.6589       1260.3613      654.73506      0             -128.63784      0              0              9.2155419      9.8654686      0.2            90.915639    
     45400   0.20650002     0.0011105379   0.0011105379   0              0              290.37546      913.49273     -332.90165      0              104.06869      0              0              9.2145768      9.8691621      0.2            90.940153    
     45500   0.22055015     0.00084328946  0.00084328946  0              0             -733.41206     -1128.4671     -338.56902      0             -308.34655      0              0              9.2136118      9.8693016      0.2            90.931913    
     45600   0.20945336     0.0011796793   0.0011796793   0              0              641.46549      532.51941      750.21742      0              361.70308      0              0              9.2126467      9.8687615      0.2            90.917413    
     45700   0.21531667     0.0012607006   0.0012607006   0              0             -698.43938     -673.48952     -723.59945      0             -665.55225      0              0              9.2116816      9.8691752      0.2            90.9117      
     45800   0.24680794     0.0010528515   0.0010528515   0              0              35.034957      25.878202      44.001298      0              955.22225      0              0              9.2107165      9.8680077      0.2            90.891422    
     45900   0.18149401     0.0011573437   0.0011573437   0              0              660.95677      685.27432      636.42166      0              467.58522      0              0              9.2097514      9.8627548      0.2            90.83352     
     46000   0.21123507     0.0011526621   0.0011526621   0              0             -471.29374     -78.31223      -864.47464      0             -109.8884       0              0              9.2087864      9.8770327      0.2            90.955484    
     46100   0.18211535     0.00095202298  0.00095202298  0              0              418.78926      193.41971      643.97988      0             -270.911        0              0              9.2078213      9.8717449      0.2            90.897263    
     46200   0.19861135     0.0012955617   0.0012955617   0              0              32.301703     -37.734477      102.14698      0              69.054028      0              0              9.2068562      9.8686288      0.2            90.859046    
     46300   0.23218327     0.0011246895   0.0011246895   0              0             -215.28192      290.96428     -721.71563      0              48.102195      0              0              9.2058911      9.86783        0.2            90.842169    
     46400   0.24417944     0.0012727668   0.0012727668   0              0              626.99262      359.25032      894.54517      0             -239.67286      0              0              9.2049261      9.8686336      0.2            90.840043    
     46500   0.2196939      0.0010805889   0.0010805889   0              0             -219.16775      173.22925     -611.78735      0             -424.10631      0              0              9.203961       9.873784       0.2            90.877923    
     46600   0.20365871     0.0013373241   0.0013373241   0              0              529.0474       1106.6417     -48.750085      0              1138.0552      0              0              9.2029959      9.8696799      0.2            90.830623    
     46700   0.18567825     0.001089658    0.001089658    0              0              974.81737      1166.2357      783.19246      0              65.343446      0              0              9.2020308      9.8682571      0.2            90.808006    
     46800   0.19882486     0.0011283692   0.0011283692   0              0             -30.918389      813.01497     -875.07305      0              1108.0679      0              0              9.2010657      9.8738957      0.2            90.850364    
     46900   0.21027638     0.0013754006   0.0013754006   0              0              508.24759      580.86447      435.41849      0              190.78627      0              0              9.2001007      9.8686872      0.2            90.792915    
     47000   0.24609302     0.0010937825   0.0010937825   0              0              268.03474      450.83234      85.002417      0              1517.5798      0              0              9.1991356      9.8703749      0.2            90.798917    
     47100   0.17640545     0.0011706509   0.0011706509   0              0              206.40378      1006.6599     -594.05273      0              1003.9663      0              0              9.1981705      9.8707131      0.2            90.792502    
     47200   0.1897758      0.0012611519   0.0012611519   0              0              1171.7638      1571.1907      772.14678      0             -9.3181588      0              0              9.1972054      9.866536       0.2            90.744558    
     47300   0.22880852     0.0010684577   0.0010684577   0              0             -73.268304      254.25782     -400.94501      0              44.589218      0              0              9.1962403      9.8690111      0.2            90.757798    
     47400   0.17669198     0.0013180007   0.0013180007   0              0              489.27568      982.94658     -4.5605309      0              842.56981      0              0              9.1952753      9.8669053      0.2            90.72891     
     47500   0.22685002     0.0012375261   0.0012375261   0              0              796.45225      1067.5158      525.1827       0              728.65183      0              0              9.1943102      9.863764       0.2            90.690506    
     47600   0.24831734     0.0011517633   0.0011517633   0              0             -412.67824     -239.20277     -586.36341      0              1065.495       0              0              9.1933451      9.8627405      0.2            90.671578    
     47700   0.17985501     0.0012160722   0.0012160722   0              0              62.898959     -129.19354      254.80518      0              332.05049      0              0              9.19238        9.8538612      0.2            90.580437    
     47800   0.21979306     0.0014447782   0.0014447782   0              0             -410.67898     -1074.2504      252.68305      0              867.31835      0              0              9.191415       9.8520689      0.2            90.554453    
     47900   0.23990744     0.0012626593   0.0012626593   0              0             -892.17618     -1224.4086     -560.10794      0              838.46182      0              0              9.1904499      9.8576348      0.2            90.596099    
     48000   0.2242037      0.0014817044   0.0014817044   0              0             -295.604       -1092.7768      501.32932      0             -264.45586      0              0              9.1894848      9.8560907      0.2            90.572396    
     48100   0.20459319     0.0014661951   0.0014661951   0              0             -731.56369     -1304.8232     -158.489        0              1021.7644      0              0              9.1885197      9.8604582      0.2            90.603015    
     48200   0.17663293     0.0013414701   0.0013414701   0              0              81.610874      408.22687     -245.17096      0              556.89109      0              0              9.1875546      9.8564619      0.2            90.556782    
     48300   0.2278133      0.0011891946   0.0011891946   0              0              230.97007     -9.35234        471.07851      0              663.80482      0              0              9.1865896      9.8524466      0.2            90.510383    
     48400   0.23627793     0.0010862108   0.0010862108   0              0             -341.69188     -336.08315     -347.51958      0              542.99571      0              0              9.1856245      9.8628939      0.2            90.59684     
     48500   0.2703474      0.0013981355   0.0013981355   0              0              7.8079945     -80.850019      96.252302      0              350.39099      0              0              9.1846594      9.8662048      0.2            90.617731    
     48600   0.22043541     0.0012030391   0.0012030391   0              0              259.87728      498.02667      21.463243      0             -359.74396      0              0              9.1836943      9.8617277      0.2            90.567093    
     48700   0.21133031     0.001394516    0.001394516    0              0              81.681438      389.71888     -226.52237      0              836.11597      0              0              9.1827293      9.8603155      0.2            90.544607    
     48800   0.22302334     0.0012535453   0.0012535453   0              0              370.00802      530.49991      209.31643      0             -106.57553      0              0              9.1817642      9.8658608      0.2            90.586008    
     48900   0.23140161     0.0011369698   0.0011369698   0              0              231.16757      710.954       -248.78613      0              376.78047      0              0              9.1807991      9.8691514      0.2            90.606696    
     49000   0.18128123     0.0011829385   0.0011829385   0              0              635.3666       1194.2233      76.299218      0              721.75804      0              0              9.179834       9.8687835      0.2            90.593794    
     49100   0.19098685     0.0012400197   0.0012400197   0              0              187.92232      470.12261     -94.48476       0              310.59031      0              0              9.1788689      9.8704533      0.2            90.599597    
     49200   0.2162057      0.0012629493   0.0012629493   0              0             -19.735091     -124.47907      84.777854      0              140.89522      0              0              9.1779039      9.8724842      0.2            90.608711    
     49300   0.19247328     0.00146008     0.00146008     0              0              175.32589      376.09132     -25.652703      0              791.42651      0              0              9.1769388      9.8689934      0.2            90.567149    
     49400   0.22056772     0.0013548092   0.0013548092   0              0             -156.56252     -136.66063     -176.6396       0              390.45931      0              0              9.1759737      9.8730078      0.2            90.59446     
     49500   0.1964068      0.0011856681   0.0011856681   0              0             -326.99286     -805.94659      151.75862      0              519.07034      0              0              9.1750086      9.8685463      0.2            90.543997    
     49600   0.18007845     0.0013025636   0.0013025636   0              0             -55.154388     -55.441422     -55.072119      0              743.39421      0              0              9.1740435      9.8688633      0.2            90.537382    
     49700   0.24266537     0.0012312316   0.0012312316   0              0              78.432905      236.1171      -79.4415        0              35.01887       0              0              9.1730785      9.8750007      0.2            90.584157    
     49800   0.18581529     0.0012763105   0.0012763105   0              0              1269.3488      2268.9758      269.55411      0              665.69658      0              0              9.1721134      9.8806241      0.2            90.626204    
     49900   0.2148696      0.0014602094   0.0014602094   0              0              91.754119      542.51311     -359.22225      0             -346.78969      0              0              9.1711483      9.875365       0.2            90.568437    
     50000   0.28800081     0.0010104959   0.0010104959   0              0              565.53612      872.3613       258.52598      0              328.51187      0              0              9.1701832      9.8714969      0.2            90.523435    
     50100   0.24457609     0.00094574737  0.00094574737  0              0              643.21792      1388.0369     -101.79553      0              421.31561      0              0              9.1692182      9.8789069      0.2            90.581853    
     50200   0.22191399     0.0013732848   0.0013732848   0              0             -168.72263     -101.78682     -235.85636      0              1372.072       0              0              9.1682531      9.8729575      0.2            90.517773    
     50201   0.21655032     0.0013746496   0.0013746496   0              0             -86.870539     -92.565701     -81.361756      0              1381.9777      0              0              9.1682434      9.8721627      0.2            90.510391    
Loop time of 1.17043 on 1 procs for 50000 steps with 65 atoms

Performance: 36909.438 ns/day, 0.001 hours/ns, 42719.257 timesteps/s
99.0% CPU use with 1 MPI tasks x 1 OpenMP threads

MPI task timing breakdown:
Section |  min time  |  avg time  |  max time  |%varavg| %total
---------------------------------------------------------------
Pair    | 0          | 0          | 0          |   0.0 |  0.00
Bond    | 0.17571    | 0.17571    | 0.17571    |   0.0 | 15.01
Neigh   | 0          | 0          | 0          |   0.0 |  0.00
Comm    | 0.39466    | 0.39466    | 0.39466    |   0.0 | 33.72
Output  | 0.0070777  | 0.0070777  | 0.0070777  |   0.0 |  0.60
Modify  | 0.56488    | 0.56488    | 0.56488    |   0.0 | 48.26
Other   |            | 0.02811    |            |       |  2.40

Nlocal:             65 ave          65 max          65 min
Histogram: 1 0 0 0 0 0 0 0 0 0
Nghost:            553 ave         553 max         553 min
Histogram: 1 0 0 0 0 0 0 0 0 0
Neighs:              0 ave           0 max           0 min
Histogram: 1 0 0 0 0 0 0 0 0 0

Total # of neighbors = 0
Ave neighs/atom = 0
Ave special neighs/atom = 24.061538
Neighbor list builds = 0
Dangerous builds = 0


Total wall time: 0:00:01
