LAMMPS data file.

     65 atoms
    145 bonds
      0 angles
      0 dihedrals
      0 impropers
      1 atom types
    145 bond types
      0 angle types
      0 dihedral types
      0 improper types
  -4.825391   4.825391 xlo xhi
  -4.825391   4.825391 ylo yhi
  -0.100000   0.100000 zlo zhi

Masses # ['atom_id', 'mass']

1 10000.0

Atoms # ['atomID', 'moleculeID', 'atomType', 'charge', 'x', 'y', 'z']

     56      1      1   0.000000  -4.591697  -3.879817   0.000000
     20      1      1   0.000000  -3.755939   4.808917   0.000000
     58      1      1   0.000000  -1.372849  -4.650490   0.000000
     64      1      1   0.000000   2.107631  -4.369133   0.000000
     59      1      1   0.000000   3.868938  -3.968661   0.000000
     30      1      1   0.000000  -4.282564  -2.590716   0.000000
      1      1      1   0.000000  -2.224751  -2.850185   0.000000
     12      1      1   0.000000  -1.076261  -3.535283   0.000000
     53      1      1   0.000000   0.309024  -3.402661   0.000000
      9      1      1   0.000000   1.424156  -3.466887   0.000000
     51      1      1   0.000000   4.390582  -3.139664   0.000000
     40      1      1   0.000000  -3.278463  -1.965791   0.000000
     80      1      1   0.000000  -1.281718  -2.457873   0.000000
     24      1      1   0.000000  -0.379077  -2.559074   0.000000
     43      1      1   0.000000   0.839246  -2.591055   0.000000
     14      1      1   0.000000   4.157418  -1.937035   0.000000
     74      1      1   0.000000  -4.271439  -0.960125   0.000000
     41      1      1   0.000000   4.599182  -0.925204   0.000000
      7      1      1   0.000000  -2.142605  -1.284010   0.000000
     11      1      1   0.000000  -0.624020  -1.338937   0.000000
     19      1      1   0.000000   0.871304  -1.423323   0.000000
     76      1      1   0.000000   1.771648  -1.046171   0.000000
     61      1      1   0.000000   1.611300  -0.393149   0.000000
     10      1      1   0.000000   2.701231  -1.513035   0.000000
     62      1      1   0.000000  -4.511089  -0.324845   0.000000
     25      1      1   0.000000  -4.241178   0.532307   0.000000
     67      1      1   0.000000  -4.007617  -0.377176   0.000000
      4      1      1   0.000000  -2.986197  -0.006754   0.000000
     54      1      1   0.000000  -1.817831  -0.094705   0.000000
     33      1      1   0.000000  -0.650354  -0.098196   0.000000
     28      1      1   0.000000   0.472057  -0.158149   0.000000
     60      1      1   0.000000   2.240591  -0.204294   0.000000
     13      1      1   0.000000   3.468350  -0.332721   0.000000
     45      1      1   0.000000   4.474007  -0.020431   0.000000
     42      1      1   0.000000  -4.586529   1.623263   0.000000
     37      1      1   0.000000  -3.456709   1.316236   0.000000
     26      1      1   0.000000  -1.382525   0.859970   0.000000
     34      1      1   0.000000  -0.046965   0.981334   0.000000
     46      1      1   0.000000   0.937141   1.482737   0.000000
     35      1      1   0.000000   1.310812   0.526481   0.000000
     15      1      1   0.000000   2.631349   0.995160   0.000000
     39      1      1   0.000000   4.152624   0.924846   0.000000
      2      1      1   0.000000  -3.795177   2.595819   0.000000
     36      1      1   0.000000  -2.072817   1.834051   0.000000
      6      1      1   0.000000  -0.754768   2.106317   0.000000
     77      1      1   0.000000   0.275391   1.763943   0.000000
     29      1      1   0.000000   1.515819   2.458295   0.000000
     73      1      1   0.000000   1.717871   1.608921   0.000000
     16      1      1   0.000000   3.005926   2.435829   0.000000
     70      1      1   0.000000   3.642294   1.521028   0.000000
     23      1      1   0.000000   4.350407   2.310495   0.000000
     21      1      1   0.000000  -4.549448   3.552092   0.000000
     65      1      1   0.000000  -2.962057   3.229431   0.000000
     63      1      1   0.000000  -2.783832   2.604021   0.000000
      8      1      1   0.000000  -1.874227   3.258954   0.000000
     38      1      1   0.000000  -0.406047   3.450183   0.000000
      5      1      1   0.000000   0.910055   3.734036   0.000000
     27      1      1   0.000000   2.286920   3.622583   0.000000
     18      1      1   0.000000   3.780744   3.491469   0.000000
     44      1      1   0.000000  -3.473681   3.753850   0.000000
     22      1      1   0.000000  -2.397557   4.553938   0.000000
     52      1      1   0.000000  -1.032970   4.212949   0.000000
     48      1      1   0.000000   1.845519   4.594001   0.000000
     17      1      1   0.000000   2.997322   4.767936   0.000000
      3      1      1   0.000000   4.450519   4.764372   0.000000

Bond Coeffs # ['bondID', 'bondCoeff', 'd']

      1   0.507181   1.404166
      2   0.551664   1.346364
      3   0.908350   1.049237
      4   0.451297   1.488568
      5   1.198633   0.913391
      6   0.613566   1.276643
      7   0.912781   1.046687
      8   1.846514   0.735908
      9   0.405871   1.569661
     10   1.359758   0.857569
     11   0.548444   1.350311
     12   0.528169   1.375985
     13   0.528169   1.375985
     14   1.359758   0.857569
     15   1.846514   0.735908
     16   0.656217   1.234457
     17   0.819759   1.104478
     18   0.501387   1.412256
     19   0.406562   1.568328
     20   0.445809   1.497703
     21   0.801510   1.116981
     22   0.566068   1.329124
     23   1.862976   0.732650
     24   0.831237   1.096826
     25   0.791514   1.124012
     26   0.513490   1.395514
     27   2.316567   0.657019
     28   1.598821   0.790861
     29   0.426797   1.530697
     30   1.049468   0.976147
     31   0.800476   1.117702
     32   0.800476   1.117702
     33   0.628385   1.261500
     34   0.728430   1.171672
     35   0.758235   1.148413
     36   3.902866   0.506184
     37   0.758235   1.148413
     38   0.645690   1.244480
     39   0.569802   1.324763
     40   0.770092   1.139538
     41   0.550508   1.347777
     42   0.626784   1.263110
     43   0.844419   1.088231
     44   0.626784   1.263110
     45   0.853077   1.082694
     46   0.736971   1.164863
     47   0.947463   1.027351
     48   0.701589   1.193875
     49   0.518785   1.388373
     50   0.947463   1.027351
     51   0.523501   1.382106
     52   0.636091   1.253835
     53   0.487875   1.431679
     54   1.623723   0.784773
     55   1.003174   0.998417
     56   0.519385   1.387572
     57   0.618115   1.271936
     58   0.901549   1.053187
     59   0.483142   1.438674
     60   1.532372   0.807826
     61   1.532372   0.807826
     62   1.866348   0.731988
     63   1.866348   0.731988
     64   0.528212   1.375929
     65   0.901820   1.053029
     66   0.528212   1.375929
     67   1.042373   0.979464
     68   0.473531   1.453201
     69   0.528413   1.375667
     70   2.211657   0.672421
     71   0.674135   1.217942
     72   0.536031   1.365856
     73   0.958571   1.021381
     74   0.948717   1.026672
     75   0.805266   1.114372
     76   0.653825   1.236714
     77   2.364617   0.650309
     78   0.977625   1.011379
     79   2.442412   0.639868
     80   0.433066   1.519578
     81   0.750947   1.153972
     82   0.509300   1.401242
     83   0.692331   1.201830
     84   0.694903   1.199604
     85   0.777254   1.134276
     86   1.395886   0.846399
     87   2.169136   0.678979
     88   0.649294   1.241021
     89   1.311887   0.873075
     90   0.714924   1.182688
     91   0.846840   1.086674
     92   0.813050   1.109025
     93   0.687684   1.205884
     94   0.657927   1.232852
     95   0.847099   1.086508
     96   0.847099   1.086508
     97   1.064010   0.969454
     98   0.524059   1.381369
     99   0.478915   1.445010
    100   0.763678   1.144313
    101   0.581660   1.311189
    102   0.825664   1.100521
    103   0.795472   1.121211
    104   0.559162   1.337307
    105   0.834739   1.094522
    106   0.795472   1.121211
    107   0.568161   1.326674
    108   0.666364   1.225023
    109   0.722763   1.176257
    110   0.722763   1.176257
    111   1.005305   0.997358
    112   0.434734   1.516660
    113   1.005305   0.997358
    114   0.619336   1.270682
    115   0.512595   1.396732
    116   1.068361   0.967478
    117   0.732802   1.168172
    118   0.445808   1.497704
    119   0.483353   1.438360
    120   1.212115   0.908297
    121   1.238296   0.898644
    122   0.570811   1.323591
    123   0.820373   1.104064
    124   0.847090   1.086514
    125   0.583186   1.309473
    126   1.639695   0.780941
    127   1.639695   0.780941
    128   0.843795   1.088633
    129   0.795977   1.120856
    130   0.924141   1.040233
    131   0.780526   1.131895
    132   1.134159   0.938995
    133   1.018473   0.990890
    134   0.838340   1.092169
    135   1.018473   0.990890
    136   1.025805   0.987342
    137   0.615754   1.274373
    138   0.878359   1.066999
    139   0.615754   1.274373
    140   0.552065   1.345875
    141   0.504639   1.407698
    142   1.934274   0.719020
    143   0.848574   1.085564
    144   0.637834   1.252120
    145   0.846840   1.086674

Bonds # ['ID', 'type', 'atom1', 'atom2']

         1         1         4        37
         2         2        38         5
         3         3        54        26
         4         4        15        16
         5         5        41        45
         6         6        41        13
         7         7         2        65
         8         8        64        48
         9         9        13        15
        10        10        58        52
        11        11        16        23
        12        12        30        14
        13        13        14        30
        14        14        52        58
        15        15        48        64
        16        16        60        13
        17        17        34        46
        18        18        29         5
        19        19         1         7
        20        20        11        19
        21        21        53         9
        22        22        34         6
        23        23        65        44
        24        24        12        80
        25        25        33        28
        26        26        26         6
        27        27        61        60
        28        28        46        73
        29        29         7         4
        30        30        19        76
        31        31        58        22
        32        32        22        58
        33        33        60        15
        34        34         4        54
        35        35        42        39
        36        36        62        67
        37        37        39        42
        38        38        24        11
        39        39        40         7
        40        40        15        70
        41        41        27        17
        42        42        59        17
        43        43        65         8
        44        44        17        59
        45        45        28        35
        46        46        48        17
        47        47        64        17
        48        48        26        36
        49        49         6        38
        50        50        17        64
        51        51        20        22
        52        52        42         2
        53        53        13        39
        54        54        39        70
        55        55        45        39
        56        56        16        27
        57        57         8        52
        58        58         9        43
        59        59        36         8
        60        60        41        62
        61        61        62        41
        62        62        62        45
        63        63        45        62
        64        64        21         3
        65        65        13        45
        66        66         3        21
        67        67        59        51
        68        68        17         3
        69        69         1        40
        70        70        76        61
        71        71         2        21
        72        72        25         4
        73        73         1        80
        74        74        46        35
        75        75        16        70
        76        76        33        34
        77        77        65        63
        78        78         2        63
        79        79        74        67
        80        80         7        11
        81        81        58        12
        82        82        35        15
        83        83         2        44
        84        84        12        24
        85        85        46        29
        86        86        34        77
        87        87        74        62
        88        88        11        33
        89        89        29        73
        90        90        30        40
        91        91        25        45
        92        92        25        37
        93        93        33        26
        94        94         7        54
        95        95        59         3
        96        96         3        59
        97        97        53        43
        98        98         5        27
        99        99        20         3
       100       100        25        42
       101       101        23        18
       102       102        15        73
       103       103        30        51
       104       104         1        12
       105       105        21        44
       106       106        51        30
       107       107        19        28
       108       108        51        14
       109       109        56         3
       110       110         3        56
       111       111        56        51
       112       112        14        10
       113       113        51        56
       114       114         5        48
       115       115         8        22
       116       116        61        35
       117       117        43        19
       118       118        18        17
       119       119        18         3
       120       120        80        24
       121       121        62        25
       122       122        37         2
       123       123        14        41
       124       124        67         4
       125       125        16        18
       126       126        74        41
       127       127        41        74
       128       128        53        24
       129       129        63         8
       130       130        76        10
       131       131        64         9
       132       132        25        67
       133       133        42        23
       134       134        20        44
       135       135        23        42
       136       136        38        52
       137       137        56        20
       138       138        27        48
       139       139        20        56
       140       140        36         6
       141       141        10        13
       142       142        46        77
       143       143         6        77
       144       144        28        34
       145       145        45        25
