ITEM: TIMESTEP
250
ITEM: NUMBER OF ATOMS
42
ITEM: BOX BOUNDS pp pp pp
-4.8244042280525088e+00 4.8244042280525088e+00
-4.8242144519037398e+00 4.8242144519037398e+00
-1.0000000000000001e-01 1.0000000000000001e-01
ITEM: ATOMS id type xs ys zs
8 1 0.798488 0.0265555 0.499881
41 1 0.919362 0.0750977 0.501211
12 1 0.845849 0.177259 0.500561
13 1 0.705675 0.250743 0.501986
26 1 0.832168 0.314055 0.500165
75 1 0.36461 0.450124 0.499469
5 1 0.472198 0.4053 0.500578
34 1 0.601707 0.3599 0.498899
29 1 0.728613 0.391349 0.499663
7 1 0.264772 0.443323 0.498621
36 1 0.351376 0.534022 0.499766
67 1 0.439981 0.502647 0.501053
32 1 0.643512 0.483486 0.499071
33 1 0.201405 0.566097 0.498943
57 1 0.286606 0.626279 0.499782
71 1 0.400447 0.626998 0.500656
79 1 0.428955 0.587908 0.500915
10 1 0.526118 0.574925 0.502029
43 1 0.452592 0.693273 0.498856
27 1 0.667771 0.612739 0.499162
6 1 0.923852 0.669123 0.499456
63 1 0.149956 0.654111 0.500812
74 1 0.130833 0.721507 0.500702
37 1 0.224415 0.715048 0.500153
28 1 0.353602 0.711308 0.500441
18 1 0.572472 0.718813 0.498158
76 1 0.68788 0.701813 0.50129
68 1 0.676767 0.764458 0.499806
17 1 0.785639 0.750403 0.501426
31 1 0.0349181 0.764684 0.500021
20 1 0.176458 0.827749 0.501025
59 1 0.307639 0.802758 0.499839
15 1 0.434948 0.808077 0.499916
21 1 0.582437 0.855048 0.500336
2 1 0.925868 0.829948 0.500955
4 1 0.0610053 0.910455 0.50064
14 1 0.34074 0.91969 0.499092
25 1 0.460253 0.993249 0.500303
77 1 0.553977 0.951882 0.498683
62 1 0.501825 0.909398 0.498906
19 1 0.657912 0.983474 0.500684
38 1 0.936096 0.96227 0.499975
ITEM: TIMESTEP
500
ITEM: NUMBER OF ATOMS
42
ITEM: BOX BOUNDS pp pp pp
-4.8231979327819570e+00 4.8231979327819570e+00
-4.8165957022482688e+00 4.8165957022482688e+00
-1.0000000000000001e-01 1.0000000000000001e-01
ITEM: ATOMS id type xs ys zs
8 1 0.798761 0.0259056 0.500768
41 1 0.918811 0.0755484 0.502485
12 1 0.846385 0.177705 0.500613
13 1 0.706174 0.251179 0.502136
26 1 0.83286 0.314262 0.499727
75 1 0.365007 0.44991 0.499678
5 1 0.472347 0.404423 0.50137
34 1 0.602309 0.360041 0.498891
29 1 0.7294 0.392847 0.500607
7 1 0.264668 0.443144 0.500162
36 1 0.351372 0.533755 0.499692
67 1 0.440011 0.502112 0.501402
32 1 0.643075 0.483082 0.498517
33 1 0.200775 0.566231 0.498176
57 1 0.286484 0.626533 0.498434
71 1 0.400077 0.627115 0.500595
79 1 0.428447 0.587895 0.499597
10 1 0.526172 0.574787 0.501581
43 1 0.452452 0.693601 0.49974
27 1 0.668713 0.612641 0.500678
6 1 0.923403 0.670207 0.496631
63 1 0.150478 0.654804 0.50199
74 1 0.131304 0.722151 0.500041
37 1 0.225179 0.715732 0.50061
28 1 0.353384 0.711676 0.5011
18 1 0.571848 0.718543 0.497252
76 1 0.687339 0.702685 0.500762
68 1 0.675804 0.76578 0.499383
17 1 0.785018 0.752663 0.500967
31 1 0.035183 0.764458 0.500742
20 1 0.176382 0.828223 0.501671
59 1 0.307693 0.803454 0.498781
15 1 0.435074 0.808763 0.501056
21 1 0.583369 0.855186 0.500092
2 1 0.925874 0.830012 0.502315
4 1 0.0611331 0.910019 0.50213
14 1 0.341049 0.920258 0.499655
25 1 0.460673 0.993966 0.499865
77 1 0.554092 0.951972 0.499579
62 1 0.501914 0.909203 0.497146
19 1 0.657859 0.984195 0.500778
38 1 0.936137 0.962725 0.501577
ITEM: TIMESTEP
750
ITEM: NUMBER OF ATOMS
42
ITEM: BOX BOUNDS pp pp pp
-4.8219916375114060e+00 4.8219916375114060e+00
-4.8251990527956332e+00 4.8251990527956332e+00
-1.0000000000000001e-01 1.0000000000000001e-01
ITEM: ATOMS id type xs ys zs
8 1 0.799631 0.0264969 0.500813
41 1 0.919894 0.0753352 0.501735
12 1 0.847366 0.176647 0.500596
13 1 0.706796 0.251053 0.501992
26 1 0.833294 0.313783 0.50075
75 1 0.365473 0.450415 0.497848
5 1 0.472348 0.404155 0.501174
34 1 0.603394 0.359889 0.500289
29 1 0.729742 0.392283 0.500682
7 1 0.265434 0.443525 0.500623
36 1 0.351171 0.534126 0.498879
67 1 0.440352 0.502156 0.501006
32 1 0.643976 0.483426 0.498102
33 1 0.201447 0.566543 0.498795
57 1 0.286945 0.626796 0.49895
71 1 0.400198 0.627525 0.500127
79 1 0.428635 0.588122 0.499938
10 1 0.526422 0.574592 0.502162
43 1 0.452629 0.693273 0.498911
27 1 0.668333 0.613573 0.501335
6 1 0.923879 0.671317 0.496257
63 1 0.150919 0.654582 0.503106
74 1 0.131614 0.721677 0.498771
37 1 0.225361 0.715684 0.502321
28 1 0.353569 0.711823 0.499608
18 1 0.571741 0.719053 0.498613
76 1 0.687637 0.702814 0.501064
68 1 0.675998 0.765829 0.499065
17 1 0.785263 0.752468 0.503023
31 1 0.0354356 0.764717 0.50206
20 1 0.176314 0.827578 0.503167
59 1 0.307926 0.80312 0.49856
15 1 0.435674 0.808568 0.499064
21 1 0.583017 0.85581 0.5006
2 1 0.926191 0.829995 0.502789
4 1 0.0610578 0.910262 0.50313
14 1 0.341447 0.919696 0.49955
25 1 0.460923 0.99427 0.500866
77 1 0.554745 0.952372 0.499613
62 1 0.502092 0.909713 0.497102
19 1 0.658307 0.985247 0.49855
38 1 0.935782 0.962637 0.502037
ITEM: TIMESTEP
1000
ITEM: NUMBER OF ATOMS
42
ITEM: BOX BOUNDS pp pp pp
-4.8207853422408542e+00 4.8207853422408542e+00
-4.8214780148862122e+00 4.8214780148862122e+00
-1.0000000000000001e-01 1.0000000000000001e-01
ITEM: ATOMS id type xs ys zs
8 1 0.798718 0.026965 0.501832
41 1 0.919383 0.074956 0.503098
12 1 0.847339 0.177592 0.500787
13 1 0.706524 0.250834 0.500929
26 1 0.833655 0.314251 0.500271
75 1 0.365625 0.450364 0.496294
5 1 0.473471 0.40633 0.500178
34 1 0.602759 0.361026 0.501381
29 1 0.729075 0.3914 0.500729
7 1 0.265794 0.442709 0.49833
36 1 0.351448 0.534032 0.498012
67 1 0.440238 0.503065 0.499569
32 1 0.645254 0.483801 0.498398
33 1 0.202457 0.565392 0.49967
57 1 0.286893 0.627093 0.500332
71 1 0.400521 0.627256 0.497762
79 1 0.428937 0.588038 0.497885
10 1 0.52667 0.574985 0.503656
43 1 0.453616 0.693139 0.499604
27 1 0.669591 0.612917 0.501417
6 1 0.923831 0.670088 0.496176
63 1 0.151817 0.654115 0.504937
74 1 0.130971 0.721163 0.499478
37 1 0.225173 0.716075 0.502257
28 1 0.354735 0.711884 0.499191
18 1 0.572546 0.718999 0.498241
76 1 0.688298 0.702346 0.499762
68 1 0.676399 0.764986 0.500203
17 1 0.785317 0.752464 0.50313
31 1 0.0356385 0.764608 0.503452
20 1 0.176406 0.827458 0.501578
59 1 0.308571 0.803382 0.497804
15 1 0.436239 0.808475 0.500863
21 1 0.58274 0.856076 0.500681
2 1 0.926124 0.829828 0.504094
4 1 0.0610148 0.910369 0.503234
14 1 0.342474 0.921015 0.497605
25 1 0.461315 0.995023 0.501979
77 1 0.554437 0.953094 0.497948
62 1 0.502149 0.910382 0.497207
19 1 0.658029 0.984893 0.500043
38 1 0.935399 0.962397 0.502227
ITEM: TIMESTEP
1250
ITEM: NUMBER OF ATOMS
42
ITEM: BOX BOUNDS pp pp pp
-4.8195790469703024e+00 4.8195790469703024e+00
-4.8172898379858067e+00 4.8172898379858067e+00
-1.0000000000000001e-01 1.0000000000000001e-01
ITEM: ATOMS id type xs ys zs
8 1 0.799579 0.0262562 0.500086
41 1 0.919806 0.0757732 0.50332
12 1 0.847032 0.17741 0.499125
13 1 0.706539 0.250981 0.503752
26 1 0.833109 0.314408 0.500476
75 1 0.365574 0.450186 0.497206
5 1 0.473561 0.406041 0.49991
34 1 0.60199 0.359145 0.500811
29 1 0.728653 0.391485 0.499163
7 1 0.265984 0.442502 0.495621
36 1 0.351363 0.533984 0.498068
67 1 0.440188 0.503281 0.499
32 1 0.644141 0.482967 0.498356
33 1 0.202668 0.564869 0.498069
57 1 0.2876 0.626555 0.499551
71 1 0.401173 0.627856 0.497863
79 1 0.429111 0.588262 0.496806
10 1 0.526851 0.575519 0.503462
43 1 0.454714 0.693636 0.500391
27 1 0.669578 0.612745 0.501955
6 1 0.925624 0.669417 0.496777
63 1 0.152347 0.65354 0.504347
74 1 0.131675 0.721011 0.500431
37 1 0.225836 0.715529 0.504194
28 1 0.354826 0.711873 0.499744
18 1 0.573243 0.719243 0.499695
76 1 0.688849 0.702031 0.497416
68 1 0.677707 0.764897 0.50345
17 1 0.786573 0.750026 0.503975
31 1 0.0361018 0.764975 0.50355
20 1 0.176268 0.827465 0.502755
59 1 0.308389 0.803659 0.498055
15 1 0.436458 0.808629 0.500718
21 1 0.581711 0.856297 0.500204
2 1 0.926274 0.829802 0.505305
4 1 0.060513 0.910851 0.504058
14 1 0.34198 0.920278 0.497616
25 1 0.460863 0.99577 0.501264
77 1 0.554541 0.953278 0.497783
62 1 0.501317 0.911229 0.496945
19 1 0.659247 0.98337 0.499713
38 1 0.935328 0.962701 0.50234
ITEM: TIMESTEP
1500
ITEM: NUMBER OF ATOMS
42
ITEM: BOX BOUNDS pp pp pp
-4.8183727516997505e+00 4.8183727516997505e+00
-4.8324368219684999e+00 4.8324368219684999e+00
-1.0000000000000001e-01 1.0000000000000001e-01
ITEM: ATOMS id type xs ys zs
8 1 0.798615 0.0255806 0.500245
41 1 0.919429 0.0743266 0.503116
12 1 0.846602 0.17555 0.498084
13 1 0.706894 0.250232 0.502933
26 1 0.832862 0.312524 0.500076
75 1 0.365405 0.45064 0.493868
5 1 0.473493 0.406673 0.498162
34 1 0.603082 0.360145 0.499952
29 1 0.72953 0.391822 0.500566
7 1 0.265301 0.442935 0.497788
36 1 0.350764 0.534066 0.49662
67 1 0.440055 0.504009 0.49749
32 1 0.64377 0.483687 0.49822
33 1 0.203445 0.566194 0.498581
57 1 0.287951 0.627806 0.498011
71 1 0.400985 0.628318 0.499449
79 1 0.428238 0.588763 0.496863
10 1 0.526177 0.575966 0.505445
43 1 0.453755 0.694242 0.500489
27 1 0.669711 0.612597 0.502199
6 1 0.926501 0.669572 0.496893
63 1 0.152039 0.654141 0.50277
74 1 0.132225 0.721296 0.50196
37 1 0.225986 0.715984 0.505558
28 1 0.354941 0.712384 0.497596
18 1 0.573095 0.719483 0.499423
76 1 0.688701 0.701997 0.4976
68 1 0.67797 0.764916 0.502398
17 1 0.787084 0.749597 0.50514
31 1 0.0357408 0.766139 0.504439
20 1 0.176783 0.827761 0.502788
59 1 0.308641 0.803641 0.497257
15 1 0.436455 0.808932 0.503465
21 1 0.58058 0.856184 0.501033
2 1 0.925608 0.829684 0.506801
4 1 0.061201 0.910226 0.503715
14 1 0.342114 0.920037 0.498474
25 1 0.460654 0.995799 0.500547
77 1 0.553668 0.953139 0.496939
62 1 0.500491 0.911194 0.497313
19 1 0.657914 0.983597 0.499001
38 1 0.936157 0.961929 0.50188
ITEM: TIMESTEP
1750
ITEM: NUMBER OF ATOMS
42
ITEM: BOX BOUNDS pp pp pp
-4.8171664564291987e+00 4.8171664564291987e+00
-4.8375032092511079e+00 4.8375032092511079e+00
-1.0000000000000001e-01 1.0000000000000001e-01
ITEM: ATOMS id type xs ys zs
8 1 0.798812 0.0245238 0.501128
41 1 0.919615 0.0744368 0.502564
12 1 0.845517 0.176157 0.498788
13 1 0.707121 0.25116 0.503054
26 1 0.833741 0.312457 0.500607
75 1 0.365182 0.450211 0.49353
5 1 0.472468 0.405546 0.499108
34 1 0.602047 0.360438 0.500327
29 1 0.729439 0.391529 0.49997
7 1 0.264961 0.443069 0.498663
36 1 0.351151 0.533747 0.497201
67 1 0.439676 0.50279 0.497648
32 1 0.64405 0.482807 0.498591
33 1 0.203919 0.566396 0.49803
57 1 0.288477 0.628243 0.499011
71 1 0.400919 0.629127 0.500265
79 1 0.428222 0.589626 0.499128
10 1 0.525777 0.575064 0.505038
43 1 0.453668 0.694879 0.49895
27 1 0.66904 0.61171 0.50155
6 1 0.926314 0.669311 0.496165
63 1 0.151964 0.653877 0.503626
74 1 0.131961 0.721123 0.501146
37 1 0.225767 0.71517 0.505383
28 1 0.355045 0.713463 0.497778
18 1 0.572782 0.718733 0.500308
76 1 0.687843 0.701112 0.497739
68 1 0.677635 0.763578 0.501644
17 1 0.7865 0.749062 0.503974
31 1 0.0363121 0.764109 0.502711
20 1 0.176446 0.827302 0.503441
59 1 0.308383 0.803799 0.495046
15 1 0.436875 0.809433 0.504045
21 1 0.580754 0.855687 0.501871
2 1 0.926808 0.828795 0.507601
4 1 0.0604729 0.909947 0.504629
14 1 0.341023 0.920249 0.501643
25 1 0.459718 0.994942 0.5009
77 1 0.553634 0.952539 0.497136
62 1 0.500587 0.910656 0.49766
19 1 0.657893 0.982935 0.498067
38 1 0.934915 0.961971 0.50321
ITEM: TIMESTEP
2000
ITEM: NUMBER OF ATOMS
42
ITEM: BOX BOUNDS pp pp pp
-4.8159601611586469e+00 4.8159601611586469e+00
-4.8343647527924682e+00 4.8343647527924682e+00
-1.0000000000000001e-01 1.0000000000000001e-01
ITEM: ATOMS id type xs ys zs
8 1 0.798318 0.024519 0.501234
41 1 0.918676 0.0743725 0.503661
12 1 0.84464 0.175627 0.497001
13 1 0.705901 0.250998 0.502686
26 1 0.832707 0.312831 0.500783
75 1 0.364948 0.449822 0.493484
5 1 0.472962 0.405284 0.499991
34 1 0.602467 0.359424 0.502153
29 1 0.729028 0.391429 0.500193
7 1 0.265088 0.44292 0.499477
36 1 0.351206 0.533475 0.497427
67 1 0.44092 0.502532 0.498905
32 1 0.642893 0.482651 0.498795
33 1 0.203055 0.565677 0.499191
57 1 0.28746 0.627319 0.499243
71 1 0.400951 0.628875 0.50113
79 1 0.428152 0.589438 0.501216
10 1 0.526144 0.576443 0.506033
43 1 0.453932 0.694626 0.499151
27 1 0.669901 0.611973 0.503684
6 1 0.92631 0.669323 0.496169
63 1 0.152097 0.653797 0.503554
74 1 0.131301 0.721163 0.503176
37 1 0.225344 0.715975 0.506647
28 1 0.35408 0.712936 0.496288
18 1 0.573526 0.71866 0.49998
76 1 0.689131 0.701013 0.497845
68 1 0.678011 0.76356 0.500813
17 1 0.787098 0.749285 0.505237
31 1 0.0359639 0.766081 0.502501
20 1 0.176123 0.827615 0.505103
59 1 0.307982 0.80414 0.494767
15 1 0.435851 0.809352 0.504546
21 1 0.580121 0.855706 0.501501
2 1 0.925579 0.829014 0.508883
4 1 0.0598394 0.910925 0.506875
14 1 0.340986 0.920811 0.501807
25 1 0.459956 0.99528 0.501081
77 1 0.552807 0.952323 0.497082
62 1 0.4996 0.910322 0.49553
19 1 0.657192 0.98275 0.499714
38 1 0.933141 0.961576 0.502398
ITEM: TIMESTEP
2250
ITEM: NUMBER OF ATOMS
42
ITEM: BOX BOUNDS pp pp pp
-4.8147538658880951e+00 4.8147538658880951e+00
-4.8333401573597561e+00 4.8333401573597561e+00
-1.0000000000000001e-01 1.0000000000000001e-01
ITEM: ATOMS id type xs ys zs
8 1 0.79893 0.0246701 0.500972
41 1 0.918031 0.0749941 0.502094
12 1 0.843643 0.176193 0.498548
13 1 0.705116 0.252285 0.503711
26 1 0.833156 0.312899 0.500266
75 1 0.365503 0.450418 0.494885
5 1 0.47306 0.40581 0.499377
34 1 0.602339 0.360142 0.50334
29 1 0.729416 0.392371 0.498158
7 1 0.265644 0.443237 0.500355
36 1 0.351211 0.534011 0.496317
67 1 0.439982 0.502494 0.499222
32 1 0.643828 0.483391 0.496995
33 1 0.203473 0.566617 0.499219
57 1 0.287904 0.627753 0.499248
71 1 0.400506 0.628718 0.501238
79 1 0.428101 0.589057 0.501547
10 1 0.525984 0.575203 0.504681
43 1 0.453512 0.694325 0.498828
27 1 0.669467 0.612515 0.502882
6 1 0.925867 0.669781 0.497476
63 1 0.151606 0.654358 0.503697
74 1 0.131878 0.721676 0.501987
37 1 0.225496 0.71569 0.505965
28 1 0.354775 0.713281 0.494128
18 1 0.57291 0.71833 0.501731
76 1 0.688109 0.701191 0.498938
68 1 0.677928 0.764024 0.500744
17 1 0.786925 0.748223 0.505223
31 1 0.036437 0.765401 0.503476
20 1 0.175954 0.82751 0.504314
59 1 0.308195 0.803874 0.494142
15 1 0.436167 0.809524 0.506833
21 1 0.580594 0.855698 0.500579
2 1 0.925967 0.829006 0.508078
4 1 0.0606693 0.910867 0.507952
14 1 0.342164 0.920516 0.500232
25 1 0.460597 0.996238 0.499666
77 1 0.553481 0.95254 0.497313
62 1 0.500109 0.910913 0.497006
19 1 0.658012 0.983373 0.500187
38 1 0.934687 0.962192 0.504007
ITEM: TIMESTEP
2500
ITEM: NUMBER OF ATOMS
42
ITEM: BOX BOUNDS pp pp pp
-4.8135475706175441e+00 4.8135475706175441e+00
-4.8247909507816846e+00 4.8247909507816846e+00
-1.0000000000000001e-01 1.0000000000000001e-01
ITEM: ATOMS id type xs ys zs
8 1 0.799508 0.023551 0.501062
41 1 0.918748 0.0755507 0.499968
12 1 0.843557 0.175537 0.498013
13 1 0.704466 0.25079 0.504637
26 1 0.832556 0.312103 0.500239
75 1 0.365694 0.450673 0.495137
5 1 0.473288 0.405451 0.498742
34 1 0.602815 0.359614 0.50376
29 1 0.729418 0.391548 0.498503
7 1 0.265421 0.443007 0.500056
36 1 0.351035 0.534406 0.496717
67 1 0.44015 0.502778 0.497637
32 1 0.644755 0.483279 0.495788
33 1 0.202107 0.565668 0.498287
57 1 0.287047 0.627457 0.501381
71 1 0.401252 0.628578 0.501486
79 1 0.428354 0.588536 0.500362
10 1 0.526829 0.574841 0.504112
43 1 0.454135 0.694078 0.500136
27 1 0.670914 0.612288 0.501081
6 1 0.926581 0.670501 0.496599
63 1 0.15246 0.654289 0.501975
74 1 0.131526 0.721346 0.502165
37 1 0.225714 0.716504 0.504786
28 1 0.354933 0.71239 0.494017
18 1 0.573455 0.718283 0.501451
76 1 0.688559 0.701815 0.498033
68 1 0.677612 0.76469 0.501019
17 1 0.787098 0.750094 0.505589
31 1 0.0360677 0.76643 0.504861
20 1 0.17604 0.828522 0.505228
59 1 0.308595 0.803921 0.492891
15 1 0.436814 0.808979 0.507723
21 1 0.579932 0.85532 0.499899
2 1 0.926352 0.830332 0.507136
4 1 0.0603872 0.912152 0.508664
14 1 0.341787 0.920152 0.500794
25 1 0.460468 0.996117 0.500376
77 1 0.553359 0.952545 0.497222
62 1 0.500164 0.911052 0.494195
19 1 0.658503 0.981737 0.501058
38 1 0.934259 0.962758 0.502564
ITEM: TIMESTEP
2750
ITEM: NUMBER OF ATOMS
42
ITEM: BOX BOUNDS pp pp pp
-4.8123412753469923e+00 4.8123412753469923e+00
-4.8202902535261574e+00 4.8202902535261574e+00
-1.0000000000000001e-01 1.0000000000000001e-01
ITEM: ATOMS id type xs ys zs
8 1 0.79965 0.0233403 0.501267
41 1 0.919151 0.0755139 0.497568
12 1 0.842699 0.174842 0.497848
13 1 0.704499 0.251466 0.504362
26 1 0.832896 0.312757 0.498095
75 1 0.36513 0.450331 0.493617
5 1 0.473516 0.40586 0.498462
34 1 0.60285 0.359439 0.50302
29 1 0.72941 0.391619 0.497693
7 1 0.265411 0.442938 0.498969
36 1 0.351217 0.534251 0.49807
67 1 0.440247 0.502735 0.498881
32 1 0.643604 0.483073 0.494878
33 1 0.202261 0.566049 0.499025
57 1 0.287363 0.628207 0.501793
71 1 0.400059 0.628168 0.500386
79 1 0.428065 0.58916 0.498877
10 1 0.526389 0.575216 0.50227
43 1 0.45325 0.694392 0.499853
27 1 0.669285 0.612248 0.502943
6 1 0.925009 0.670762 0.496297
63 1 0.152431 0.654586 0.50136
74 1 0.131346 0.721934 0.499583
37 1 0.225664 0.716919 0.505146
28 1 0.354401 0.713002 0.493035
18 1 0.57236 0.718579 0.503081
76 1 0.687982 0.701074 0.499881
68 1 0.677345 0.76405 0.502143
17 1 0.786021 0.750657 0.507586
31 1 0.0358942 0.765929 0.506414
20 1 0.175328 0.828854 0.503365
59 1 0.3075 0.804132 0.493159
15 1 0.435963 0.810039 0.508166
21 1 0.579481 0.855174 0.498826
2 1 0.925808 0.830401 0.505533
4 1 0.060903 0.91196 0.507903
14 1 0.341551 0.920912 0.502068
25 1 0.46053 0.996196 0.501238
77 1 0.554127 0.952343 0.497837
62 1 0.500495 0.911085 0.494148
19 1 0.658965 0.98091 0.499793
38 1 0.934171 0.962347 0.502138
ITEM: TIMESTEP
3000
ITEM: NUMBER OF ATOMS
42
ITEM: BOX BOUNDS pp pp pp
-4.8111349800764405e+00 4.8111349800764405e+00
-4.8159271418328444e+00 4.8159271418328444e+00
-1.0000000000000001e-01 1.0000000000000001e-01
ITEM: ATOMS id type xs ys zs
8 1 0.801081 0.0232974 0.501771
41 1 0.919872 0.0762731 0.497869
12 1 0.842471 0.175083 0.497863
13 1 0.704171 0.251861 0.506273
26 1 0.832565 0.312244 0.495715
75 1 0.365126 0.450741 0.493347
5 1 0.473613 0.40562 0.495977
34 1 0.603036 0.358596 0.502297
29 1 0.729922 0.391764 0.496664
7 1 0.265105 0.443308 0.498417
36 1 0.350251 0.533955 0.497161
67 1 0.439233 0.502629 0.499609
32 1 0.643984 0.482818 0.494127
33 1 0.201844 0.566156 0.497224
57 1 0.287008 0.627453 0.503009
71 1 0.399843 0.627953 0.501041
79 1 0.428235 0.588279 0.498132
10 1 0.525605 0.574095 0.503095
43 1 0.452813 0.693934 0.50008
27 1 0.669186 0.612642 0.503939
6 1 0.926011 0.670593 0.495218
63 1 0.150321 0.654619 0.503253
74 1 0.130766 0.722597 0.500405
37 1 0.224671 0.715988 0.506484
28 1 0.353652 0.712808 0.492318
18 1 0.572138 0.717994 0.506083
76 1 0.687815 0.702438 0.499672
68 1 0.676866 0.76526 0.503655
17 1 0.785899 0.751048 0.507534
31 1 0.036834 0.766347 0.50739
20 1 0.176024 0.828209 0.504352
59 1 0.307919 0.80424 0.493214
15 1 0.436327 0.809363 0.507107
21 1 0.581759 0.854618 0.499234
2 1 0.926163 0.829886 0.503908
4 1 0.0605324 0.911854 0.506348
14 1 0.341729 0.921204 0.502233
25 1 0.461051 0.994764 0.501465
77 1 0.554913 0.952418 0.497391
62 1 0.5019 0.909865 0.49442
19 1 0.65999 0.981442 0.500832
38 1 0.934795 0.963128 0.501684
ITEM: TIMESTEP
3250
ITEM: NUMBER OF ATOMS
42
ITEM: BOX BOUNDS pp pp pp
-4.8099286848058886e+00 4.8099286848058886e+00
-4.8238125413994890e+00 4.8238125413994890e+00
-1.0000000000000001e-01 1.0000000000000001e-01
ITEM: ATOMS id type xs ys zs
8 1 0.801494 0.0224276 0.501003
41 1 0.919466 0.0755025 0.499622
12 1 0.843071 0.174491 0.49835
13 1 0.703883 0.250897 0.507799
26 1 0.832271 0.311444 0.495359
75 1 0.364844 0.450304 0.494482
5 1 0.473026 0.404598 0.496494
34 1 0.602717 0.358912 0.502966
29 1 0.729216 0.39073 0.495842
7 1 0.265088 0.44335 0.499754
36 1 0.351721 0.533978 0.498171
67 1 0.440104 0.501638 0.498585
32 1 0.64337 0.48229 0.493728
33 1 0.201055 0.566363 0.498255
57 1 0.286751 0.626553 0.501157
71 1 0.401046 0.628294 0.500505
79 1 0.428632 0.588616 0.496427
10 1 0.525954 0.573643 0.504032
43 1 0.453116 0.694914 0.500225
27 1 0.668716 0.612089 0.50249
6 1 0.925794 0.670514 0.494902
63 1 0.149491 0.654321 0.503849
74 1 0.130205 0.72149 0.500436
37 1 0.224088 0.715138 0.506612
28 1 0.353635 0.711939 0.492367
18 1 0.572197 0.718372 0.504887
76 1 0.687928 0.701308 0.498017
68 1 0.676676 0.76437 0.503615
17 1 0.785808 0.750696 0.508206
31 1 0.0366572 0.765907 0.506309
20 1 0.17496 0.827818 0.503277
59 1 0.306435 0.802803 0.493696
15 1 0.434885 0.809257 0.507499
21 1 0.582127 0.854978 0.498156
2 1 0.92628 0.830054 0.504116
4 1 0.061024 0.912377 0.506132
14 1 0.340589 0.920001 0.503377
25 1 0.460399 0.994189 0.501193
77 1 0.55471 0.952306 0.496749
62 1 0.501532 0.910284 0.493968
19 1 0.659476 0.982342 0.501989
38 1 0.934612 0.962548 0.499633
ITEM: TIMESTEP
3500
ITEM: NUMBER OF ATOMS
42
ITEM: BOX BOUNDS pp pp pp
-4.8087223895353368e+00 4.8087223895353368e+00
-4.8290676950299245e+00 4.8290676950299245e+00
-1.0000000000000001e-01 1.0000000000000001e-01
ITEM: ATOMS id type xs ys zs
8 1 0.80154 0.0216548 0.501478
41 1 0.9192 0.0753503 0.500305
12 1 0.841794 0.173897 0.49772
13 1 0.703035 0.251285 0.508827
26 1 0.831662 0.311202 0.496032
75 1 0.364629 0.449481 0.494228
5 1 0.471687 0.403972 0.499047
34 1 0.602607 0.359373 0.502038
29 1 0.72974 0.391412 0.496566
7 1 0.264232 0.44325 0.499486
36 1 0.35071 0.533014 0.498333
67 1 0.43957 0.502298 0.500281
32 1 0.644955 0.482793 0.494448
33 1 0.200909 0.565422 0.497193
57 1 0.286043 0.626659 0.502322
71 1 0.400238 0.627917 0.50125
79 1 0.427786 0.588336 0.495314
10 1 0.525912 0.574312 0.504515
43 1 0.452841 0.693904 0.499298
27 1 0.668688 0.613139 0.500291
6 1 0.925465 0.670259 0.494534
63 1 0.149853 0.653338 0.503737
74 1 0.130022 0.720769 0.502503
37 1 0.223845 0.715059 0.505844
28 1 0.353399 0.71214 0.494824
18 1 0.572065 0.718581 0.503954
76 1 0.687652 0.702356 0.499893
68 1 0.676505 0.765057 0.501191
17 1 0.78621 0.750601 0.50939
31 1 0.0358832 0.765661 0.50734
20 1 0.175327 0.826991 0.503493
59 1 0.307356 0.802703 0.495842
15 1 0.43536 0.808957 0.507807
21 1 0.581588 0.855938 0.498185
2 1 0.925827 0.830039 0.503046
4 1 0.0603655 0.911478 0.505747
14 1 0.341073 0.919285 0.50138
25 1 0.460037 0.994966 0.502229
77 1 0.554506 0.953219 0.495897
62 1 0.501176 0.911167 0.493964
19 1 0.658985 0.983574 0.500763
38 1 0.934535 0.962814 0.498983
ITEM: TIMESTEP
3750
ITEM: NUMBER OF ATOMS
42
ITEM: BOX BOUNDS pp pp pp
-4.8075160942647850e+00 4.8075160942647850e+00
-4.8212671470694719e+00 4.8212671470694719e+00
-1.0000000000000001e-01 1.0000000000000001e-01
ITEM: ATOMS id type xs ys zs
8 1 0.801211 0.0213473 0.501174
41 1 0.919287 0.0753188 0.500818
12 1 0.842643 0.175159 0.500168
13 1 0.70208 0.250931 0.510138
26 1 0.831078 0.311372 0.495804
75 1 0.36416 0.449264 0.493289
5 1 0.472245 0.404164 0.496651
34 1 0.602786 0.359808 0.503084
29 1 0.729367 0.391324 0.49587
7 1 0.263857 0.442555 0.500082
36 1 0.350047 0.533387 0.498869
67 1 0.439256 0.501979 0.501695
32 1 0.644478 0.483198 0.496282
33 1 0.2011 0.565491 0.49566
57 1 0.285872 0.627112 0.501375
71 1 0.400926 0.627426 0.501929
79 1 0.42792 0.58703 0.497789
10 1 0.526193 0.573695 0.503082
43 1 0.45227 0.694372 0.498817
27 1 0.668793 0.613052 0.499572
6 1 0.924919 0.668592 0.493747
63 1 0.149536 0.654047 0.502947
74 1 0.128927 0.72129 0.503378
37 1 0.223368 0.715525 0.506203
28 1 0.353017 0.711827 0.494082
18 1 0.571568 0.718719 0.503285
76 1 0.686979 0.7025 0.498481
68 1 0.676032 0.765577 0.501821
17 1 0.785472 0.749058 0.5087
31 1 0.0350805 0.764982 0.508081
20 1 0.174598 0.827657 0.502552
59 1 0.306498 0.802861 0.495559
15 1 0.434646 0.808804 0.508788
21 1 0.582157 0.85539 0.49856
2 1 0.924745 0.829685 0.501081
4 1 0.0594076 0.910614 0.505947
14 1 0.340468 0.919568 0.500284
25 1 0.459566 0.993351 0.50076
77 1 0.55437 0.952313 0.495917
62 1 0.501441 0.909394 0.493891
19 1 0.658883 0.98338 0.50074
38 1 0.933056 0.962231 0.496493
ITEM: TIMESTEP
4000
ITEM: NUMBER OF ATOMS
42
ITEM: BOX BOUNDS pp pp pp
-4.8063097989942341e+00 4.8063097989942341e+00
-4.8170004342478814e+00 4.8170004342478814e+00
-1.0000000000000001e-01 1.0000000000000001e-01
ITEM: ATOMS id type xs ys zs
8 1 0.801638 0.0218689 0.502255
41 1 0.919818 0.0759098 0.500944
12 1 0.84273 0.175305 0.499461
13 1 0.703686 0.251929 0.511093
26 1 0.831817 0.312597 0.495326
75 1 0.363592 0.448361 0.49389
5 1 0.471465 0.403385 0.494249
34 1 0.601545 0.359786 0.500488
29 1 0.728565 0.391526 0.496361
7 1 0.263553 0.442983 0.498854
36 1 0.350452 0.532631 0.498749
67 1 0.439655 0.501572 0.500241
32 1 0.643513 0.483117 0.496412
33 1 0.199995 0.565968 0.49475
57 1 0.28561 0.62607 0.501462
71 1 0.399162 0.627037 0.500519
79 1 0.4276 0.58789 0.497355
10 1 0.526182 0.574128 0.504272
43 1 0.451546 0.693149 0.498708
27 1 0.668598 0.61291 0.500145
6 1 0.923472 0.668803 0.492426
63 1 0.148895 0.654144 0.50243
74 1 0.129421 0.721813 0.503877
37 1 0.223312 0.715457 0.509364
28 1 0.352961 0.711511 0.49289
18 1 0.571419 0.718832 0.503656
76 1 0.686532 0.702419 0.498387
68 1 0.67563 0.7655 0.502901
17 1 0.784622 0.749813 0.510158
31 1 0.0340564 0.764435 0.508814
20 1 0.174525 0.827794 0.500727
59 1 0.30683 0.803048 0.496221
15 1 0.434683 0.808774 0.509315
21 1 0.582086 0.85548 0.49767
2 1 0.923845 0.829173 0.50057
4 1 0.0581951 0.910924 0.506917
14 1 0.339656 0.91997 0.500866
25 1 0.459867 0.994409 0.50231
77 1 0.554221 0.952881 0.496182
62 1 0.501437 0.910219 0.49246
19 1 0.658504 0.983789 0.501389
38 1 0.93184 0.962063 0.49732
ITEM: TIMESTEP
4250
ITEM: NUMBER OF ATOMS
42
ITEM: BOX BOUNDS pp pp pp
-4.8051035037236822e+00 4.8051035037236822e+00
-4.8187603330959812e+00 4.8187603330959812e+00
-1.0000000000000001e-01 1.0000000000000001e-01
ITEM: ATOMS id type xs ys zs
8 1 0.800843 0.0237532 0.50321
41 1 0.920242 0.0758951 0.500946
12 1 0.843541 0.175224 0.4993
13 1 0.704582 0.251422 0.511162
26 1 0.831559 0.312818 0.496079
75 1 0.363319 0.448869 0.492581
5 1 0.471869 0.404656 0.494727
34 1 0.601678 0.359898 0.500067
29 1 0.728519 0.392513 0.496206
7 1 0.262847 0.442416 0.497577
36 1 0.349888 0.53286 0.499151
67 1 0.43901 0.501822 0.499043
32 1 0.642851 0.483846 0.496593
33 1 0.200944 0.565593 0.494754
57 1 0.285836 0.626913 0.500006
71 1 0.399084 0.628073 0.502026
79 1 0.426829 0.588443 0.498594
10 1 0.525145 0.574678 0.50584
43 1 0.451281 0.693721 0.499501
27 1 0.668315 0.613255 0.500853
6 1 0.923292 0.66963 0.493888
63 1 0.147972 0.653771 0.502684
74 1 0.128979 0.721248 0.503944
37 1 0.223038 0.714376 0.509349
28 1 0.352381 0.712412 0.493412
18 1 0.570565 0.7189 0.503139
76 1 0.685942 0.702821 0.497822
68 1 0.674926 0.76576 0.50135
17 1 0.78399 0.751268 0.51006
31 1 0.0339118 0.765134 0.507784
20 1 0.173629 0.827747 0.502926
59 1 0.305936 0.803546 0.497173
15 1 0.434193 0.809136 0.509624
21 1 0.582314 0.856232 0.498747
2 1 0.923693 0.829951 0.499636
4 1 0.0588714 0.91091 0.508165
14 1 0.339556 0.920517 0.503049
25 1 0.458971 0.994862 0.503059
77 1 0.553701 0.952924 0.496538
62 1 0.500961 0.910406 0.492236
19 1 0.659145 0.983362 0.501356
38 1 0.932806 0.962456 0.497171
ITEM: TIMESTEP
4500
ITEM: NUMBER OF ATOMS
42
ITEM: BOX BOUNDS pp pp pp
-4.8038972084531304e+00 4.8038972084531304e+00
-4.8202308147335184e+00 4.8202308147335184e+00
-1.0000000000000001e-01 1.0000000000000001e-01
ITEM: ATOMS id type xs ys zs
8 1 0.800534 0.0227193 0.505582
41 1 0.919563 0.0764329 0.502341
12 1 0.84213 0.174535 0.499077
13 1 0.70371 0.251267 0.511329
26 1 0.831878 0.312007 0.495681
75 1 0.363519 0.44848 0.492813
5 1 0.471518 0.403448 0.494743
34 1 0.601967 0.359915 0.500007
29 1 0.729343 0.391494 0.495457
7 1 0.263015 0.442795 0.496069
36 1 0.350725 0.532452 0.498992
67 1 0.43909 0.50044 0.498527
32 1 0.644501 0.483039 0.497928
33 1 0.200095 0.565782 0.494632
57 1 0.286211 0.626098 0.498596
71 1 0.398421 0.627925 0.50218
79 1 0.427056 0.58827 0.499385
10 1 0.525081 0.573713 0.503971
43 1 0.451295 0.694114 0.4999
27 1 0.66829 0.612834 0.500585
6 1 0.924308 0.669177 0.492371
63 1 0.147918 0.652866 0.501058
74 1 0.128209 0.719937 0.504755
37 1 0.222411 0.713856 0.506622
28 1 0.351835 0.712252 0.49291
18 1 0.570734 0.718299 0.50394
76 1 0.686255 0.702496 0.499922
68 1 0.675023 0.765324 0.500967
17 1 0.784411 0.750353 0.508918
31 1 0.0345965 0.765874 0.506596
20 1 0.173549 0.825894 0.502975
59 1 0.306245 0.804197 0.49847
15 1 0.434423 0.808491 0.510938
21 1 0.582194 0.854907 0.499848
2 1 0.92423 0.830223 0.498213
4 1 0.0596493 0.910916 0.508029
14 1 0.34129 0.920577 0.504211
25 1 0.460824 0.99459 0.503166
77 1 0.554599 0.951842 0.49568
62 1 0.501651 0.909913 0.492706
19 1 0.658422 0.984175 0.499395
38 1 0.933161 0.963168 0.496063
ITEM: TIMESTEP
4750
ITEM: NUMBER OF ATOMS
42
ITEM: BOX BOUNDS pp pp pp
-4.8026909131825786e+00 4.8026909131825786e+00
-4.8169213361176499e+00 4.8169213361176499e+00
-1.0000000000000001e-01 1.0000000000000001e-01
ITEM: ATOMS id type xs ys zs
8 1 0.802115 0.020331 0.505393
41 1 0.919648 0.0760433 0.50247
12 1 0.840766 0.174146 0.49798
13 1 0.702502 0.25175 0.513198
26 1 0.83159 0.3112 0.496773
75 1 0.365126 0.449098 0.492482
5 1 0.4719 0.401774 0.496381
34 1 0.602958 0.360118 0.50003
29 1 0.730439 0.39223 0.495661
7 1 0.2647 0.442651 0.495993
36 1 0.351373 0.533777 0.499218
67 1 0.439758 0.499475 0.49971
32 1 0.645075 0.482942 0.497928
33 1 0.200374 0.565043 0.49322
57 1 0.285649 0.625907 0.498211
71 1 0.397991 0.627816 0.501958
79 1 0.427826 0.589745 0.499314
10 1 0.525798 0.573186 0.503653
43 1 0.450481 0.693571 0.49863
27 1 0.668658 0.612617 0.500253
6 1 0.925203 0.670715 0.491851
63 1 0.147972 0.652499 0.502055
74 1 0.127786 0.720024 0.503684
37 1 0.222373 0.713792 0.506075
28 1 0.351539 0.712417 0.494658
18 1 0.570627 0.717862 0.503672
76 1 0.686765 0.701845 0.499159
68 1 0.675524 0.764693 0.499637
17 1 0.784526 0.750333 0.509941
31 1 0.0352417 0.766232 0.507544
20 1 0.172332 0.825864 0.502613
59 1 0.30614 0.804609 0.498709
15 1 0.433889 0.808694 0.509308
21 1 0.582626 0.854983 0.500229
2 1 0.924795 0.83076 0.497971
4 1 0.0598198 0.911831 0.507934
14 1 0.339948 0.921363 0.50356
25 1 0.460325 0.994269 0.50254
77 1 0.554519 0.952436 0.497698
62 1 0.502252 0.90987 0.491933
19 1 0.658654 0.984135 0.497076
38 1 0.933134 0.962894 0.495739
ITEM: TIMESTEP
5000
ITEM: NUMBER OF ATOMS
42
ITEM: BOX BOUNDS pp pp pp
-4.8014846179120267e+00 4.8014846179120267e+00
-4.8264433790445791e+00 4.8264433790445791e+00