LAMMPS (23 Jun 2022 - Update 4)
  using 1 OpenMP thread(s) per MPI task
# Compute elastic constant tensor for a crystal
#
# Written by Aidan Thompson (Sandia, athomps@sandia.gov)
#
#  This script uses the following three include files.
#
#   init.mod      (must be modified for different crystal structures)
# 	       	  Define units, deformation parameters and initial
#		  configuration of the atoms and simulation cell.
#
#
#   potential.mod    (must be modified for different pair styles)
# 		     Define pair style and other attributes
#		     not stored in restart file
#
#
#   displace.mod    (displace.mod should not need to be modified)
# 		    Perform positive and negative box displacements
# 		    in direction ${dir} and size ${up}.
# 		    It uses the resultant changes
#		    in stress to compute one
# 		    row of the elastic stiffness tensor
#
#		    Inputs variables:
#		    	   dir = the Voigt deformation component
#		    		    (1,2,3,4,5,6)
#		    Global constants:
#       	    	   up = the deformation magnitude (strain units)
#       		   cfac = conversion from LAMMPS pressure units to
#               	   output units for elastic constants
#
#
#  To run this on a different system, it should only be necessary to
#  modify the files init.mod and potential.mod. In order to calculate
#  the elastic constants correctly, care must be taken to specify
#  the correct units in init.mod (units, cfac and cunits). It is also
#  important to verify that the minimization of energy w.r.t atom
#  positions in the deformed cell is fully converged.
#  One indication of this is that the elastic constants are insensitive
#  to the choice of the variable ${up} in init.mod. Another is to check
#  the final max and two-norm forces reported in the log file. If you know
#  that minimization is not required, you can set maxiter = 0.0 in
#  init.mod.
#



variable dt equal 0.01
variable strain equal 0.05
variable srate equal 1e-4
variable M equal 1000 # averaging time for properties
variable strainsteps equal ${strain}/${dt}/${srate}
variable strainsteps equal 0.05/${dt}/${srate}
variable strainsteps equal 0.05/0.01/${srate}
variable strainsteps equal 0.05/0.01/0.0001


dimension 2
include init.mod
# NOTE: This script can be modified for different atomic structures,
# units, etc. See in.elastic for more info.
#

# Define the finite deformation size. Try several values of this
# variable to verify that results do not depend on it.
variable up equal 1.0e-1

# Define the amount of random jiggle for atoms
# This prevents atoms from staying on saddle points
variable atomjiggle equal 1.0e-6

# Uncomment one of these blocks, depending on what units
# you are using in LAMMPS and for output

# metal units, elastic constants in eV/A^3
#units		metal
#variable cfac equal 6.2414e-7
#variable cunits string eV/A^3

# Choose potential
# metal units, elastic constants in GPa
units		metal
atom_style	full
#pair_style      lj/cut 1.0
#pair_style      yukawa 1.0 2.0
#pair_modify     mix arithmetic
bond_style      harmonic
angle_style     harmonic
dihedral_style  zero
special_bonds   amber
variable cfac equal 1.0e-4
variable cunits string GPa
boundary	p p p

# Need to set mass to something, just to satisfy LAMMPS
#mass 1 1.0e-20
read_data network.lmp
Reading data file ...
  orthogonal box = (-4.825181 -4.825181 -0.1) to (4.825181 4.825181 0.1)
  1 by 1 by 1 MPI processor grid
WARNING: Atom style in data file differs from currently defined atom style (src/read_data.cpp:538)
  reading atoms ...
  42 atoms
WARNING: Bond style in data file differs from currently defined bond style (src/read_data.cpp:630)
  scanning bonds ...
  4 = max bonds/atom
  reading bonds ...
  84 bonds
Finding 1-2 1-3 1-4 neighbors ...
  special bond factors lj:    0        0        0.5     
  special bond factors coul:  0        0        0.8333333333333334
     7 = max # of 1-2 neighbors
    28 = max # of 1-3 neighbors
   139 = max # of 1-4 neighbors
    29 = max # of special neighbors
  special bonds CPU = 0.000 seconds
  read_data CPU = 0.003 seconds

# real units, elastic constants in GPa
#units		real
#variable cfac equal 1.01325e-4
#variable cunits string GPa

# Define minimization parameters
variable etol equal 0.0
variable ftol equal 5.0e-10
variable maxiter equal 100000
variable maxeval equal 20000
variable dmax equal 1.0e-2


include potential.mod
# NOTE: This script can be modified for different pair styles
# See in.elastic for more info.

# Setup neighbor style
neighbor 3.0 nsq
neigh_modify once no every 1 delay 0 check yes
comm_modify cutoff 2.0

# Setup minimization style
min_style	     cg
min_modify	     dmax ${dmax} line quadratic
min_modify	     dmax 0.01 line quadratic

timestep	0.001


# Setup output
thermo		500
thermo_style custom step temp pe ebond eangle edihed press pxx pyy pzz pxy pxz pyz lx ly lz vol
thermo_modify norm no


#change_box all triclinic
comm_modify mode single cutoff 10.0 vel yes
atom_modify sort 0 0



# Compute initial state

#dump rela all atom 1 traj_relax.lmpstrj
fix 3 all box/relax x 0 y 0 # xy 0  #MS comment: relax if the network is periodic
minimize ${etol} ${ftol} ${maxiter} ${maxeval}
minimize 0 ${ftol} ${maxiter} ${maxeval}
minimize 0 5e-10 ${maxiter} ${maxeval}
minimize 0 5e-10 100000 ${maxeval}
minimize 0 5e-10 100000 20000
Neighbor list info ...
  update every 1 steps, delay 0 steps, check yes
  max neighbors/atom: 2000, page size: 100000
  master list distance cutoff = 0
  ghost atom cutoff = 10
  0 neighbor lists, perpetual/occasional/extra = 0 0 0
WARNING: Inconsistent image flags (src/domain.cpp:819)
Per MPI rank memory allocation (min/avg/max) = 8.639 | 8.639 | 8.639 Mbytes
   Step          Temp          PotEng         E_bond        E_angle        E_dihed         Press           Pxx            Pyy            Pzz            Pxy            Pxz            Pyz             Lx             Ly             Lz           Volume    
         0   0              1.6968786e-11  1.6968786e-11  0              0              0.038233559    0.05713086     0.019336257    0             -0.011145811    0              0              9.650362       9.650362       0.2            93.129487    
        89   0              1.4384611e-19  1.4384611e-19  0              0              1.0590025e-07  2.7196803e-08  1.8460369e-07  0              1.1335138e-06  0              0              9.6503622      9.650364       0.2            93.129507    
Loop time of 0.00320543 on 1 procs for 89 steps with 42 atoms

100.0% CPU use with 1 MPI tasks x 1 OpenMP threads

Minimization stats:
  Stopping criterion = force tolerance
  Energy initial, next-to-last, final = 
    1.69687856047693e-11 2.12316996757087e-19 1.43846105711952e-19
  Force two-norm initial, final = 1.4318428e-05 4.8140589e-10
  Force max component initial, final = 4.9206843e-06 1.6977265e-10
  Final line search alpha, max atom move = 1 1.6977265e-10
  Iterations, force evaluations = 89 178

MPI task timing breakdown:
Section |  min time  |  avg time  |  max time  |%varavg| %total
---------------------------------------------------------------
Pair    | 0          | 0          | 0          |   0.0 |  0.00
Bond    | 0.00040978 | 0.00040978 | 0.00040978 |   0.0 | 12.78
Neigh   | 0          | 0          | 0          |   0.0 |  0.00
Comm    | 0.00099783 | 0.00099783 | 0.00099783 |   0.0 | 31.13
Output  | 0          | 0          | 0          |   0.0 |  0.00
Modify  | 0          | 0          | 0          |   0.0 |  0.00
Other   |            | 0.001798   |            |       | 56.09

Nlocal:             42 ave          42 max          42 min
Histogram: 1 0 0 0 0 0 0 0 0 0
Nghost:            348 ave         348 max         348 min
Histogram: 1 0 0 0 0 0 0 0 0 0
Neighs:              0 ave           0 max           0 min
Histogram: 1 0 0 0 0 0 0 0 0 0

Total # of neighbors = 0
Ave neighs/atom = 0
Ave special neighs/atom = 18.619048
Neighbor list builds = 0
Dangerous builds = 0
#dump rela all atom 1 traj_relax.lmpstrj
thermo 100
unfix 3

fix 2d all enforce2d



#dump dump0 all xyz 1000000 cfg0.xyz
#dump_modify dump0 format line "%d %20.10g %20.10g %20.10g"
#minimize ${etol} ${ftol} ${maxiter} ${maxeval}

#undump rela

#write_restart restart.equil

# These formulas define the derivatives w.r.t. strain components
# Constants uses $, variables use v_


timestep        ${dt}
timestep        0.01
variable nsteps equal round(${strainsteps})
variable nsteps equal round(50000)

fix             4 all nve
fix             5 all langevin 0.1 0.1 1 904297
#fix		6 all press/berendsen y  0.0 0.0 1 x 0.0 0.0 10
fix             6 all nph y 0.0 0.0 10 ptemp 0.1 # x 0.0 0.0 10

# For PLUMED2
# fix 22 all plumed plumedfile plumed.dat outfile plumed.out

#fix             6 all nph x 0.0 0.0 10
fix     	9 all deform 1 x erate -${srate} units box remap x
fix     	9 all deform 1 x erate -0.0001 units box remap x

#fix     8 all deform 1 xy erate ${srate} units box remap x



#fix    10 all ave/time

dump 1 all atom 250 deform_dump.lammpstrj


#To avoid flying ice cube phenomenon:
#fix 21 all momentum 100 linear 1 1 1 angular


run  ${nsteps}
run  50000
WARNING: One or more atoms are time integrated more than once (src/modify.cpp:292)
WARNING: Inconsistent image flags (src/domain.cpp:819)
Per MPI rank memory allocation (min/avg/max) = 7.514 | 7.514 | 7.514 Mbytes
   Step          Temp          PotEng         E_bond        E_angle        E_dihed         Press           Pxx            Pyy            Pzz            Pxy            Pxz            Pyz             Lx             Ly             Lz           Volume    
        89   0              1.4384611e-19  1.4384611e-19  0              0              1.0590025e-07  2.7196803e-08  1.8460369e-07  0              1.1335138e-06  0              0              9.6503622      9.650364       0.2            93.129507    
       100   0.064245463    7.0116297e-06  7.0116297e-06  0              0              45.538152      66.752397      24.198452      0              39.681375      0              0              9.650256       9.6504641      0.2            93.129449    
       200   0.21719445     0.00054927551  0.00054927551  0              0             -155.65179     -299.36805     -12.081865      0             -275.99098      0              0              9.649291       9.6525206      0.2            93.13998     
       300   0.15964927     0.00066205618  0.00066205618  0              0              56.881281      133.42874     -19.796316      0             -107.9071       0              0              9.6483259      9.6484348      0.2            93.091244    
       400   0.1522201      0.00050709409  0.00050709409  0              0              41.713145     -29.592782      112.88353      0             -457.91171      0              0              9.6473609      9.6404592      0.2            93.004989    
       500   0.22520469     0.00053653741  0.00053653741  0              0             -40.080751      91.197892     -171.49379      0             -194.41816      0              0              9.6463959      9.6331914      0.2            92.925578    
       600   0.16819757     0.00054195091  0.00054195091  0              0              292.70752      375.77697      209.52803      0              150.3596       0              0              9.6454308      9.6330785      0.2            92.915192    
       700   0.21132733     0.00071011224  0.00071011224  0              0              46.834095      218.59883     -125.04875      0              249.413        0              0              9.6444658      9.6522816      0.2            93.091099    
       800   0.26553211     0.0005761001   0.0005761001   0              0              134.11707      77.707347      190.41108      0             -271.12272      0              0              9.6435008      9.654805       0.2            93.106119    
       900   0.20377673     0.00070151971  0.00070151971  0              0             -157.13362     -151.28147     -163.11595      0             -825.95332      0              0              9.6425357      9.6492661      0.2            93.043393    
      1000   0.17973494     0.00061173735  0.00061173735  0              0              399.37555      549.25249      249.35455      0              100.58962      0              0              9.6415707      9.642956       0.2            92.973242    
      1100   0.18361189     0.0006271256   0.0006271256   0              0              49.648011      369.0909      -269.92903      0              502.60866      0              0              9.6406056      9.6496085      0.2            93.02807     
      1200   0.17179625     0.00073424271  0.00073424271  0              0              756.97369      1223.6402      290.17791      0             -388.60224      0              0              9.6396406      9.6389123      0.2            92.91565     
      1300   0.19329154     0.00081830392  0.00081830392  0              0             -139.92649     -90.468323     -189.52826      0              4.5807407      0              0              9.6386756      9.6493294      0.2            93.006756    
      1400   0.22721187     0.00064898115  0.00064898115  0              0              185.56587      300.33062      70.678464      0              112.7996       0              0              9.6377105      9.6576934      0.2            93.078053    
      1500   0.26282181     0.00066950828  0.00066950828  0              0              217.05564      443.4624      -9.4574077      0             -169.14547      0              0              9.6367455      9.6648736      0.2            93.137928    
      1600   0.21572948     0.00084688896  0.00084688896  0              0              361.47482      931.10626     -208.27462      0              487.02907      0              0              9.6357805      9.6716246      0.2            93.193652    
      1700   0.18759752     0.00077712758  0.00077712758  0              0              11.6019       -314.9887       338.03875      0              315.30303      0              0              9.6348154      9.6688703      0.2            93.157781    
      1800   0.22227149     0.00078167983  0.00078167983  0              0             -204.12029      138.94721     -547.30299      0              237.41341      0              0              9.6338504      9.6678065      0.2            93.138201    
      1900   0.17974843     0.00067941869  0.00067941869  0              0              302.14128     -35.940566      640.10985      0              106.52315      0              0              9.6328854      9.6478191      0.2            92.936336    
      2000   0.1806233      0.00084886359  0.00084886359  0              0             -736.22122     -716.60666     -755.96891      0              507.10047      0              0              9.6319203      9.6687295      0.2            93.128432    
      2100   0.20418931     0.0007060384   0.0007060384   0              0              442.97291      70.378648      815.43779      0              850.60397      0              0              9.6309553      9.650497       0.2            92.943505    
      2200   0.19487281     0.00058000301  0.00058000301  0              0             -17.141681      819.04013     -853.45859      0              283.40085      0              0              9.6299902      9.667031       0.2            93.093415    
      2300   0.18973207     0.00049867974  0.00049867974  0              0              587.83226      435.76033      739.80581      0             -25.268613      0              0              9.6290252      9.6609908      0.2            93.025924    
      2400   0.18604302     0.00050848377  0.00050848377  0              0             -394.20329     -193.20516     -595.31898      0             -128.48339      0              0              9.6280602      9.6618778      0.2            93.025141    
      2500   0.21503608     0.00053609338  0.00053609338  0              0              237.79069      49.508163      425.92991      0             -67.706872      0              0              9.6270951      9.6495819      0.2            92.897443    
      2600   0.21206929     0.00059053959  0.00059053959  0              0             -55.36904       131.31715     -242.21304      0             -351.49351      0              0              9.6261301      9.6543759      0.2            92.934278    
      2700   0.21880386     0.0007604168   0.0007604168   0              0              309.74268      704.15527     -84.795744      0             -149.77048      0              0              9.6251651      9.6506837      0.2            92.889424    
      2800   0.15820307     0.0006476806   0.0006476806   0              0              456.39075      532.62923      380.02183      0              276.8093       0              0              9.6242         9.6512856      0.2            92.885904    
      2900   0.23182581     0.00048127964  0.00048127964  0              0             -233.40701      98.772517     -565.71757      0              44.776142      0              0              9.623235       9.6468237      0.2            92.833652    
      3000   0.24171222     0.00078960757  0.00078960757  0              0              597.59888      508.93996      686.15544      0              164.80396      0              0              9.62227        9.6318543      0.2            92.680302    
      3100   0.26128316     0.00062887198  0.00062887198  0              0             -360.51135      3.3536169     -724.48376      0              49.366656      0              0              9.6213049      9.6518571      0.2            92.863461    
      3200   0.17677893     0.00061565271  0.00061565271  0              0              259.66388     -177.65918      696.85364      0             -194.38878      0              0              9.6203399      9.6498106      0.2            92.834458    
      3300   0.20061676     0.00071187736  0.00071187736  0              0              200.80986      1090.7804     -689.29282      0             -107.65165      0              0              9.6193749      9.6541664      0.2            92.867045    
      3400   0.18822349     0.00052800607  0.00052800607  0              0              805.80082      1082.4866      528.9735       0              86.680609      0              0              9.6184098      9.6403013      0.2            92.724368    
      3500   0.28241947     0.00070727096  0.00070727096  0              0             -92.851134      237.07571     -422.92584      0             -364.65116      0              0              9.6174448      9.6581354      0.2            92.886584    
      3600   0.24127741     0.0008278793   0.0008278793   0              0              107.50276     -141.67015      356.56995      0             -138.38658      0              0              9.6164797      9.6500355      0.2            92.799371    
      3700   0.21011835     0.0010188322   0.0010188322   0              0             -4.4202665      238.61219     -247.58083      0              337.79107      0              0              9.6155147      9.6484777      0.2            92.77508     
      3800   0.22925031     0.00066352188  0.00066352188  0              0              429.84707      792.41512      67.15112       0             -161.74755      0              0              9.6145497      9.6304036      0.2            92.591994    
      3900   0.19126375     0.00083464881  0.00083464881  0              0              882.97898      1519.8557      245.99582      0              256.93826      0              0              9.6135846      9.6310824      0.2            92.589226    
      4000   0.21810618     0.00072777104  0.00072777104  0              0              377.77219      1132.9785     -377.55036      0              314.60927      0              0              9.6126196      9.6340009      0.2            92.607986    
      4100   0.21973593     0.00060075629  0.00060075629  0              0              913.93593      1299.9021      527.83753      0              453.13811      0              0              9.6116546      9.6320291      0.2            92.579736    
      4200   0.18068133     0.00079083275  0.00079083275  0              0              39.427408      664.44548     -585.73346      0              80.675831      0              0              9.6106895      9.6412844      0.2            92.659391    
      4300   0.17739195     0.00076481203  0.00076481203  0              0              1146.0454      1627.1153      664.85501      0             -53.629925      0              0              9.6097245      9.6307549      0.2            92.548901    
      4400   0.23661054     0.00059420278  0.00059420278  0              0             -292.94933      124.42844     -710.49407      0              362.92296      0              0              9.6087595      9.6493338      0.2            92.718127    
      4500   0.19772067     0.00069172465  0.00069172465  0              0              677.53309      691.73429      663.204        0             -151.50541      0              0              9.6077944      9.6404616      0.2            92.623573    
      4600   0.22967941     0.00062829932  0.00062829932  0              0             -457.433       -367.68486     -547.3306       0             -214.72721      0              0              9.6068294      9.6543528      0.2            92.74772     
      4700   0.24824723     0.00056608364  0.00056608364  0              0              241.16555      125.0782       357.1285       0             -205.47224      0              0              9.6058643      9.6430163      0.2            92.629506    
      4800   0.22803065     0.00064034794  0.00064034794  0              0              218.40753      522.47049     -85.793228      0              0.57265094     0              0              9.6048993      9.6310274      0.2            92.505049    
      4900   0.20524241     0.00053459409  0.00053459409  0              0             -87.882123     -53.217733     -122.64185      0             -70.066851      0              0              9.6039343      9.6365309      0.2            92.54861     
      5000   0.18311704     0.00071350875  0.00071350875  0              0             -6.1358888     -219.40446      207.00328      0             -164.28387      0              0              9.6029692      9.6528868      0.2            92.696375    
      5100   0.21912163     0.000531172    0.000531172    0              0              243.34631      928.84338     -442.26401      0             -32.555391      0              0              9.6020042      9.6550083      0.2            92.70743     
      5200   0.18167858     0.00067592458  0.00067592458  0              0              167.22799     -183.17347      517.50701      0              367.03398      0              0              9.6010392      9.6389834      0.2            92.544257    
      5300   0.21365897     0.00051753666  0.00051753666  0              0             -288.33073     -27.913096     -548.88355      0              84.708165      0              0              9.6000741      9.6387526      0.2            92.53274     
      5400   0.20133298     0.00081913742  0.00081913742  0              0              655.22707      720.22838      590.14062      0             -79.32794       0              0              9.5991091      9.6372044      0.2            92.508577    
      5500   0.19731309     0.00080549491  0.00080549491  0              0             -334.77488     -58.450131     -611.19578      0             -63.610369      0              0              9.5981441      9.6403807      0.2            92.529762    
      5600   0.20887524     0.00068594409  0.00068594409  0              0              558.93007      628.45761      489.27089      0              32.715752      0              0              9.597179       9.6321084      0.2            92.441069    
      5700   0.17067413     0.00072322308  0.00072322308  0              0             -244.64977     -146.42024     -342.99831      0              290.37396      0              0              9.596214       9.6568014      0.2            92.668733    
      5800   0.12564572     0.00071182485  0.00071182485  0              0              462.42527      730.21424      194.50844      0             -865.92525      0              0              9.5952489      9.6604191      0.2            92.694126    
      5900   0.15396425     0.00071534853  0.00071534853  0              0              555.27632      1185.6609     -75.255452      0             -31.546749      0              0              9.5942839      9.6684149      0.2            92.761518    
      6000   0.18614438     0.00057393517  0.00057393517  0              0             -329.19692     -549.93406     -108.5755       0             -480.71461      0              0              9.5933189      9.6733177      0.2            92.799221    
      6100   0.22207793     0.00056496162  0.00056496162  0              0              114.19855     -3.3012545      231.57594      0             -339.87633      0              0              9.5923538      9.6635191      0.2            92.695894    
      6200   0.20391803     0.00061012329  0.00061012329  0              0             -198.40177     -116.06641     -280.8798       0              144.33696      0              0              9.5913888      9.6695131      0.2            92.74406     
      6300   0.22506474     0.00081622397  0.00081622397  0              0              225.77063      85.410416      365.99956      0             -561.99291      0              0              9.5904238      9.6473705      0.2            92.522371    
      6400   0.19979058     0.00057257027  0.00057257027  0              0             -400.86403     -570.11414     -231.75332      0             -441.59236      0              0              9.5894587      9.6568693      0.2            92.604149    
      6500   0.26130503     0.00057879862  0.00057879862  0              0             -54.979098     -300.63235      190.53415      0              65.38733       0              0              9.5884937      9.6616546      0.2            92.640714    
      6600   0.18687595     0.00067718393  0.00067718393  0              0             -397.27746     -630.55726     -164.12769      0             -147.84432      0              0              9.5875287      9.6574668      0.2            92.59124     
      6700   0.21047783     0.00059319244  0.00059319244  0              0             -111.42641     -401.4358       178.44733      0             -255.17209      0              0              9.5865636      9.6509968      0.2            92.519895    
      6800   0.26051309     0.00055890399  0.00055890399  0              0             -442.44537     -776.53806     -108.43826      0             -630.80394      0              0              9.5855986      9.6526228      0.2            92.526168    
      6900   0.20874278     0.00036867997  0.00036867997  0              0             -68.373921     -266.50157      129.64625      0             -180.62607      0              0              9.5846335      9.6531441      0.2            92.521849    
      7000   0.21884425     0.00081026264  0.00081026264  0              0             -560.29049     -1049.3606     -71.33458       0             -302.13595      0              0              9.5836685      9.6444112      0.2            92.42884     
      7100   0.17062127     0.00080936092  0.00080936092  0              0             -637.41455     -1265.8296     -9.1146873      0             -131.85918      0              0              9.5827035      9.6472714      0.2            92.446942    
      7200   0.21496954     0.00074010705  0.00074010705  0              0             -397.74743     -842.15672      46.53951       0             -185.57887      0              0              9.5817384      9.6426794      0.2            92.393632    
      7300   0.20891199     0.00072656052  0.00072656052  0              0              10.250849      105.38075     -84.984069      0             -283.23841      0              0              9.5807734      9.6431369      0.2            92.388709    
      7400   0.24033283     0.00068974866  0.00068974866  0              0              476.62668      791.57635      161.58217      0             -311.18378      0              0              9.5798084      9.6577037      0.2            92.51895     
      7500   0.12766373     0.00090051789  0.00090051789  0              0              75.381143      312.12658     -161.47064      0             -49.3772        0              0              9.5788433      9.6656433      0.2            92.585683    
      7600   0.21502846     0.00069924572  0.00069924572  0              0              634.85599      1135.4826      134.05539      0             -3.4956683      0              0              9.5778783      9.6702859      0.2            92.620821    
      7700   0.2386915      0.000622906    0.000622906    0              0              404.09006      939.35094     -131.31646      0             -419.87364      0              0              9.5769133      9.6768253      0.2            92.674117    
      7800   0.19474503     0.00053068463  0.00053068463  0              0              60.946499      120.44568      1.3305778      0             -172.59477      0              0              9.5759482      9.670496       0.2            92.604169    
      7900   0.18685419     0.00041059882  0.00041059882  0              0             -49.330978     -153.00244      54.188772      0             -353.0296       0              0              9.5749832      9.6735733      0.2            92.624302    
      8000   0.1704856      0.00061317906  0.00061317906  0              0             -138.29325     -133.903       -142.83754      0             -296.81851      0              0              9.5740181      9.6772514      0.2            92.65018     
      8100   0.23382767     0.00053695421  0.00053695421  0              0              278.67609      498.68401      58.542479      0              88.800834      0              0              9.5730531      9.6840134      0.2            92.705574    
      8200   0.2223307      0.00053025493  0.00053025493  0              0              455.5215       938.82851     -27.923793      0              174.68071      0              0              9.5720881      9.6811354      0.2            92.668681    
      8300   0.20455643     0.00060585231  0.00060585231  0              0              508.62297      986.99037      30.13732       0              152.25022      0              0              9.571123       9.6853585      0.2            92.699758    
      8400   0.20192813     0.00063322271  0.00063322271  0              0              109.95871      185.71011      34.074777      0              441.27481      0              0              9.570158       9.6782169      0.2            92.622065    
      8500   0.21827898     0.00051166257  0.00051166257  0              0              71.260836      201.62133     -59.218301      0              17.44611       0              0              9.569193       9.6762484      0.2            92.593888    
      8600   0.19349143     0.00058377764  0.00058377764  0              0             -36.776598     -95.046747      21.359717      0             -39.716898      0              0              9.5682279      9.6841215      0.2            92.659881    
      8700   0.23578519     0.00065969259  0.00065969259  0              0             -137.65501     -233.89604     -41.553984      0              53.175875      0              0              9.5672629      9.679981       0.2            92.610923    
      8800   0.19386446     0.00061015661  0.00061015661  0              0              40.212973      98.842726     -18.531018      0             -492.06042      0              0              9.5662979      9.6831581      0.2            92.631974    
      8900   0.23099297     0.00063107931  0.00063107931  0              0              50.527436      155.0412      -54.114936      0             -408.94979      0              0              9.5653328      9.687036       0.2            92.659723    
      9000   0.22022109     0.00072083879  0.00072083879  0              0              260.76401      532.22108     -10.863211      0             -501.00384      0              0              9.5643678      9.6829283      0.2            92.611088    
      9100   0.16363469     0.00062223006  0.00062223006  0              0              175.21389      272.85493      77.464536      0             -235.24179      0              0              9.5634028      9.6806486      0.2            92.579941    
      9200   0.24994806     0.0007664532   0.0007664532   0              0              347.8072       763.80368     -68.319659      0              312.26232      0              0              9.5624377      9.693329       0.2            92.691855    
      9300   0.18599445     0.00093307545  0.00093307545  0              0              152.77241      317.87629     -12.446079      0             -457.37554      0              0              9.5614727      9.6950878      0.2            92.699317    
      9400   0.18649808     0.00054431667  0.00054431667  0              0              266.32244      567.32182     -34.809486      0             -78.942852      0              0              9.5605076      9.7063722      0.2            92.797845    
      9500   0.22050302     0.00075491452  0.00075491452  0              0              509.00462      980.90147      36.969233      0             -51.57276       0              0              9.5595426      9.7014735      0.2            92.74165     
      9600   0.23156549     0.00079477442  0.00079477442  0              0              406.26901      893.64916     -81.244105      0              213.16632      0              0              9.5585776      9.6975757      0.2            92.695029    
      9700   0.22420612     0.0005767074   0.0005767074   0              0              740.90936      1500.1959     -18.484382      0             -305.54675      0              0              9.5576125      9.6899386      0.2            92.612679    
      9800   0.18569124     0.00081022737  0.00081022737  0              0              702.47034      1407.9345     -3.1056282      0             -261.86242      0              0              9.5566475      9.6970068      0.2            92.670876    
      9900   0.19853618     0.0011293716   0.0011293716   0              0              600.74411      1281.0215     -79.679971      0             -49.017555      0              0              9.5556825      9.6971492      0.2            92.662879    
     10000   0.25962629     0.000741061    0.000741061    0              0              904.75019      1665.0941      144.298        0             -369.29891      0              0              9.5547174      9.7036313      0.2            92.715455    
     10100   0.21417287     0.00059643973  0.00059643973  0              0              551.99172      1261.3931     -157.53564      0             -208.5486       0              0              9.5537524      9.7003574      0.2            92.674813    
     10200   0.23666239     0.0007281807   0.0007281807   0              0              982.75075      1838.4827      126.88777      0              85.908959      0              0              9.5527874      9.6990102      0.2            92.652582    
     10300   0.23291187     0.00058154997  0.00058154997  0              0              88.773611      425.40903     -247.97348      0              183.18286      0              0              9.5518223      9.6973373      0.2            92.627242    
     10400   0.17839909     0.00066113049  0.00066113049  0              0              601.04652      978.69113      223.29388      0              539.34524      0              0              9.5508573      9.7043873      0.2            92.685218    
     10500   0.18757567     0.00066984151  0.00066984151  0              0              348.02528      944.39707     -248.45075      0              112.04804      0              0              9.5498922      9.6991955      0.2            92.626272    
     10600   0.17283527     0.00052207696  0.00052207696  0              0              555.82131      744.74601      366.75112      0              569.02769      0              0              9.5489272      9.6918048      0.2            92.546339    
     10700   0.18122951     0.00062980358  0.00062980358  0              0             -417.63492     -358.79116     -476.60251      0             -106.94183      0              0              9.5479622      9.7010186      0.2            92.624959    
     10800   0.2001726      0.00060840914  0.00060840914  0              0              493.44196      484.52865      502.23828      0              422.0679       0              0              9.5469971      9.7032351      0.2            92.636757    
     10900   0.1857033      0.00087504226  0.00087504226  0              0             -307.66087     -162.89943     -452.55379      0              613.59295      0              0              9.5460321      9.7026379      0.2            92.621693    
     11000   0.22774378     0.00077347878  0.00077347878  0              0              408.05301      308.66065      507.31678      0              520.38006      0              0              9.5450671      9.6918056      0.2            92.508934    
     11100   0.22814389     0.00070520739  0.00070520739  0              0             -539.08891     -556.30132     -522.04479      0              717.88172      0              0              9.544102       9.6998383      0.2            92.576246    
     11200   0.18231944     0.00077497035  0.00077497035  0              0              95.306247     -283.8187       474.35223      0              2.3272193      0              0              9.543137       9.6845405      0.2            92.420897    
     11300   0.23394116     0.0005613535   0.0005613535   0              0             -56.520549      320.32858     -433.48652      0              404.5152       0              0              9.542172       9.692429       0.2            92.486824    
     11400   0.19716129     0.00068032609  0.00068032609  0              0              782.02755      1371.9256      192.00348      0             -27.313007      0              0              9.5412069      9.6669871      0.2            92.234724    
     11500   0.24206798     0.00066257511  0.00066257511  0              0             -126.28774     -196.07751     -56.610626      0              242.00131      0              0              9.5402419      9.6904513      0.2            92.449249    
     11600   0.18965308     0.00054068876  0.00054068876  0              0              14.714835      195.16187     -165.85715      0              383.52966      0              0              9.5392768      9.7003665      0.2            92.534482    
     11700   0.2181894      0.00064678614  0.00064678614  0              0              59.11796      -255.87571      373.9566       0              19.620331      0              0              9.5383118      9.6841638      0.2            92.370574    
     11800   0.18158308     0.00094189534  0.00094189534  0              0             -96.973686      346.39979     -540.46747      0              221.07463      0              0              9.5373468      9.7052999      0.2            92.56281     
     11900   0.15826433     0.00064802928  0.00064802928  0              0              174.69712     -254.16627      603.41334      0              284.5458       0              0              9.5363817      9.7074529      0.2            92.573976    
     12000   0.22523341     0.00086609613  0.00086609613  0              0             -805.34473     -985.60729     -625.20888      0              107.79227      0              0              9.5354167      9.7088492      0.2            92.577923    
     12100   0.22759765     0.00074282132  0.00074282132  0              0              318.18949     -10.475123      646.71551      0             -353.67206      0              0              9.5344517      9.7005526      0.2            92.48945     
     12200   0.17265207     0.00068053521  0.00068053521  0              0             -194.07206      185.0938      -573.36345      0             -79.119236      0              0              9.5334866      9.709135       0.2            92.561909    
     12300   0.1457828      0.00038789125  0.00038789125  0              0              361.91687      137.00293      586.6921       0              252.84428      0              0              9.5325216      9.7016436      0.2            92.481127    
     12400   0.2400987      0.0007340472   0.0007340472   0              0             -564.15287     -530.92359     -597.50911      0             -219.19346      0              0              9.5315566      9.7096576      0.2            92.548151    
     12500   0.2539492      0.0007203015   0.0007203015   0              0              741.94648      994.49435      489.29094      0              668.47589      0              0              9.5305915      9.7148956      0.2            92.588702    
     12600   0.18769828     0.00086034042  0.00086034042  0              0              260.69764      882.06887     -360.76657      0              237.75264      0              0              9.5296265      9.722783       0.2            92.65449     
     12700   0.15614733     0.00076949822  0.00076949822  0              0              282.25044      288.60862      275.76557      0              140.32407      0              0              9.5286614      9.7211841      0.2            92.629872    
     12800   0.30200852     0.00068441468  0.00068441468  0              0             -79.590596      65.484409     -224.7468       0             -72.394349      0              0              9.5276964      9.7192915      0.2            92.602459    
     12900   0.21691678     0.00074068649  0.00074068649  0              0              367.99396      510.95651      224.90099      0              197.78811      0              0              9.5267314      9.700137       0.2            92.410599    
     13000   0.18080496     0.00093098678  0.00093098678  0              0             -328.38684     -561.11621     -95.806872      0             -641.35325      0              0              9.5257663      9.689869       0.2            92.303428    
     13100   0.18647248     0.00056814767  0.00056814767  0              0              457.25482      873.71233      40.675439      0              257.53974      0              0              9.5248013      9.7014063      0.2            92.403968    
     13200   0.22742339     0.00067769117  0.00067769117  0              0              301.41082      621.18448     -18.490761      0             -235.01833      0              0              9.5238363      9.7133848      0.2            92.508687    
     13300   0.17418259     0.00052322033  0.00052322033  0              0             -17.716406     -64.496576      28.941313      0              262.14939      0              0              9.5228712      9.7017327      0.2            92.388351    
     13400   0.27304596     0.00071528764  0.00071528764  0              0              283.5538       510.87818      56.093212      0             -186.23931      0              0              9.5219062      9.7022694      0.2            92.384099    
     13500   0.21220388     0.00051165658  0.00051165658  0              0             -102.56814     -165.67157     -39.572674      0             -256.59195      0              0              9.5209412      9.6976448      0.2            92.330706    
     13600   0.18163855     0.00067712444  0.00067712444  0              0             -170.18472     -446.9849       106.52012      0              216.04979      0              0              9.5199761      9.7092781      0.2            92.432096    
     13700   0.28720092     0.00060515561  0.00060515561  0              0             -276.64452     -433.4686      -119.93523      0              157.42407      0              0              9.5190111      9.701972       0.2            92.353179    
     13800   0.1520552      0.00077637056  0.00077637056  0              0             -482.93871     -1160.9812      194.98054      0             -291.56154      0              0              9.518046       9.6982588      0.2            92.308474    
     13900   0.18933512     0.00086350349  0.00086350349  0              0             -772.75012     -1372.1655     -173.45122      0              209.47045      0              0              9.517081       9.6946827      0.2            92.26508     
     14000   0.21062595     0.00062587702  0.00062587702  0              0              145.1668       63.302971      226.90632      0             -396.18175      0              0              9.516116       9.707581       0.2            92.378467    
     14100   0.22041528     0.00055893187  0.00055893187  0              0              62.629443      335.56663     -210.39285      0             -5.8491018      0              0              9.5151509      9.7289098      0.2            92.572046    
     14200   0.24026062     0.00046125643  0.00046125643  0              0              291.25593      477.35649      105.00763      0              91.109553      0              0              9.5141859      9.7161719      0.2            92.441466    
     14300   0.15287466     0.00061638783  0.00061638783  0              0             -242.87687     -487.77824      1.8679716      0             -205.32061      0              0              9.5132209      9.7174763      0.2            92.444498    
     14400   0.20931778     0.00046095214  0.00046095214  0              0              3.575779       119.27456     -112.27204      0             -99.139337      0              0              9.5122558      9.7171482      0.2            92.431999    
     14500   0.23472047     0.0006706188   0.0006706188   0              0             -433.45681     -1068.0021      200.98519      0             -183.97789      0              0              9.5112908      9.7085055      0.2            92.340419    
     14600   0.20614634     0.00071500155  0.00071500155  0              0             -123.64603      94.300684     -341.70176      0              206.21442      0              0              9.5103258      9.7199222      0.2            92.439627    
     14700   0.190786       0.00049213414  0.00049213414  0              0              128.89445     -132.91453      390.53945      0             -227.4389       0              0              9.5093607      9.7208124      0.2            92.438711    
     14800   0.18937189     0.00065995331  0.00065995331  0              0             -120.00775      137.03411     -377.1679       0              409.90453      0              0              9.5083957      9.7311516      0.2            92.52764     
     14900   0.24150871     0.00053461185  0.00053461185  0              0              494.64929      721.5751       267.58275      0              341.42664      0              0              9.5074307      9.7399916      0.2            92.602295    
     15000   0.17863175     0.00063381051  0.00063381051  0              0              124.82541      411.03791     -161.51063      0             -56.258288      0              0              9.5064656      9.729884       0.2            92.496808    
     15100   0.21491638     0.0006887311   0.0006887311   0              0              620.2737       1165.467       74.978426      0             -300.04608      0              0              9.5055006      9.7351977      0.2            92.537927    
     15200   0.16013537     0.0006958572   0.0006958572   0              0              339.62196      665.5891       13.51299       0              198.57548      0              0              9.5045355      9.7384611      0.2            92.55955     
     15300   0.2447195      0.00080035039  0.00080035039  0              0              441.84252      1017.8474     -134.29914      0              570.0417       0              0              9.5035705      9.7407973      0.2            92.572354    
     15400   0.20597694     0.00072397817  0.00072397817  0              0              50.645273      14.644843      86.513765      0             -117.6896       0              0              9.5026055      9.7458719      0.2            92.611176    
     15500   0.16949632     0.00070072965  0.00070072965  0              0             -131.13536     -185.58416     -76.807979      0             -169.85728      0              0              9.5016404      9.7404274      0.2            92.550039    
     15600   0.20373521     0.00056956381  0.00056956381  0              0              206.95011      398.10682      15.653222      0             -18.467984      0              0              9.5006754      9.7291001      0.2            92.433022    
     15700   0.20811678     0.00065872765  0.00065872765  0              0             -199.4494      -191.2242      -207.82017      0             -179.83971      0              0              9.4997104      9.7258076      0.2            92.392355    
     15800   0.19738775     0.00066050745  0.00066050745  0              0              149.65703      139.32489      159.84863      0             -123.55532      0              0              9.4987453      9.7205714      0.2            92.333232    
     15900   0.17325402     0.00073736687  0.00073736687  0              0              146.51838      345.80905     -52.875239      0             -246.88796      0              0              9.4977803      9.7199154      0.2            92.317621    
     16000   0.20495627     0.00065228321  0.00065228321  0              0              297.92624      502.55405      93.186493      0              431.92365      0              0              9.4968153      9.7327577      0.2            92.430202    
     16100   0.2257156      0.00058322611  0.00058322611  0              0              161.76312      518.72637     -195.3254       0              121.86881      0              0              9.4958502      9.7315697      0.2            92.409528    
     16200   0.2266256      0.00057265736  0.00057265736  0              0              467.00785      814.21555      119.68651      0              54.930779      0              0              9.4948852      9.7347602      0.2            92.43043     
     16300   0.17021971     0.00062275084  0.00062275084  0              0              276.7684       797.23446     -243.79481      0              173.2808       0              0              9.4939201      9.7358495      0.2            92.431377    
     16400   0.21654206     0.00077607489  0.00077607489  0              0              866.22566      1471.1661      261.14629      0              578.99276      0              0              9.4929551      9.7330609      0.2            92.39551     
     16500   0.22420415     0.00057690091  0.00057690091  0              0              404.93876      958.98051     -149.21112      0             -258.35879      0              0              9.4919901      9.7267298      0.2            92.326023    
     16600   0.18817196     0.00063351628  0.00063351628  0              0              68.706398      37.539863      99.73697       0              30.233898      0              0              9.491025       9.7398056      0.2            92.440739    
     16700   0.18400608     0.0005964071   0.0005964071   0              0              684.52809      1496.1589     -127.24391      0              112.53906      0              0              9.49006        9.7379453      0.2            92.413685    
     16800   0.17948752     0.00056642912  0.00056642912  0              0              481.43216      876.03759      86.71346       0             -261.7331       0              0              9.489095       9.7293007      0.2            92.322258    
     16900   0.19376784     0.00053985679  0.00053985679  0              0             -273.19858     -479.89688     -66.595794      0             -381.40975      0              0              9.4881299      9.7238088      0.2            92.260761    
     17000   0.15200714     0.00058867367  0.00058867367  0              0             -257.36636     -493.96455     -20.881498      0             -492.50307      0              0              9.4871649      9.7236192      0.2            92.249579    
     17100   0.2136872      0.00045090296  0.00045090296  0              0              117.8073       167.81319      67.676382      0             -177.47613      0              0              9.4861999      9.7375149      0.2            92.372012    
     17200   0.18585318     0.00067784754  0.00067784754  0              0             -16.056533      62.72819      -94.955892      0             -222.82103      0              0              9.4852348      9.7439078      0.2            92.423253    
     17300   0.22115733     0.00054274913  0.00054274913  0              0              124.8074       4.2336487      245.24517      0              155.5349       0              0              9.4842698      9.7452419      0.2            92.426504    
     17400   0.19895627     0.00060285816  0.00060285816  0              0             -460.56642     -572.80409     -348.45382      0              243.93557      0              0              9.4833047      9.7395388      0.2            92.363014    
     17500   0.19034068     0.00054177501  0.00054177501  0              0              182.9918       4.4101636      361.43369      0              27.821461      0              0              9.4823397      9.7395318      0.2            92.353549    
     17600   0.2286871      0.00056023232  0.00056023232  0              0             -252.35713     -82.681256     -422.15171      0              504.47358      0              0              9.4813747      9.7532262      0.2            92.473992    
     17700   0.16574562     0.00075143612  0.00075143612  0              0             -53.592372     -555.73226      448.41145      0              992.38599      0              0              9.4804096      9.7499782      0.2            92.433788    
     17800   0.21798052     0.0005881653   0.0005881653   0              0             -618.64199     -875.16451     -362.19533      0             -310.9429       0              0              9.4794446      9.7462473      0.2            92.389012    
     17900   0.20439849     0.00077836209  0.00077836209  0              0              755.55443      1196.3961      314.58176      0              381.04865      0              0              9.4784796      9.7585749      0.2            92.496453    
     18000   0.23453718     0.00076545345  0.00076545345  0              0              118.03261      384.17205     -148.24018      0             -332.81945      0              0              9.4775145      9.7562735      0.2            92.465224    
     18100   0.21160059     0.00063782578  0.00063782578  0              0             -396.94046     -800.33798      6.3414887      0             -735.47332      0              0              9.4765495      9.7503262      0.2            92.399448    
     18200   0.21203535     0.00068933303  0.00068933303  0              0             -53.055721     -392.64159      286.39093      0             -157.2109       0              0              9.4755845      9.7457213      0.2            92.346406    
     18300   0.200388       0.00066317109  0.00066317109  0              0             -509.78759     -547.37984     -472.30676      0              309.5122       0              0              9.4746194      9.7662123      0.2            92.531145    
     18400   0.21097377     0.00057289061  0.00057289061  0              0              183.58504     -218.57571      585.62499      0             -149.36871      0              0              9.4736544      9.7472814      0.2            92.342375    
     18500   0.20944077     0.00076677907  0.00076677907  0              0             -676.99539     -626.48052     -727.65911      0              114.78979      0              0              9.4726893      9.756405       0.2            92.419394    
     18600   0.2178077      0.00081066863  0.00081066863  0              0              593.80207      441.06714      746.41511      0              399.88282      0              0              9.4717243      9.7476359      0.2            92.32692     
     18700   0.25634358     0.00085089378  0.00085089378  0              0             -326.91076      84.235563     -738.15529      0              234.02521      0              0              9.4707593      9.7786232      0.2            92.610987    
     18800   0.21122409     0.00069448197  0.00069448197  0              0              770.2923       801.53431      738.92843      0             -375.39996      0              0              9.4697942      9.7420865      0.2            92.255554    
     18900   0.21315126     0.00064271042  0.00064271042  0              0             -262.49328      124.59468     -649.70027      0             -103.96755      0              0              9.4688292      9.7586635      0.2            92.403118    
     19000   0.17754733     0.00053961957  0.00053961957  0              0              248.23594     -16.989945      513.34429      0             -317.61184      0              0              9.4678642      9.7449033      0.2            92.263421    
     19100   0.19175387     0.0007026669   0.0007026669   0              0             -156.45537      2.7541161     -315.78809      0             -480.32036      0              0              9.4668991      9.7493094      0.2            92.295728    
     19200   0.20384748     0.00067291173  0.00067291173  0              0              476.09807      811.70456      140.36203      0              156.24136      0              0              9.4659341      9.7604128      0.2            92.391424    
     19300   0.20122409     0.0006615483   0.0006615483   0              0              300.02619      436.01039      163.93147      0              11.987348      0              0              9.4649691      9.7508051      0.2            92.291068    
     19400   0.21263901     0.0006705384   0.0006705384   0              0             -279.1926      -155.40651     -403.12639      0             -60.829436      0              0              9.464004       9.7492193      0.2            92.266651    
     19500   0.22791184     0.00057184011  0.00057184011  0              0             -60.917323     -631.17596      509.2169       0              490.11529      0              0              9.463039       9.7480448      0.2            92.246128    
     19600   0.1523762      0.00067066572  0.00067066572  0              0             -621.69539     -669.35327     -574.15265      0             -105.76024      0              0              9.4620739      9.7614645      0.2            92.363699    
     19700   0.20585231     0.00088783919  0.00088783919  0              0              524.80799      329.55734      719.925        0              391.13064      0              0              9.4611089      9.7480625      0.2            92.227481    
     19800   0.1996968      0.00071720172  0.00071720172  0              0             -427.1468      -73.71527      -780.69767      0             -168.9305       0              0              9.4601439      9.76705        0.2            92.397698    
     19900   0.23884888     0.00085039334  0.00085039334  0              0              706.31442      544.82003      867.69274      0             -104.31071      0              0              9.4591788      9.7612108      0.2            92.333039    
     20000   0.17720402     0.0007535487   0.0007535487   0              0             -147.68991      456.74894     -752.28875      0             -571.4508       0              0              9.4582138      9.7682712      0.2            92.390397    
     20100   0.24584305     0.00080178062  0.00080178062  0              0              777.88834      886.08733      669.57064      0             -44.278852      0              0              9.4572488      9.7704619      0.2            92.401689    
     20200   0.24023222     0.00070251015  0.00070251015  0              0             -411.26998     -195.89777     -626.78984      0              161.26216      0              0              9.4562837      9.7834839      0.2            92.515399    
     20300   0.16256255     0.0007023235   0.0007023235   0              0              500.16386      548.96877      451.23475      0              440.08839      0              0              9.4553187      9.7623253      0.2            92.305897    
     20400   0.22020999     0.0005523538   0.0005523538   0              0              92.017266      481.30572     -297.40444      0             -156.70133      0              0              9.4543537      9.7639568      0.2            92.311901    
     20500   0.19195622     0.00083308454  0.00083308454  0              0              255.33276      394.59497      115.9702       0             -657.19122      0              0              9.4533886      9.7677073      0.2            92.337933    
     20600   0.21444018     0.00064124716  0.00064124716  0              0              261.5048       547.97539     -25.077962      0             -201.15351      0              0              9.4524236      9.7643107      0.2            92.296401    
     20700   0.23706209     0.00061976296  0.00061976296  0              0              527.63421      1053.7998      1.3209524      0              39.372136      0              0              9.4514585      9.751963       0.2            92.170274    
     20800   0.15333605     0.00067396749  0.00067396749  0              0             -110.16435     -307.9477       87.508785      0             -416.86684      0              0              9.4504935      9.7383305      0.2            92.03203     
     20900   0.23980725     0.00063544448  0.00063544448  0              0             -26.818119      121.79642     -175.55447      0              115.14988      0              0              9.4495285      9.7481402      0.2            92.115328    
     21000   0.19338362     0.00075780444  0.00075780444  0              0             -155.41616     -508.23468      197.27701      0             -326.92563      0              0              9.4485634      9.7446062      0.2            92.07253     
     21100   0.22082021     0.00071067843  0.00071067843  0              0             -92.48127       105.4176      -290.524        0             -514.78467      0              0              9.4475984      9.7575394      0.2            92.185313    
     21200   0.19626289     0.0005530727   0.0005530727   0              0              116.87864     -275.73101      509.34817      0             -392.56774      0              0              9.4466334      9.7537882      0.2            92.140461    
     21300   0.20230372     0.00044523206  0.00044523206  0              0             -378.718       -177.2682      -580.291        0             -187.59266      0              0              9.4456683      9.7583995      0.2            92.174605    
     21400   0.2023636      0.00070269866  0.00070269866  0              0              57.886737     -477.9549       593.62446      0              461.81388      0              0              9.4447033      9.753371       0.2            92.117695    
     21500   0.19186188     0.00056462459  0.00056462459  0              0             -755.05704     -910.28144     -599.99369      0              240.67482      0              0              9.4437383      9.7506758      0.2            92.08283     
     21600   0.18431477     0.00066573149  0.00066573149  0              0              643.94258      674.07149      613.67145      0             -470.73918      0              0              9.4427732      9.7298255      0.2            91.876536    
     21700   0.18089261     0.00067898033  0.00067898033  0              0             -317.08725     -17.231403     -617.09212      0              262.07482      0              0              9.4418082      9.7326494      0.2            91.893809    
     21800   0.16997667     0.00081685662  0.00081685662  0              0              450.03487      309.54492      590.37287      0             -408.98811      0              0              9.4408432      9.7241331      0.2            91.804016    
     21900   0.19564306     0.00072858706  0.00072858706  0              0             -340.20818     -151.58864     -528.94203      0             -160.13164      0              0              9.4398781      9.7338803      0.2            91.886644    
     22000   0.23993207     0.0006274487   0.0006274487   0              0              131.19077     -150.50208      412.77699      0             -46.894438      0              0              9.4389131      9.7312605      0.2            91.852522    
     22100   0.17558728     0.00060412607  0.00060412607  0              0             -216.08235     -65.151942     -367.1483       0              507.50789      0              0              9.437948       9.7246802      0.2            91.781027    
     22200   0.18464791     0.00063660679  0.00063660679  0              0              582.64357      813.40227      351.76474      0              160.6683       0              0              9.436983       9.7254679      0.2            91.779075    
     22300   0.16851957     0.00050415896  0.00050415896  0              0              237.5587       760.70805     -285.73949      0             -476.1399       0              0              9.436018       9.7343024      0.2            91.853052    
     22400   0.15013504     0.00069143409  0.00069143409  0              0             -128.19061     -396.80532      140.27638      0             -95.482614      0              0              9.4350529      9.7231564      0.2            91.738496    
     22500   0.23087858     0.00074598173  0.00074598173  0              0              206.26367      373.57712      38.826106      0              126.3796       0              0              9.4340879      9.7404535      0.2            91.892294    
     22600   0.20769036     0.00079393338  0.00079393338  0              0             -289.29607     -455.69788     -123.01065      0             -910.81474      0              0              9.4331229      9.7539044      0.2            92.009779    
     22700   0.22923934     0.00078123861  0.00078123861  0              0              401.43442      679.90699      122.84709      0              322.06398      0              0              9.4321578      9.7585019      0.2            92.04373     
     22800   0.29196564     0.00059319145  0.00059319145  0              0             -29.700181      72.419167     -131.9085       0              275.34804      0              0              9.4311928      9.7720837      0.2            92.162405    
     22900   0.18981686     0.00066214779  0.00066214779  0              0              465.0356       761.83554      168.12475      0             -33.547477      0              0              9.4302278      9.7787427      0.2            92.21577     
     23000   0.21156259     0.00066740624  0.00066740624  0              0             -382.00957     -474.19489     -289.96605      0             -200.89786      0              0              9.4292627      9.7675802      0.2            92.10108     
     23100   0.25242535     0.00072834816  0.00072834816  0              0              191.72863     -38.043444      421.38201      0             -134.79381      0              0              9.4282977      9.7637457      0.2            92.055501    
     23200   0.17008092     0.00069226048  0.00069226048  0              0             -281.28086     -97.83365      -464.86904      0             -177.26635      0              0              9.4273326      9.7798184      0.2            92.197601    
     23300   0.17253028     0.00080695064  0.00080695064  0              0             -35.98349      -462.41319      390.31726      0              385.63363      0              0              9.4263676      9.7602441      0.2            92.003649    
     23400   0.23430744     0.00069211025  0.00069211025  0              0             -259.53282     -176.38768     -342.75366      0              192.40818      0              0              9.4254026      9.7637944      0.2            92.027693    
     23500   0.22263724     0.00073177914  0.00073177914  0              0              33.215117     -403.78485      470.06615      0             -496.13221      0              0              9.4244375      9.7711464      0.2            92.087559    
     23600   0.19239776     0.00069412199  0.00069412199  0              0             -440.27925     -392.41079     -488.27982      0             -238.03         0              0              9.4234725      9.7701722      0.2            92.068949    
     23700   0.23170145     0.00079163677  0.00079163677  0              0              449.57713      401.4633       497.55481      0             -410.58924      0              0              9.4225075      9.7600518      0.2            91.964161    
     23800   0.23147179     0.00068427209  0.00068427209  0              0             -422.77238     -441.34773     -404.31718      0              142.10291      0              0              9.4215424      9.7750099      0.2            92.09567     
     23900   0.19100035     0.00081341257  0.00081341257  0              0             -88.392702     -557.24719      380.3252       0              287.03838      0              0              9.4205774      9.7744013      0.2            92.080504    
     24000   0.18784888     0.00073270701  0.00073270701  0              0             -385.34653     -413.59587     -357.24882      0              386.40473      0              0              9.4196124      9.7826072      0.2            92.148368    
     24100   0.1546816      0.00068051373  0.00068051373  0              0             -100.68726     -563.29446      361.81092      0              17.63057       0              0              9.4186473      9.7643033      0.2            91.966529    
     24200   0.2044714      0.00075106578  0.00075106578  0              0             -175.64979     -77.335635     -274.0959       0             -107.90893      0              0              9.4176823      9.7780191      0.2            92.086277    
     24300   0.21402321     0.00071645866  0.00071645866  0              0              190.07798      155.5254       224.53155      0              307.97371      0              0              9.4167172      9.7695685      0.2            91.997264    
     24400   0.20335036     0.00052873612  0.00052873612  0              0             -111.70654     -72.774123     -150.7917       0              58.650462      0              0              9.4157522      9.7605485      0.2            91.902906    
     24500   0.17182165     0.00082021744  0.00082021744  0              0              52.058813     -21.605508      125.62842      0              486.36502      0              0              9.4147872      9.7545021      0.2            91.836562    
     24600   0.18100818     0.0005752827   0.0005752827   0              0             -80.651849     -26.634248     -134.77965      0              7.2626829      0              0              9.4138221      9.7770711      0.2            92.039608    
     24700   0.23488639     0.00077794454  0.00077794454  0              0             -249.73638     -518.0409       18.44437       0             -162.51123      0              0              9.4128571      9.777699       0.2            92.036083    
     24800   0.21328215     0.00076824571  0.00076824571  0              0             -426.2921      -737.46922     -115.2412       0              63.709405      0              0              9.4118921      9.7810747      0.2            92.058419    
     24900   0.20098217     0.000813817    0.000813817    0              0             -612.63072     -1277.5933      52.209599      0             -74.850448      0              0              9.410927       9.767027       0.2            91.916779    
     25000   0.2197807      0.00072579307  0.00072579307  0              0             -220.73528     -425.70153     -15.880213      0             -218.24299      0              0              9.409962       9.7607638      0.2            91.848416    
     25100   0.26363728     0.00061100695  0.00061100695  0              0             -296.54464     -624.15388      30.952758      0              252.56344      0              0              9.408997       9.7709997      0.2            91.935306    
     25200   0.20079085     0.00095332744  0.00095332744  0              0             -565.60102     -1111.4888     -19.837187      0             -536.5973       0              0              9.4080319      9.7631327      0.2            91.851865    
     25300   0.27594868     0.00075352286  0.00075352286  0              0             -597.1933      -1041.1063     -153.4271       0              191.13163      0              0              9.4070669      9.7563359      0.2            91.778504    
     25400   0.27549669     0.00068403674  0.00068403674  0              0             -453.00246     -1166.3253      260.1727       0              611.55632      0              0              9.4061018      9.7491972      0.2            91.701941    
     25500   0.17089813     0.00095070889  0.00095070889  0              0             -955.20774     -1640.2029     -270.31901      0              82.876638      0              0              9.4051368      9.7403497      0.2            91.609321    
     25600   0.20370396     0.00059528455  0.00059528455  0              0              57.885215     -226.51297      342.17005      0              244.56266      0              0              9.4041718      9.7462902      0.2            91.655787    
     25700   0.1778291      0.00078770092  0.00078770092  0              0             -30.84006       336.82895     -398.59502      0             -436.72996      0              0              9.4032067      9.7614583      0.2            91.789011    
     25800   0.15848237     0.00071571602  0.00071571602  0              0              549.72347      668.12989      431.19858      0             -89.217743      0              0              9.4022417      9.7576724      0.2            91.743994    
     25900   0.21781873     0.00060498748  0.00060498748  0              0             -175.59481      111.691       -462.98743      0             -297.34531      0              0              9.4012767      9.7659888      0.2            91.812763    
     26000   0.24497916     0.00063877441  0.00063877441  0              0              674.54738      949.36283      399.59453      0             -170.25767      0              0              9.4003116      9.7544739      0.2            91.695094    
     26100   0.19343362     0.00061298828  0.00061298828  0              0              205.67678      812.34439     -401.14313      0             -189.42739      0              0              9.3993466      9.7694714      0.2            91.826648    
     26200   0.19772295     0.00057759065  0.00057759065  0              0              636.11772      830.44873      441.66766      0             -180.13576      0              0              9.3983816      9.761941       0.2            91.746446    
     26300   0.21114098     0.00063737164  0.00063737164  0              0              81.004438      616.98664     -455.11069      0             -94.055902      0              0              9.3974165      9.769183       0.2            91.805082    
     26400   0.17720935     0.00068484224  0.00068484224  0              0              834.04993      1249.7231      418.23349      0              75.524831      0              0              9.3964515      9.7499639      0.2            91.615063    
     26500   0.1958493      0.00062507628  0.00062507628  0              0              179.40706      802.92283     -444.27344      0             -375.079        0              0              9.3954864      9.7548949      0.2            91.651983    
     26600   0.2140423      0.00065629801  0.00065629801  0              0              605.05884      744.67876      465.30822      0             -75.795668      0              0              9.3945214      9.7446088      0.2            91.545936    
     26700   0.14894921     0.00063451941  0.00063451941  0              0             -121.34089      86.601699     -329.42654      0              65.930008      0              0              9.3935564      9.7537768      0.2            91.622652    
     26800   0.22849435     0.00046736176  0.00046736176  0              0              390.13611      474.95987      305.1943       0             -369.31434      0              0              9.3925913      9.7483338      0.2            91.562115    
     26900   0.21515858     0.00058085144  0.00058085144  0              0             -525.91421     -680.25967     -371.69661      0             -211.38498      0              0              9.3916263      9.7519975      0.2            91.587117    
     27000   0.25416026     0.00067202575  0.00067202575  0              0              553.87059      885.88692      221.72672      0             -337.94856      0              0              9.3906613      9.7352463      0.2            91.4204      
     27100   0.23613975     0.00060872167  0.00060872167  0              0             -175.06959     -112.39129     -237.90458      0              150.44648      0              0              9.3896962      9.747386       0.2            91.524994    
     27200   0.14881872     0.00064670744  0.00064670744  0              0              107.36077      9.7978987      204.80384      0              113.95394      0              0              9.3887312      9.7461398      0.2            91.503887    
     27300   0.20147423     0.00059355594  0.00059355594  0              0             -256.28885     -243.98427     -268.72649      0             -241.2399       0              0              9.3877662      9.7496392      0.2            91.527333    
     27400   0.18972478     0.00057709488  0.00057709488  0              0              69.555888     -52.710796      191.67824      0             -251.08945      0              0              9.3868011      9.7565275      0.2            91.582583    
     27500   0.16945639     0.00059007688  0.00059007688  0              0             -564.3658      -1018.5281     -110.34262      0             -74.570655      0              0              9.3858361      9.775918       0.2            91.755164    
     27600   0.24307616     0.00053405265  0.00053405265  0              0             -308.28525     -707.9677       91.272903      0              43.685346      0              0              9.3848711      9.7676943      0.2            91.668552    
     27700   0.20229716     0.00084738671  0.00084738671  0              0             -795.18759     -1488.2457     -102.25045      0             -146.32144      0              0              9.383906       9.7639265      0.2            91.623768    
     27800   0.19959515     0.00074936742  0.00074936742  0              0             -360.53757     -765.67535      44.466845      0             -72.212686      0              0              9.382941       9.7690718      0.2            91.662624    
[...]
     42800   0.18527995     0.00053267218  0.00053267218  0              0              353.82774      501.48681      206.0347       0             -167.53615      0              0              9.2381855      9.8060944      0.2            90.590519    
     42900   0.19961013     0.00099135627  0.00099135627  0              0             -183.59905     -261.78544     -105.53456      0             -281.7091       0              0              9.2372205      9.8012196      0.2            90.536027    
     43000   0.2531467      0.0006248908   0.0006248908   0              0              395.94459      666.96785      124.8068       0             -170.72387      0              0              9.2362555      9.7951312      0.2            90.470334    
     43100   0.24632116     0.00062410155  0.00062410155  0              0              164.25437      397.27289     -68.862229      0             -810.16815      0              0              9.2352904      9.7967996      0.2            90.47629     
     43200   0.20601006     0.00080243346  0.00080243346  0              0              463.50605      766.67171      160.22559      0             -171.53627      0              0              9.2343254      9.816433       0.2            90.648137    
     43300   0.23292777     0.00087424824  0.00087424824  0              0              229.36048      565.97095     -107.36966      0             -13.896173      0              0              9.2333604      9.8178783      0.2            90.652008    
     43400   0.17466786     0.00066042256  0.00066042256  0              0              184.86692      419.66154     -50.026581      0             -192.23889      0              0              9.2323953      9.8123521      0.2            90.591514    
     43500   0.19778801     0.00052099567  0.00052099567  0              0             -46.954175     -194.28672      100.2447       0             -22.385382      0              0              9.2314303      9.7984332      0.2            90.453553    
     43600   0.20726969     0.00070986714  0.00070986714  0              0              250.37406      621.60372     -120.97269      0             -363.32749      0              0              9.2304653      9.8011746      0.2            90.469401    
     43700   0.24243817     0.00064796314  0.00064796314  0              0              618.83805      1056.1144      181.42016      0             -76.749934      0              0              9.2295002      9.7965459      0.2            90.417223    
     43800   0.19136472     0.00066436314  0.00066436314  0              0              16.74994       137.02203     -103.63589      0             -55.252604      0              0              9.2285352      9.7955249      0.2            90.398346    
     43900   0.22728183     0.00075091302  0.00075091302  0              0              310.73713      429.16577      192.17594      0             -398.86688      0              0              9.2275701      9.7823406      0.2            90.267234    
     44000   0.24365528     0.00095965354  0.00095965354  0              0             -192.43485     -184.44576     -200.57724      0              70.489688      0              0              9.2266051      9.791598       0.2            90.343208    
     44100   0.21659048     0.00060224672  0.00060224672  0              0              113.99701      39.719986      188.16125      0             -271.49285      0              0              9.2256401      9.7945435      0.2            90.360933    
     44200   0.18276699     0.00068302732  0.00068302732  0              0             -28.586442      256.2698      -313.58909      0             -139.98993      0              0              9.224675       9.7959421      0.2            90.364382    
     44300   0.1889326      0.00070705645  0.00070705645  0              0              591.01753      756.38762      425.51765      0             -97.83433       0              0              9.22371        9.8017956      0.2            90.40892     
     44400   0.14810889     0.00080139307  0.00080139307  0              0             -681.20389     -870.71165     -491.85469      0             -202.99212      0              0              9.222745       9.8105454      0.2            90.480158    
     44500   0.16903143     0.00057584322  0.00057584322  0              0              91.129073     -303.19853      485.33857      0              85.534786      0              0              9.2217799      9.8047102      0.2            90.41688     
     44600   0.24520672     0.00075744562  0.00075744562  0              0             -298.1202      -54.702282     -541.65994      0              13.661659      0              0              9.2208149      9.7992478      0.2            90.35705     
     44700   0.25817568     0.00091188799  0.00091188799  0              0              399.19478      293.31339      504.9508       0             -277.61277      0              0              9.2198499      9.7801678      0.2            90.171679    
     44800   0.21446516     0.00075604889  0.00075604889  0              0             -641.61495     -756.25111     -527.11033      0             -92.534251      0              0              9.2188848      9.7932703      0.2            90.283031    
     44900   0.17960271     0.00090201335  0.00090201335  0              0              113.17492     -271.63881      497.85099      0             -12.975274      0              0              9.2179198      9.772201       0.2            90.079365    
     45000   0.25186561     0.00081366157  0.00081366157  0              0              88.2655        621.56317     -445.12677      0             -806.91842      0              0              9.2169547      9.7784903      0.2            90.127903    
     45100   0.16755651     0.00069124533  0.00069124533  0              0              842.03821      1197.9132      486.02573      0             -662.39063      0              0              9.2159897      9.7794508      0.2            90.127318    
     45200   0.17259462     0.00087405671  0.00087405671  0              0              180.64013      812.63941     -451.50092      0             -545.09253      0              0              9.2150247      9.8023489      0.2            90.328887    
     45300   0.18645848     0.00063086683  0.00063086683  0              0              467.08646      369.34902      564.67563      0              81.758649      0              0              9.2140596      9.8111218      0.2            90.400261    
     45400   0.2034286      0.00075492623  0.00075492623  0              0             -65.013129      568.23513     -698.40129      0              54.924919      0              0              9.2130946      9.8309401      0.2            90.573382    
     45500   0.17373249     0.00081307221  0.00081307221  0              0              1050.9074      1474.4093      627.29492      0             -668.56678      0              0              9.2121296      9.8086919      0.2            90.358941    
     45600   0.19728057     0.00070783414  0.00070783414  0              0             -413.87578     -83.015882     -744.87063      0              129.05284      0              0              9.2111645      9.8167494      0.2            90.423693    
     45700   0.14756721     0.00085597249  0.00085597249  0              0              749.67925      824.85555      674.37157      0              20.230284      0              0              9.2101995      9.7930524      0.2            90.195966    
     45800   0.23796162     0.00058591192  0.00058591192  0              0             -228.5368       85.03228      -542.20469      0              42.044026      0              0              9.2092345      9.8093505      0.2            90.336609    
     45900   0.14453532     0.00060030471  0.00060030471  0              0              25.560732     -419.77784      470.78283      0             -154.1396       0              0              9.2082694      9.8068945      0.2            90.304527    
     46000   0.20128574     0.0006935551   0.0006935551   0              0             -16.798322      399.48936     -433.20378      0             -514.50882      0              0              9.2073044      9.8092061      0.2            90.316346    
     46100   0.26241634     0.0005627563   0.0005627563   0              0              489.78374      521.09789      458.33821      0              7.6920622      0              0              9.2063394      9.8011964      0.2            90.23314     
     46200   0.18272351     0.00052741665  0.00052741665  0              0             -208.98945     -36.665815     -381.42052      0             -88.937938      0              0              9.2053743      9.8069121      0.2            90.276297    
     46300   0.13312821     0.00077974636  0.00077974636  0              0              493.03509      518.49505      467.44543      0             -46.247605      0              0              9.2044093      9.8165083      0.2            90.35516     
     46400   0.19048704     0.00077265639  0.00077265639  0              0             -411.34641     -341.98449     -480.81557      0             -1073.5608      0              0              9.2034442      9.814217       0.2            90.324599    
     46500   0.22860251     0.00071662803  0.00071662803  0              0              188.8528      -205.9195       583.47413      0             -34.727244      0              0              9.2024792      9.8163009      0.2            90.334305    
     46600   0.20882345     0.00081118103  0.00081118103  0              0              83.135318      713.94539     -547.81399      0             -440.79492      0              0              9.2015142      9.8239876      0.2            90.395562    
     46700   0.21002959     0.00080997064  0.00080997064  0              0              580.42111      577.81524      582.86403      0             -289.79973      0              0              9.2005491      9.8037753      0.2            90.200116    
     46800   0.2181831      0.00057270294  0.00057270294  0              0             -598.71534     -706.82507     -490.75247      0             -566.33912      0              0              9.1995841      9.8212456      0.2            90.351375    
     46900   0.20631387     0.00074559751  0.00074559751  0              0              258.36394      82.833277      433.78123      0             -111.28987      0              0              9.1986191      9.828319       0.2            90.406962    
     47000   0.20152975     0.00058422464  0.00058422464  0              0             -116.24113      123.96091     -356.56887      0             -151.48883      0              0              9.197654       9.8315951      0.2            90.42761     
     47100   0.18519227     0.0006252466   0.0006252466   0              0              693.52438      878.42767      508.48906      0             -3.0605525      0              0              9.196689       9.8180746      0.2            90.293779    
     47200   0.20568141     0.00070656149  0.00070656149  0              0             -374.75259     -202.92917     -546.70748      0              506.53144      0              0              9.195724       9.8327657      0.2            90.419399    
     47300   0.25302766     0.00067586313  0.00067586313  0              0              1011.5625      1471.9627      551.02966      0              20.972056      0              0              9.1947589      9.8069444      0.2            90.172489    
     47400   0.16167006     0.00084381431  0.00084381431  0              0             -169.6661       109.32382     -448.75321      0             -43.295963      0              0              9.1937939      9.815177       0.2            90.238714    
     47500   0.22081102     0.00071782912  0.00071782912  0              0              610.67511      777.4461       443.78958      0             -344.2462       0              0              9.1928288      9.8173518      0.2            90.249235    
     47600   0.23062362     0.00061759536  0.00061759536  0              0              268.08069      923.46853     -387.4501       0             -113.37479      0              0              9.1918638      9.8212108      0.2            90.275232    
     47700   0.23647586     0.00068869393  0.00068869393  0              0              909.09206      1388.3522      429.73545      0              182.7673       0              0              9.1908988      9.8216343      0.2            90.269646    
     47800   0.22468732     0.00079967865  0.00079967865  0              0              51.738719      489.07925     -385.73018      0              369.7123       0              0              9.1899337      9.8276212      0.2            90.315188    
     47900   0.19369649     0.00063493274  0.00063493274  0              0              345.61483      418.60778      272.4831       0              296.77873      0              0              9.1889687      9.8149771      0.2            90.189517    
     48000   0.20557292     0.00087246325  0.00087246325  0              0              4.7984524      231.60708     -222.11089      0              144.43226      0              0              9.1880037      9.8136093      0.2            90.167478    
     48100   0.21747498     0.00063520719  0.00063520719  0              0              199.9388       238.30272      161.43846      0             -14.268429      0              0              9.1870386      9.8086123      0.2            90.1121      
     48200   0.21011861     0.00065112759  0.00065112759  0              0              555.62723      1191.6523     -80.524322      0              300.80116      0              0              9.1860736      9.8191229      0.2            90.199186    
     48300   0.22322769     0.00053638005  0.00053638005  0              0              724.79012      1461.5153     -12.060354      0              288.92889      0              0              9.1851086      9.8286664      0.2            90.277367    
     48400   0.19492965     0.00075918472  0.00075918472  0              0              204.32856      352.54057      55.986136      0             -321.02031      0              0              9.1841435      9.8265446      0.2            90.248396    
     48500   0.18582416     0.00083007081  0.00083007081  0              0              182.38092      490.81517     -126.1909       0              179.09501      0              0              9.1831785      9.8344672      0.2            90.311667    
     48600   0.2182688      0.00049240396  0.00049240396  0              0              209.91456      160.48074      259.21802      0              44.287487      0              0              9.1822134      9.8333937      0.2            90.29232     
     48700   0.17814738     0.00063357265  0.00063357265  0              0              18.630961      358.47897     -321.32566      0              302.96934      0              0              9.1812484      9.8472427      0.2            90.409981    
     48800   0.20046653     0.00040311327  0.00040311327  0              0              630.38142      984.9106       275.7174       0              48.14384       0              0              9.1802834      9.8369075      0.2            90.305598    
     48900   0.19413686     0.0008022646   0.0008022646   0              0              194.77312      703.10149     -313.67568      0              329.26057      0              0              9.1793183      9.8300549      0.2            90.233203    
     49000   0.19754802     0.00070125305  0.00070125305  0              0              649.00639      929.67005      368.24123      0              234.08982      0              0              9.1783533      9.8232211      0.2            90.160994    
     49100   0.20008178     0.00064379687  0.00064379687  0              0             -426.0026      -440.74827     -411.37427      0             -113.69115      0              0              9.1773883      9.833036       0.2            90.241589    
     49200   0.19538137     0.00080699483  0.00080699483  0              0              603.17432      754.32558      451.90881      0             -6.7630039      0              0              9.1764232      9.825374       0.2            90.16179     
     49300   0.21957327     0.00066998602  0.00066998602  0              0              7.1927707      474.9783      -460.73244      0              412.02489      0              0              9.1754582      9.8386628      0.2            90.27424     
     49400   0.22251479     0.00073841343  0.00073841343  0              0              600.30833      623.87582      576.61368      0              796.77545      0              0              9.1744932      9.8409884      0.2            90.286081    
     49500   0.20983591     0.00060227047  0.00060227047  0              0              9.2017637      529.29671     -511.01297      0              321.50572      0              0              9.1735281      9.8398408      0.2            90.266056    
     49600   0.23064139     0.00063551203  0.00063551203  0              0              194.94426     -70.873916      460.64128      0              318.39493      0              0              9.1725631      9.8368846      0.2            90.229444    
     49700   0.25425566     0.0008221984   0.0008221984   0              0             -677.02526     -869.10858     -485.05771      0              97.028214      0              0              9.171598       9.8400431      0.2            90.24892     
     49800   0.18839001     0.00061587431  0.00061587431  0              0              614.32192      743.26073      485.29314      0             -176.76927      0              0              9.170633       9.8364864      0.2            90.206807    
     49900   0.2195388      0.00072929722  0.00072929722  0              0             -544.15272     -554.63106     -533.78723      0              484.04366      0              0              9.169668       9.8426509      0.2            90.253841    
     50000   0.21741326     0.00065453568  0.00065453568  0              0              439.71215      339.65766      539.63625      0              237.94102      0              0              9.1687029      9.8255262      0.2            90.087331    
     50089   0.23943457     0.00053089824  0.00053089824  0              0              312.93695      320.52787      305.22852      0              21.676216      0              0              9.1678441      9.8176827      0.2            90.006984    
Loop time of 0.831126 on 1 procs for 50000 steps with 42 atoms

Performance: 51977.710 ns/day, 0.000 hours/ns, 60159.386 timesteps/s
99.5% CPU use with 1 MPI tasks x 1 OpenMP threads

MPI task timing breakdown:
Section |  min time  |  avg time  |  max time  |%varavg| %total
---------------------------------------------------------------
Pair    | 0          | 0          | 0          |   0.0 |  0.00
Bond    | 0.10824    | 0.10824    | 0.10824    |   0.0 | 13.02
Neigh   | 0          | 0          | 0          |   0.0 |  0.00
Comm    | 0.27554    | 0.27554    | 0.27554    |   0.0 | 33.15
Output  | 0.0057154  | 0.0057154  | 0.0057154  |   0.0 |  0.69
Modify  | 0.41958    | 0.41958    | 0.41958    |   0.0 | 50.48
Other   |            | 0.02205    |            |       |  2.65

Nlocal:             42 ave          42 max          42 min
Histogram: 1 0 0 0 0 0 0 0 0 0
Nghost:            348 ave         348 max         348 min
Histogram: 1 0 0 0 0 0 0 0 0 0
Neighs:              0 ave           0 max           0 min
Histogram: 1 0 0 0 0 0 0 0 0 0

Total # of neighbors = 0
Ave neighs/atom = 0
Ave special neighs/atom = 18.619048
Neighbor list builds = 0
Dangerous builds = 0


Total wall time: 0:00:00
