LAMMPS data file via write_data, version 23 Jun 2022, timestep = 10000

80 atoms
4 atom types

-4.789808793429473 4.789808793429473 xlo xhi
-4.789808793429473 4.789808793429473 ylo yhi
-0.1 0.1 zlo zhi

Atoms # sphere

60 3 1 1 -4.294376894085155 -4.447384522989472 0 1 1 0
23 2 1.3 0.4551661356395083 -3.400136351764147 -4.098841296857837 0 0 1 0
56 3 1 1 -2.243380246758216 -3.99146383323994 0 0 1 0
1 1 1.6 0.2441406249999999 -1.0421681913837686 -3.8928241581801544 0 0 1 0
13 1 1.6 0.2441406249999999 1.639866872805114 -4.186189802304018 0 0 1 0
34 2 1.3 0.4551661356395083 2.8629560392749127 -4.011385449742499 0 0 0 0
64 4 0.7 2.915451895043732 4.068519803224594 -4.397046368476138 0 -1 0 0
79 4 0.7 2.915451895043732 4.6277522608681005 -3.925168206249988 0 -1 0 0
3 1 1.6 0.2441406249999999 -3.998069492027878 -3.128786978194153 0 0 0 0
51 3 1 1 -2.808827396145812 -3.1292889646511592 0 0 1 0
29 2 1.3 0.4551661356395083 -2.0307369698392503 -2.8514708851066013 0 0 0 0
15 1 1.6 0.2441406249999999 0.42433157591905424 -3.460671871876438 0 0 0 0
66 4 0.7 2.915451895043732 1.4100560960320498 -3.0365021684597497 0 0 0 0
21 2 1.3 0.4551661356395083 2.3266333970915882 -2.970036220282764 0 0 0 0
44 3 1 1 3.41982679261267 -3.0460532641825724 0 0 0 0
45 3 1 1 4.210737855915414 -3.369435994447038 0 0 0 0
11 1 1.6 0.2441406249999999 -2.9857745090802155 -2.0253624069346237 0 0 0 0
52 3 1 1 -1.770665769883617 -1.6869383450375035 0 0 0 0
25 2 1.3 0.4551661356395083 -0.9682849850369322 -2.544172399066643 0 0 1 0
10 1 1.6 0.2441406249999999 0.2978482731630159 -2.0038702642678645 0 0 0 0
31 2 1.3 0.4551661356395083 1.6628709113900797 -2.0796667008324676 0 0 0 0
71 4 0.7 2.915451895043732 2.514384418828599 -1.7154107876778957 0 -1 0 0
33 2 1.3 0.4551661356395083 3.273679497164884 -1.9553449133463299 0 0 0 0
49 3 1 1 4.189203922294554 -2.4374050587894924 0 -1 0 0
24 2 1.3 0.4551661356395083 -4.206344107799365 -1.6694443178548326 0 0 0 0
76 4 0.7 2.915451895043732 -3.0860478815947854 -0.8960113652084485 0 0 0 0
32 2 1.3 0.4551661356395083 -2.2268428040765182 -0.6429739289613536 0 0 0 0
70 4 0.7 2.915451895043732 -0.687139633700145 -1.5788816375523251 0 1 0 0
41 3 1 1 -1.192694259394627 -0.8189103828625592 0 0 0 0
26 2 1.3 0.4551661356395083 -0.1007981022010851 -0.7439506723510068 0 0 0 0
22 2 1.3 0.4551661356395083 2.948755283083302 -0.8992606095785018 0 0 0 0
65 4 0.7 2.915451895043732 3.7846050731126786 -1.2776891932620753 0 0 0 0
61 4 0.7 2.915451895043732 4.322467251762435 -1.5784128405958882 0 0 0 0
37 2 1.3 0.4551661356395083 4.481773042373567 -0.5832356171426172 0 0 0 0
30 2 1.3 0.4551661356395083 -3.9373116118141174 -0.5289647879655837 0 0 0 0
14 1 1.6 0.2441406249999999 -3.1355625754376213 0.5136612848817066 0 0 0 0
19 1 1.6 0.2441406249999999 -1.2641416862665058 0.4763344337031272 0 0 0 0
43 3 1 1 -0.10068219935192158 0.1445920853476217 0 0 0 0
2 1 1.6 0.2441406249999999 1.1760233315059612 -0.7296010158398962 0 0 0 0
72 4 0.7 2.915451895043732 1.6502351640348945 0.2686949772902052 0 0 0 0
73 4 0.7 2.915451895043732 1.9922394188196115 -0.16936181012916052 0 -1 0 0
59 3 1 1 2.908443106367243 0.14862918005538273 0 0 0 0
55 3 1 1 3.6770368549748182 -0.07409126471393623 0 0 0 0
6 1 1.6 0.2441406249999999 -4.772071985407858 0.7004720829224587 0 0 0 0
47 3 1 1 -3.966477463728535 1.4239037113983866 0 0 0 0
40 2 1.3 0.4551661356395083 -2.1038849409394556 1.3929704937913288 0 0 0 0
5 1 1.6 0.2441406249999999 0.052495444865686025 1.4089403376690939 0 0 0 0
58 3 1 1 0.8484293075512488 0.3905452733914725 0 0 -1 0
27 2 1.3 0.4551661356395083 2.1333028281685564 0.8940380434692399 0 0 0 0
9 1 1.6 0.2441406249999999 3.4481296134174597 1.2941176041612126 0 0 0 0
75 4 0.7 2.915451895043732 -4.101327749830396 2.2521715159673743 0 0 0 0
38 2 1.3 0.4551661356395083 -3.2002312213713178 2.1506563323026917 0 0 0 0
35 2 1.3 0.4551661356395083 -1.844526155646602 2.6688129658693382 0 0 0 0
53 3 1 1 -1.0454711796997151 1.8914121731578923 0 1 0 0
57 3 1 1 -0.3275290186730997 2.387078244324834 0 0 0 0
54 3 1 1 1.2517233550060238 1.3105994773987462 0 0 0 0
46 3 1 1 0.5482244439151636 2.481115672008814 0 0 0 0
18 1 1.6 0.2441406249999999 1.733594183883409 2.4004265152415236 0 0 0 0
16 1 1.6 0.2441406249999999 3.193242580810854 2.769134569586879 0 0 0 0
12 1 1.6 0.2441406249999999 4.4945170900553295 2.1610363295094075 0 -1 -1 0
17 1 1.6 0.2441406249999999 -4.186109993085187 3.3125445867327725 0 1 0 0
36 2 1.3 0.4551661356395083 -2.959399582769004 3.3196915860602934 0 0 0 0
78 4 0.7 2.915451895043732 -1.714756139032355 3.597087774554514 0 0 0 0
69 4 0.7 2.915451895043732 -0.8462743880217416 2.8642797435856764 0 0 0 0
39 2 1.3 0.4551661356395083 0.0986473783762456 3.348176817124881 0 1 -1 0
7 1 1.6 0.2441406249999999 1.2916357462784607 3.935635207658538 0 0 0 0
48 3 1 1 2.3509900014375402 3.527802115840813 0 0 -1 0
67 4 0.7 2.915451895043732 2.989856008223212 3.8151162757848196 0 0 -1 0
4 1 1.6 0.2441406249999999 4.057381114690531 4.022375652533426 0 0 -1 0
77 4 0.7 2.915451895043732 -4.487186951975779 4.335955800915312 0 0 0 0
42 3 1 1 -3.6121024955725733 4.466203739809646 0 0 0 0
8 1 1.6 0.2441406249999999 -2.6223012189640746 4.520660858293442 0 0 -1 0
80 4 0.7 2.915451895043732 -1.0385625893294779 3.452925874510311 0 0 -1 0
28 2 1.3 0.4551661356395083 -1.3034076571316908 4.400688530195013 0 0 -1 0
20 1 1.6 0.2441406249999999 0.024229439959763788 4.753549444969319 0 0 0 0
74 4 0.7 2.915451895043732 -0.5655537655737293 3.80848470619918 0 0 0 0
50 3 1 1 2.968818608695628 4.582992387852877 0 0 0 0
62 4 0.7 2.915451895043732 2.2123842543612167 4.513050298005715 0 0 0 0
68 4 0.7 2.915451895043732 3.570266665305785 -4.52558923134152 0 -1 1 0
63 4 0.7 2.915451895043732 4.654538345442599 -4.620617685551507 0 0 1 0

Velocities

60 0.0630398327447215 -0.13158160644402 0 0 0 0
23 -0.06880066896348887 -0.09793895144101834 0 0 0 0
56 0.05577285079189172 0.08860924525911751 0 0 0 0
1 -0.17981300075902074 -0.06184248555778463 0 0 0 0
13 -0.010196088166625577 -0.025967764895382658 0 0 0 0
34 0.026428030759728566 0.12610954888067094 0 0 0 0
64 -0.09453511606996189 -0.008562422600581253 0 0 0 0
79 0.1370401340750831 0.058753905565502654 0 0 0 0
3 -0.08138323208534888 -0.09947709377143028 0 0 0 0
51 -0.0008580784706070306 0.026710193809611732 0 0 0 0
29 0.14705446630934224 0.12341263089746216 0 0 0 0
15 -0.022640327335728187 -0.005883633259482578 0 0 0 0
66 -0.10906356453637636 0.001900074062524868 0 0 0 0
21 -0.05687968721951317 -0.09766805752330239 0 0 0 0
44 0.17009896177113823 -0.17906335682951927 0 0 0 0
45 0.022034137151094407 -0.030616172375005277 0 0 0 0
11 -0.05061019897836751 -0.06849127092372247 0 0 0 0
52 -0.11187262902029196 0.0663575691711908 0 0 0 0
25 0.2108025611456603 0.06476924701381474 0 0 0 0
10 -0.1801419914084717 -0.08749058498061861 0 0 0 0
31 -0.0540130728824079 -0.0901093208749911 0 0 0 0
71 -0.23701969724447558 0.009477753539744284 0 0 0 0
33 -0.08232943021607196 0.1145703822150205 0 0 0 0
49 0.03552488873883376 0.03198907547696293 0 0 0 0
24 0.023077401718061073 -0.206352673575561 0 0 0 0
76 -0.03814714798040045 0.06362756509882497 0 0 0 0
32 -0.0024588154398581417 0.03728052511746405 0 0 0 0
70 -0.015573384988093256 -0.04476670414025192 0 0 0 0
41 -0.057926280521847395 0.10401176031925614 0 0 0 0
26 -0.002352265764837334 -0.14147305514643801 0 0 0 0
22 -0.044811721858881264 0.06964472509776001 0 0 0 0
65 0.03932651597144903 -0.15857784109011003 0 0 0 0
61 -0.0441300330414758 -0.10780683325505075 0 0 0 0
37 -0.236975261693 -0.08000057113266507 0 0 0 0
30 0.01843801925260215 -0.06853822615733492 0 0 0 0
14 -0.04284192472580265 -0.06779474597342211 0 0 0 0
19 0.07895228750978261 -0.017723200575979182 0 0 0 0
43 -0.05600441330834031 -0.020045577991672874 0 0 0 0
2 0.1126361147210509 0.1512318719286891 0 0 0 0
72 0.09777039209132074 0.03994734705096479 0 0 0 0
73 -0.06134061583201321 0.02949402126308957 0 0 0 0
59 -0.03389888140051564 0.18698688904509467 0 0 0 0
55 0.18427339705700216 0.004053853693489947 0 0 0 0
6 -0.0019227436592728691 -0.007515980964049116 0 0 0 0
47 0.15102003090828453 0.024401747099261586 0 0 0 0
40 -0.046095351101237934 0.1299271148053476 0 0 0 0
5 -0.011153526786214967 -0.14624282544347691 0 0 0 0
58 0.14399695135504598 0.009239571336661324 0 0 0 0
27 -0.09102936583717228 -0.004732733797300536 0 0 0 0
9 0.07474193934637453 -0.056450897308155806 0 0 0 0
75 0.05490400415704126 0.0647041594314205 0 0 0 0
38 0.006584161595096543 -0.034805498007428215 0 0 0 0
35 0.13972260519135032 -0.04765571244574289 0 0 0 0
53 -0.09508209237684194 -0.09218180651972216 0 0 0 0
57 0.19562765391480347 0.11650105070595644 0 0 0 0
54 -0.032429500579504916 -0.03178534035341783 0 0 0 0
46 -0.13340401338663105 -0.0029696888001622276 0 0 0 0
18 -0.09465743820302441 -0.022538832954809993 0 0 0 0
16 -0.0722952765228778 -0.06589262433763254 0 0 0 0
12 -0.07878991857453994 0.10082448423254776 0 0 0 0
17 -0.015607671267464917 -0.06206884996341126 0 0 0 0
36 -0.21754192290009916 0.06734423809546213 0 0 0 0
78 0.002170348497071948 0.04313637267733537 0 0 0 0
69 0.19083978618708258 0.08673432213960727 0 0 0 0
39 0.015981530610506216 0.1682703769429835 0 0 0 0
7 0.011257405059086479 -0.009255284533370961 0 0 0 0
48 0.14540660394849655 0.07361971099229297 0 0 0 0
67 0.04665620345748157 -0.08620766703674057 0 0 0 0
4 -0.05703341618869509 0.07918675613965366 0 0 0 0
77 0.045516226353100264 -0.012026284869040515 0 0 0 0
42 0.11222584520694197 -0.03388396788403242 0 0 0 0
8 -0.22359430629343796 0.09833350630863583 0 0 0 0
80 -0.076600079892363 0.026739612003742964 0 0 0 0
28 0.07315772652959456 0.013954487953359735 0 0 0 0
20 0.09867374309100227 -0.05447315805276134 0 0 0 0
74 0.015865017325037166 -0.1153019336045853 0 0 0 0
50 0.10652115572878494 0.010809832676593085 0 0 0 0
62 0.02502683210956687 -0.15852683035087223 0 0 0 0
68 0.09094445545234629 0.13037450044241392 0 0 0 0
63 0.05474393564834015 0.29924803925252924 0 0 0 0
