LAMMPS data file.

     65 atoms
    152 bonds
      0 angles
      0 dihedrals
      0 impropers
      1 atom types
    152 bond types
      0 angle types
      0 dihedral types
      0 improper types
  -4.789809   4.789809 xlo xhi
  -4.789809   4.789809 ylo yhi
  -0.100000   0.100000 zlo zhi

Masses # ['atom_id', 'mass']

1 10000.0

Atoms # ['atomID', 'moleculeID', 'atomType', 'charge', 'x', 'y', 'z']

     60      1      1   0.000000  -4.294377  -4.447385   0.000000
     23      1      1   0.000000  -3.400136  -4.098841   0.000000
      1      1      1   0.000000  -1.042168  -3.892824   0.000000
     13      1      1   0.000000   1.639867  -4.186190   0.000000
     34      1      1   0.000000   2.862956  -4.011385   0.000000
     79      1      1   0.000000   4.627752  -3.925168   0.000000
      3      1      1   0.000000  -3.998069  -3.128787   0.000000
     51      1      1   0.000000  -2.808827  -3.129289   0.000000
     29      1      1   0.000000  -2.030737  -2.851471   0.000000
     15      1      1   0.000000   0.424332  -3.460672   0.000000
     66      1      1   0.000000   1.410056  -3.036502   0.000000
     21      1      1   0.000000   2.326633  -2.970036   0.000000
     44      1      1   0.000000   3.419827  -3.046053   0.000000
     45      1      1   0.000000   4.210738  -3.369436   0.000000
     11      1      1   0.000000  -2.985775  -2.025362   0.000000
     25      1      1   0.000000  -0.968285  -2.544172   0.000000
     10      1      1   0.000000   0.297848  -2.003870   0.000000
     31      1      1   0.000000   1.662871  -2.079667   0.000000
     71      1      1   0.000000   2.514384  -1.715411   0.000000
     33      1      1   0.000000   3.273679  -1.955345   0.000000
     49      1      1   0.000000   4.189204  -2.437405   0.000000
     26      1      1   0.000000  -0.100798  -0.743951   0.000000
     22      1      1   0.000000   2.948755  -0.899261   0.000000
     65      1      1   0.000000   3.784605  -1.277689   0.000000
     37      1      1   0.000000   4.481773  -0.583236   0.000000
     43      1      1   0.000000  -0.100682   0.144592   0.000000
      2      1      1   0.000000   1.176023  -0.729601   0.000000
     72      1      1   0.000000   1.650235   0.268695   0.000000
     59      1      1   0.000000   2.908443   0.148629   0.000000
     55      1      1   0.000000   3.677037  -0.074091   0.000000
      6      1      1   0.000000  -4.772072   0.700472   0.000000
     47      1      1   0.000000  -3.966477   1.423904   0.000000
      5      1      1   0.000000   0.052495   1.408940   0.000000
     58      1      1   0.000000   0.848429   0.390545   0.000000
     27      1      1   0.000000   2.133303   0.894038   0.000000
      9      1      1   0.000000   3.448130   1.294118   0.000000
     75      1      1   0.000000  -4.101328   2.252172   0.000000
     38      1      1   0.000000  -3.200231   2.150656   0.000000
     35      1      1   0.000000  -1.844526   2.668813   0.000000
     53      1      1   0.000000  -1.045471   1.891412   0.000000
     57      1      1   0.000000  -0.327529   2.387078   0.000000
     54      1      1   0.000000   1.251723   1.310599   0.000000
     46      1      1   0.000000   0.548224   2.481116   0.000000
     18      1      1   0.000000   1.733594   2.400427   0.000000
     16      1      1   0.000000   3.193243   2.769135   0.000000
     12      1      1   0.000000   4.494517   2.161036   0.000000
     17      1      1   0.000000  -4.186110   3.312545   0.000000
     36      1      1   0.000000  -2.959400   3.319692   0.000000
     78      1      1   0.000000  -1.714756   3.597088   0.000000
     39      1      1   0.000000   0.098647   3.348177   0.000000
      7      1      1   0.000000   1.291636   3.935635   0.000000
     48      1      1   0.000000   2.350990   3.527802   0.000000
     67      1      1   0.000000   2.989856   3.815116   0.000000
      4      1      1   0.000000   4.057381   4.022376   0.000000
     77      1      1   0.000000  -4.487187   4.335956   0.000000
     42      1      1   0.000000  -3.612102   4.466204   0.000000
      8      1      1   0.000000  -2.622301   4.520661   0.000000
     80      1      1   0.000000  -1.038563   3.452926   0.000000
     28      1      1   0.000000  -1.303408   4.400689   0.000000
     20      1      1   0.000000   0.024229   4.753549   0.000000
     74      1      1   0.000000  -0.565554   3.808485   0.000000
     50      1      1   0.000000   2.968819   4.582992   0.000000
     62      1      1   0.000000   2.212384   4.513050   0.000000
     68      1      1   0.000000   3.570267  -4.525589   0.000000
     63      1      1   0.000000   4.654538  -4.620618   0.000000

Bond Coeffs # ['bondID', 'bondCoeff', 'd']

      1   0.445152   1.498808
      2   0.818685   1.105202
      3   2.037908   0.700499
      4   0.439502   1.508411
      5   0.445152   1.498808
      6   0.883721   1.063757
      7   1.150556   0.932280
      8   0.908123   1.049368
      9   0.468569   1.460875
     10   0.468569   1.460875
     11   0.570115   1.324399
     12   0.770102   1.139530
     13   0.535036   1.367125
     14   1.051850   0.975041
     15   0.570115   1.324399
     16   1.048312   0.976686
     17   0.655092   1.235518
     18   1.732847   0.759661
     19   2.337567   0.654061
     20   2.337567   0.654061
     21   0.800023   1.118018
     22   0.654944   1.235657
     23   1.169893   0.924543
     24   0.654944   1.235657
     25   2.064548   0.695965
     26   1.032634   0.984072
     27   0.431528   1.522284
     28   0.707065   1.189242
     29   1.024470   0.987985
     30   1.024470   0.987985
     31   0.467668   1.462282
     32   0.868378   1.073114
     33   2.091961   0.691390
     34   0.846607   1.086824
     35   1.017633   0.991298
     36   0.716688   1.181231
     37   1.289013   0.880788
     38   0.805807   1.113998
     39   0.845619   1.087459
     40   0.734190   1.167067
     41   0.854949   1.081508
     42   0.623673   1.266256
     43   1.561669   0.800213
     44   0.448182   1.493732
     45   0.448182   1.493732
     46   0.854949   1.081508
     47   0.627135   1.262756
     48   0.570167   1.324339
     49   1.032728   0.984027
     50   1.102745   0.952275
     51   0.548149   1.350674
     52   0.642689   1.247382
     53   0.880713   1.065572
     54   1.388383   0.848683
     55   0.810807   1.110558
     56   1.184088   0.918984
     57   0.896618   1.056079
     58   1.138259   0.937302
     59   0.825560   1.100590
     60   0.819075   1.104939
     61   1.601516   0.790195
     62   1.313843   0.872425
     63   0.832743   1.095833
     64   0.904702   1.051350
     65   0.441205   1.505496
     66   1.418438   0.839643
     67   1.418438   0.839643
     68   1.464971   0.826201
     69   0.878721   1.066779
     70   0.497971   1.417091
     71   0.497971   1.417091
     72   0.906749   1.050162
     73   0.906749   1.050162
     74   0.605271   1.285361
     75   0.541573   1.358851
     76   0.417545   1.547564
     77   0.565506   1.329785
     78   1.307713   0.874468
     79   0.776061   1.135147
     80   0.934084   1.034682
     81   1.531284   0.808113
     82   0.930850   1.036478
     83   0.930850   1.036478
     84   0.512642   1.396667
     85   0.445973   1.497427
     86   0.768292   1.140872
     87   0.768292   1.140872
     88   0.778231   1.133563
     89   1.369644   0.854469
     90   0.704264   1.191605
     91   1.085601   0.959765
     92   1.018429   0.990911
     93   1.018429   0.990911
     94   1.520357   0.811012
     95   1.117152   0.946115
     96   1.040252   0.980462
     97   0.391820   1.597558
     98   0.446301   1.496878
     99   0.613317   1.276902
    100   1.227021   0.902763
    101   1.694696   0.768164
    102   0.666996   1.224443
    103   0.485040   1.435857
    104   0.527699   1.376597
    105   0.817503   1.106000
    106   1.039076   0.981017
    107   0.810464   1.110793
    108   0.810464   1.110793
    109   1.187856   0.917526
    110   0.572634   1.321483
    111   0.852998   1.082745
    112   0.775387   1.135640
    113   0.499026   1.415593
    114   2.855842   0.591743
    115   0.664509   1.226731
    116   2.071511   0.694794
    117   1.577045   0.796302
    118   0.804608   1.114828
    119   0.825761   1.100456
    120   1.489795   0.819288
    121   1.489795   0.819288
    122   0.695261   1.199296
    123   1.165831   0.926152
    124   1.216130   0.906797
    125   1.713459   0.763947
    126   1.713459   0.763947
    127   0.805172   1.114438
    128   0.484708   1.436349
    129   1.266611   0.888543
    130   1.020982   0.989671
    131   0.485508   1.435165
    132   0.909340   1.048665
    133   0.504895   1.407342
    134   0.580615   1.312369
    135   0.580615   1.312369
    136   0.427830   1.528848
    137   0.864695   1.075396
    138   0.690694   1.203253
    139   0.600029   1.290963
    140   0.701930   1.193584
    141   0.529905   1.373729
    142   0.708410   1.188113
    143   0.529427   1.374348
    144   0.436854   1.512975
    145   0.436854   1.512975
    146   1.099997   0.953464
    147   0.616508   1.273593
    148   0.602259   1.288571
    149   0.598573   1.292532
    150   1.099997   0.953464
    151   0.728836   1.171345
    152   1.420027   0.839173

Bonds # ['ID', 'type', 'atom1', 'atom2']

         1         1        13         7
         2         2         2        72
         3         3        48        67
         4         4         7        20
         5         5         7        13
         6         6        75        17
         7         7        45        49
         8         8         5        57
         9         9        12        17
        10        10        17        12
        11        11        37         6
        12        12        23         3
        13        13        10        31
        14        14        27        54
        15        15         6        37
        16        16        46        39
        17        17        13        34
        18        18        50        62
        19        19        60        63
        20        20        63        60
        21        21        51        11
        22        22        23         8
        23        23        71        22
        24        24         8        23
        25        25        79        63
        26        26        80        28
        27        27        16         4
        28        28         3        51
        29        29        75        12
        30        30        12        75
        31        31        15        10
        32        32        15        66
        33        33        78        80
        34        34         7        62
        35        35        42         8
        36        36         5        46
        37        37        57        46
        38        38        20        74
        39        39        67         4
        40        40         2        58
        41        41         4        77
        42        42        59         9
        43        43        59        55
        44        44         6        12
        45        45        12         6
        46        46        77         4
        47        47        29        11
        48        48         8        28
        49        49        65        37
        50        50        37        55
        51        51         1        25
        52        52        36         8
        53        53        16        67
        54        54        33        65
        55        55        21        31
        56        56        66        21
        57        57        47        38
        58        58        35        78
        59        59        22        55
        60        60        33        22
        61        61        72        27
        62        62        53        57
        63        63        21        44
        64        64        57        39
        65        65        18        16
        66        66        60        79
        67        67        79        60
        68        68        51        29
        69        69        17        77
        70        70         1        20
        71        71        20         1
        72        72        13        62
        73        73        62        13
        74        74        18        48
        75        75         9        12
        76        76        10         2
        77        77        39         7
        78        78        34        68
        79        79         7        48
        80        80        33        49
        81        81        39        74
        82        82        23        42
        83        83        42        23
        84        84        13        21
        85        85         3        11
        86        86         4        68
        87        87        68         4
        88        88        16        48
        89        89        44        45
        90        90        54        18
        91        91        60        23
        92        92        34        50
        93        93        50        34
        94        94        72        58
        95        95        28        74
        96        96        43        58
        97        97        18         7
        98        98         9        16
        99        99        26         2
       100       100        78        28
       101       101        67        50
       102       102         4        50
       103       103         1        29
       104       104        25        10
       105       105        29        25
       106       106        44        49
       107       107         4        63
       108       108        63         4
       109       109        22        65
       110       110        10        26
       111       111         6        47
       112       112        23        51
       113       113        13        15
       114       114        80        74
       115       115        17        36
       116       116        79        45
       117       117        71        33
       118       118        35        53
       119       119        44        33
       120       120        60        77
       121       121        77        60
       122       122         5        53
       123       123        31        71
       124       124        75        38
       125       125        50        68
       126       126        68        50
       127       127        34        44
       128       128        16        12
       129       129        26        43
       130       130        66        31
       131       131        31         2
       132       132        22        59
       133       133        39        20
       134       134         1        28
       135       135        28         1
       136       136         1        15
       137       137        59        27
       138       138         5        54
       139       139        35        36
       140       140        38        36
       141       141        28        20
       142       142        46        18
       143       143        27         9
       144       144        17         4
       145       145         4        17
       146       146        60        42
       147       147        43         5
       148       148        17        42
       149       149         5        58
       150       150        42        60
       151       151        34        21
       152       152        47        75
