ITEM: TIMESTEP
0
ITEM: NUMBER OF ATOMS
80
ITEM: BOX BOUNDS pp pp pp
-1.0000000000000000e+01 1.0000000000000000e+01
-1.0000000000000000e+01 1.0000000000000000e+01
-1.0000000000000001e-01 1.0000000000000001e-01
ITEM: ATOMS id type xs ys zs
58 3 0.000417377 0.014853 0.5
24 2 0.359018 0.0183202 0.5
28 2 0.564706 0.021229 0.5
65 4 0.593268 0.0473769 0.5
80 4 0.664843 0.0116418 0.5
34 2 0.921045 0.0107215 0.5
48 3 0.998811 0.0152565 0.5
12 1 0.063073 0.0671513 0.5
29 2 0.963711 0.0963342 0.5
39 2 0.979774 0.0568223 0.5
10 1 0.20159 0.124872 0.5
11 1 0.414774 0.112322 0.5
64 4 0.405436 0.15451 0.5
53 3 0.966451 0.140516 0.5
8 1 0.105442 0.167492 0.5
66 4 0.88488 0.184088 0.5
79 4 0.679494 0.249567 0.5
37 2 0.940931 0.231485 0.5
30 2 0.0305389 0.266695 0.5
33 2 0.250212 0.310037 0.5
55 3 0.719418 0.26417 0.5
15 1 0.999958 0.291706 0.5
52 3 0.0220953 0.355187 0.5
3 1 0.148053 0.328411 0.5
72 4 0.188454 0.354563 0.5
38 2 0.23153 0.317269 0.5
18 1 0.995975 0.358224 0.5
22 2 0.747985 0.384148 0.5
17 1 0.974678 0.415188 0.5
61 4 0.96004 0.385992 0.5
76 4 0.146455 0.469173 0.5
6 1 0.22172 0.452218 0.5
49 3 0.2313 0.467032 0.5
21 2 0.303472 0.452908 0.5
32 2 0.297523 0.471729 0.5
35 2 0.552539 0.525651 0.5
27 2 0.882937 0.515085 0.5
67 4 0.92393 0.492207 0.5
43 3 0.132122 0.570522 0.5
47 3 0.276704 0.56761 0.5
60 3 0.308298 0.559959 0.5
44 3 0.322042 0.552352 0.5
40 2 0.621975 0.532774 0.5
4 1 0.640836 0.535853 0.5
45 3 0.672133 0.532733 0.5
63 4 0.644645 0.543016 0.5
51 3 0.117547 0.604515 0.5
26 2 0.624001 0.587725 0.5
20 1 0.668567 0.602803 0.5
71 4 0.030682 0.672153 0.5
41 3 0.181691 0.677488 0.5
42 3 0.428074 0.647484 0.5
7 1 0.517979 0.673311 0.5
75 4 0.10125 0.702745 0.5
14 1 0.305094 0.716221 0.5
77 4 0.291648 0.734607 0.5
59 3 0.606337 0.699744 0.5
70 4 0.873308 0.689546 0.5
16 1 0.962736 0.704411 0.5
73 4 0.0603187 0.775656 0.5
36 2 0.231022 0.7841 0.5
68 4 0.216384 0.768318 0.5
57 3 0.363942 0.774904 0.5
54 3 0.573735 0.767978 0.5
9 1 0.687259 0.766546 0.5
1 1 0.947685 0.748831 0.5
19 1 0.298911 0.805211 0.5
5 1 0.349606 0.832887 0.5
13 1 0.709813 0.821136 0.5
23 2 0.257978 0.842935 0.5
78 4 0.507639 0.884947 0.5
31 2 0.625862 0.860566 0.5
2 1 0.714753 0.854899 0.5
69 4 0.032303 0.916175 0.5
50 3 0.652283 0.913872 0.5
62 4 0.979825 0.916588 0.5
74 4 0.0384349 0.975683 0.5
56 3 0.384602 0.99875 0.5
46 3 0.458023 0.990437 0.5
25 2 0.675549 0.955735 0.5
ITEM: TIMESTEP
10
ITEM: NUMBER OF ATOMS
80
ITEM: BOX BOUNDS pp pp pp
-9.2863234675272270e+00 9.2863234675272270e+00
-9.2863234675272270e+00 9.2863234675272270e+00
-1.0000000000000001e-01 1.0000000000000001e-01
ITEM: ATOMS id type xs ys zs
58 3 0.000607688 0.0147726 0.5
24 2 0.358943 0.0183774 0.5
28 2 0.564675 0.0211998 0.5
65 4 0.593299 0.0474061 0.5
80 4 0.664843 0.0116418 0.5
34 2 0.921045 0.0107215 0.5
48 3 0.998658 0.0152583 0.5
12 1 0.063073 0.0671513 0.5
29 2 0.963677 0.0963615 0.5
39 2 0.979768 0.0568231 0.5
10 1 0.20159 0.124872 0.5
11 1 0.414786 0.112269 0.5
64 4 0.405424 0.154563 0.5
53 3 0.966454 0.140567 0.5
8 1 0.105442 0.167492 0.5
66 4 0.88488 0.184088 0.5
79 4 0.679492 0.249567 0.5
37 2 0.940931 0.231485 0.5
30 2 0.030634 0.266617 0.5
33 2 0.250366 0.309977 0.5
55 3 0.71942 0.26417 0.5
15 1 0.999866 0.291731 0.5
52 3 0.0222376 0.355171 0.5
3 1 0.148022 0.328392 0.5
72 4 0.188485 0.354583 0.5
38 2 0.231375 0.317329 0.5
18 1 0.995893 0.358196 0.5
22 2 0.747985 0.384148 0.5
17 1 0.974694 0.415339 0.5
61 4 0.959961 0.385937 0.5
76 4 0.146455 0.469173 0.5
6 1 0.221626 0.452071 0.5
49 3 0.231395 0.467178 0.5
21 2 0.303522 0.452748 0.5
32 2 0.297473 0.471888 0.5
35 2 0.552539 0.525651 0.5
27 2 0.882925 0.515092 0.5
67 4 0.923942 0.4922 0.5
43 3 0.132141 0.570476 0.5
47 3 0.276631 0.567629 0.5
60 3 0.308251 0.560005 0.5
44 3 0.322162 0.552288 0.5
40 2 0.621665 0.532664 0.5
4 1 0.640831 0.535643 0.5
45 3 0.672332 0.532703 0.5
63 4 0.64477 0.543227 0.5
51 3 0.117527 0.60456 0.5
26 2 0.623889 0.587803 0.5
20 1 0.668669 0.602862 0.5
71 4 0.030682 0.672153 0.5
41 3 0.181691 0.677488 0.5
42 3 0.428074 0.647484 0.5
7 1 0.517979 0.673311 0.5
75 4 0.10125 0.702745 0.5
14 1 0.30517 0.716118 0.5
77 4 0.291573 0.73471 0.5
59 3 0.606337 0.699744 0.5
70 4 0.873308 0.689546 0.5
16 1 0.962776 0.704294 0.5
73 4 0.0603187 0.775656 0.5
36 2 0.231084 0.784171 0.5
68 4 0.216312 0.768241 0.5
57 3 0.363947 0.774883 0.5
54 3 0.573735 0.767978 0.5
9 1 0.687229 0.766473 0.5
1 1 0.947646 0.748948 0.5
19 1 0.298893 0.80513 0.5
5 1 0.349675 0.832949 0.5
13 1 0.709819 0.821041 0.5
23 2 0.257933 0.842983 0.5
78 4 0.507639 0.884947 0.5
31 2 0.625862 0.860565 0.5
2 1 0.714778 0.855067 0.5
69 4 0.032303 0.916175 0.5
50 3 0.652265 0.913839 0.5
62 4 0.979825 0.916588 0.5
74 4 0.0384349 0.975683 0.5
56 3 0.384676 0.998693 0.5
46 3 0.458023 0.990437 0.5
25 2 0.675567 0.955768 0.5
ITEM: TIMESTEP
20
ITEM: NUMBER OF ATOMS
80
ITEM: BOX BOUNDS pp pp pp
-8.3801616232780223e+00 8.3801616232780223e+00
-8.3801616232780223e+00 8.3801616232780223e+00
-1.0000000000000001e-01 1.0000000000000001e-01
ITEM: ATOMS id type xs ys zs
58 3 0.00128019 0.0144742 0.5
24 2 0.358671 0.0185859 0.5
28 2 0.56455 0.0210858 0.5
65 4 0.593424 0.0475201 0.5
80 4 0.664843 0.0116427 0.5
34 2 0.921045 0.0107211 0.5
48 3 0.998134 0.0152426 0.5
12 1 0.0630733 0.0671514 0.5
29 2 0.963546 0.0964544 0.5
39 2 0.979738 0.056847 0.5
10 1 0.20159 0.124872 0.5
11 1 0.414832 0.112063 0.5
64 4 0.405378 0.154768 0.5
53 3 0.966466 0.140764 0.5
8 1 0.105442 0.167492 0.5
66 4 0.88488 0.184088 0.5
79 4 0.679466 0.249557 0.5
37 2 0.940931 0.231485 0.5
30 2 0.0309798 0.266335 0.5
33 2 0.250913 0.309766 0.5
55 3 0.719446 0.26418 0.5
15 1 0.999525 0.291777 0.5
52 3 0.0227529 0.355135 0.5
3 1 0.147895 0.32831 0.5
72 4 0.188611 0.354665 0.5
38 2 0.23083 0.317539 0.5
18 1 0.995617 0.35809 0.5
22 2 0.747985 0.384148 0.5
17 1 0.974746 0.415907 0.5
61 4 0.959664 0.385749 0.5
76 4 0.146455 0.469173 0.5
6 1 0.221281 0.451552 0.5
49 3 0.231728 0.467694 0.5
21 2 0.303701 0.452186 0.5
32 2 0.297305 0.472453 0.5
35 2 0.552526 0.52565 0.5
27 2 0.882864 0.515126 0.5
67 4 0.924002 0.492166 0.5
43 3 0.132216 0.570302 0.5
47 3 0.276339 0.567705 0.5
60 3 0.308098 0.560165 0.5
44 3 0.322607 0.552052 0.5
40 2 0.620562 0.532258 0.5
4 1 0.640804 0.534851 0.5
45 3 0.673075 0.532586 0.5
63 4 0.645209 0.543953 0.5
51 3 0.117452 0.604735 0.5
26 2 0.62346 0.58814 0.5
20 1 0.66906 0.603117 0.5
71 4 0.030682 0.672153 0.5
41 3 0.181691 0.677488 0.5
42 3 0.428074 0.647484 0.5
7 1 0.517979 0.673311 0.5
75 4 0.10125 0.702745 0.5
14 1 0.30544 0.715745 0.5
77 4 0.291303 0.735079 0.5
59 3 0.606337 0.699744 0.5
70 4 0.873308 0.689546 0.5
16 1 0.962921 0.703865 0.5
73 4 0.0603187 0.775656 0.5
36 2 0.231258 0.784386 0.5
68 4 0.216056 0.767965 0.5
57 3 0.363977 0.774778 0.5
54 3 0.573735 0.767978 0.5
9 1 0.687111 0.766189 0.5
1 1 0.947501 0.749376 0.5
19 1 0.298854 0.80483 0.5
5 1 0.349931 0.833206 0.5
13 1 0.709848 0.820724 0.5
23 2 0.257768 0.843195 0.5
78 4 0.507639 0.884947 0.5
31 2 0.625852 0.860546 0.5
2 1 0.714865 0.855668 0.5
69 4 0.032303 0.916175 0.5
50 3 0.652199 0.913724 0.5
62 4 0.979825 0.916588 0.5
74 4 0.0384349 0.975683 0.5
56 3 0.384949 0.998484 0.5
46 3 0.458023 0.990437 0.5
25 2 0.675642 0.955901 0.5
ITEM: TIMESTEP
30
ITEM: NUMBER OF ATOMS
80
ITEM: BOX BOUNDS pp pp pp
-7.7205723013511811e+00 7.7205723013511811e+00
-7.7205723013511811e+00 7.7205723013511811e+00
-1.0000000000000001e-01 1.0000000000000001e-01
ITEM: ATOMS id type xs ys zs
58 3 0.0025648 0.013877 0.5
24 2 0.358134 0.0189965 0.5
28 2 0.564288 0.0208462 0.5
65 4 0.593686 0.0477598 0.5
80 4 0.664838 0.0116651 0.5
34 2 0.921027 0.0107067 0.5
48 3 0.997167 0.0151663 0.5
12 1 0.0630953 0.0671546 0.5
29 2 0.963279 0.0966258 0.5
39 2 0.979656 0.056944 0.5
10 1 0.20159 0.124872 0.5
11 1 0.414926 0.111637 0.5
64 4 0.405284 0.155195 0.5
53 3 0.966493 0.141181 0.5
8 1 0.105442 0.167492 0.5
66 4 0.88488 0.184088 0.5
79 4 0.679378 0.249525 0.5
37 2 0.940916 0.23147 0.5
30 2 0.0316611 0.265781 0.5
33 2 0.251957 0.309362 0.5
55 3 0.719534 0.264212 0.5
15 1 0.998851 0.291777 0.5
52 3 0.023773 0.355115 0.5
3 1 0.147594 0.328133 0.5
72 4 0.188867 0.354863 0.5
38 2 0.22983 0.317922 0.5
18 1 0.995125 0.357876 0.5
22 2 0.747985 0.384148 0.5
17 1 0.974835 0.417063 0.5
61 4 0.959054 0.385396 0.5
76 4 0.146455 0.469173 0.5
6 1 0.220548 0.450551 0.5
49 3 0.232342 0.468676 0.5
21 2 0.304073 0.451113 0.5
32 2 0.297053 0.473546 0.5
35 2 0.55244 0.525641 0.5
27 2 0.88271 0.515212 0.5
67 4 0.924156 0.49208 0.5
43 3 0.132371 0.569941 0.5
47 3 0.275717 0.567867 0.5
60 3 0.30783 0.560466 0.5
44 3 0.323496 0.551588 0.5
40 2 0.618468 0.531445 0.5
4 1 0.640747 0.533231 0.5
45 3 0.674564 0.532316 0.5
63 4 0.646021 0.545275 0.5
51 3 0.117297 0.605095 0.5
26 2 0.622578 0.588898 0.5
20 1 0.669877 0.603749 0.5
71 4 0.030682 0.672153 0.5
41 3 0.181691 0.677488 0.5
42 3 0.428074 0.647484 0.5
7 1 0.517979 0.673311 0.5
75 4 0.10125 0.702745 0.5
14 1 0.305964 0.714985 0.5
77 4 0.290782 0.735786 0.5
59 3 0.606337 0.699744 0.5
70 4 0.873308 0.689546 0.5
16 1 0.963208 0.703018 0.5
73 4 0.0603187 0.775656 0.5
36 2 0.231503 0.784725 0.5
68 4 0.21556 0.767429 0.5
57 3 0.364081 0.774509 0.5
54 3 0.573735 0.767978 0.5
9 1 0.686862 0.765584 0.5
1 1 0.947213 0.750224 0.5
19 1 0.298802 0.804284 0.5
5 1 0.350449 0.833774 0.5
13 1 0.709924 0.820149 0.5
23 2 0.257445 0.843692 0.5
78 4 0.507639 0.884947 0.5
31 2 0.625808 0.860463 0.5
2 1 0.715041 0.856847 0.5
69 4 0.032303 0.916175 0.5
50 3 0.652078 0.913515 0.5
62 4 0.979825 0.916588 0.5
74 4 0.0384354 0.975683 0.5
56 3 0.385486 0.998074 0.5
46 3 0.458023 0.990437 0.5
25 2 0.675809 0.956172 0.5
ITEM: TIMESTEP
40
ITEM: NUMBER OF ATOMS
80
ITEM: BOX BOUNDS pp pp pp
-7.2585942736008189e+00 7.2585942736008189e+00
-7.2585942736008189e+00 7.2585942736008189e+00
-1.0000000000000001e-01 1.0000000000000001e-01
ITEM: ATOMS id type xs ys zs
58 3 0.00452899 0.012917 0.5
24 2 0.35728 0.0196498 0.5
28 2 0.563851 0.020446 0.5
65 4 0.594123 0.04816 0.5
80 4 0.664822 0.011749 0.5
34 2 0.920949 0.0106473 0.5
48 3 0.995706 0.0149782 0.5
12 1 0.0632152 0.067188 0.5
29 2 0.96284 0.0968862 0.5
39 2 0.979489 0.0571731 0.5
10 1 0.201594 0.124871 0.5
11 1 0.415082 0.11093 0.5
64 4 0.405127 0.155901 0.5
53 3 0.96654 0.141881 0.5
8 1 0.105439 0.167494 0.5
66 4 0.88488 0.184088 0.5
79 4 0.679193 0.249457 0.5
37 2 0.940848 0.231399 0.5
30 2 0.0327484 0.264903 0.5
33 2 0.253579 0.308734 0.5
55 3 0.719719 0.264279 0.5
15 1 0.997797 0.291685 0.5
52 3 0.0254235 0.355133 0.5
3 1 0.147012 0.327839 0.5
72 4 0.189268 0.355239 0.5
38 2 0.22839 0.318469 0.5
18 1 0.994402 0.357526 0.5
22 2 0.747985 0.384148 0.5
17 1 0.974946 0.41897 0.5
61 4 0.958052 0.38486 0.5
76 4 0.146453 0.469174 0.5
6 1 0.21928 0.448977 0.5
49 3 0.233225 0.470194 0.5
21 2 0.304717 0.449444 0.5
32 2 0.296796 0.475271 0.5
35 2 0.552173 0.525617 0.5
27 2 0.882422 0.515372 0.5
67 4 0.924444 0.49192 0.5
43 3 0.132626 0.569345 0.5
47 3 0.274673 0.568141 0.5
60 3 0.307449 0.560932 0.5
44 3 0.324922 0.550849 0.5
40 2 0.615264 0.530137 0.5
4 1 0.640696 0.53057 0.5
45 3 0.676953 0.531833 0.5
63 4 0.647227 0.547226 0.5
51 3 0.117042 0.605691 0.5
26 2 0.621129 0.590214 0.5
20 1 0.671253 0.604956 0.5
71 4 0.0306894 0.67215 0.5
41 3 0.181691 0.677488 0.5
42 3 0.428074 0.647484 0.5
7 1 0.517979 0.673311 0.5
75 4 0.10125 0.702745 0.5
14 1 0.30678 0.713708 0.5
77 4 0.289965 0.736853 0.5
59 3 0.606337 0.699744 0.5
70 4 0.873308 0.689546 0.5
16 1 0.963659 0.701668 0.5
73 4 0.0603187 0.775656 0.5
36 2 0.231768 0.78516 0.5
68 4 0.214782 0.766588 0.5
57 3 0.364329 0.774002 0.5
54 3 0.573735 0.767978 0.5
9 1 0.68643 0.76453 0.5
1 1 0.946755 0.751577 0.5
19 1 0.298737 0.803531 0.5
5 1 0.351299 0.834757 0.5
13 1 0.71008 0.819296 0.5
23 2 0.256927 0.844585 0.5
78 4 0.507639 0.884947 0.5
31 2 0.625667 0.860271 0.5
2 1 0.715366 0.858745 0.5
69 4 0.032303 0.916175 0.5
50 3 0.651891 0.913213 0.5
62 4 0.979825 0.916588 0.5
74 4 0.0384495 0.975668 0.5
56 3 0.38634 0.99742 0.5
46 3 0.458023 0.990437 0.5
25 2 0.676106 0.956591 0.5
ITEM: TIMESTEP
50
ITEM: NUMBER OF ATOMS
80
ITEM: BOX BOUNDS pp pp pp
-6.9678346836147211e+00 6.9678346836147211e+00
-6.9678346836147211e+00 6.9678346836147211e+00
-1.0000000000000001e-01 1.0000000000000001e-01
ITEM: ATOMS id type xs ys zs
58 3 0.00713252 0.0115772 0.5
24 2 0.356092 0.0205584 0.5
28 2 0.56322 0.0198684 0.5
65 4 0.594754 0.0487375 0.5
80 4 0.664785 0.0119297 0.5
34 2 0.92075 0.0105145 0.5
48 3 0.993762 0.0146272 0.5
12 1 0.0635251 0.0672906 0.5
29 2 0.962204 0.0972386 0.5
39 2 0.97922 0.0575754 0.5
10 1 0.201629 0.124855 0.5
11 1 0.415307 0.109916 0.5
64 4 0.404903 0.156915 0.5
53 3 0.966612 0.142898 0.5
8 1 0.105408 0.167521 0.5
66 4 0.88488 0.184088 0.5
79 4 0.678885 0.249345 0.5
37 2 0.94069 0.231232 0.5
30 2 0.0342707 0.263686 0.5
33 2 0.255793 0.307878 0.5
55 3 0.720027 0.264392 0.5
15 1 0.996352 0.291466 0.5
52 3 0.0277617 0.355209 0.5
3 1 0.146067 0.327415 0.5
72 4 0.189805 0.355841 0.5
38 2 0.226584 0.319147 0.5
18 1 0.993458 0.357033 0.5
22 2 0.747985 0.384148 0.5
17 1 0.975065 0.421702 0.5
61 4 0.956619 0.384148 0.5
76 4 0.146426 0.469181 0.5
6 1 0.217426 0.446801 0.5
49 3 0.234314 0.472259 0.5
21 2 0.305695 0.44716 0.5
32 2 0.296608 0.477655 0.5
35 2 0.55161 0.525574 0.5
27 2 0.881974 0.515623 0.5
67 4 0.924893 0.491669 0.5
43 3 0.132992 0.568493 0.5
47 3 0.273164 0.568535 0.5
60 3 0.306972 0.561568 0.5
44 3 0.326909 0.549822 0.5
40 2 0.610994 0.528339 0.5
4 1 0.640712 0.526766 0.5
45 3 0.680271 0.531118 0.5
63 4 0.648793 0.549765 0.5
51 3 0.116677 0.606543 0.5
26 2 0.619068 0.592147 0.5
20 1 0.673248 0.606845 0.5
71 4 0.030736 0.672129 0.5
41 3 0.181691 0.677488 0.5
42 3 0.428074 0.647484 0.5
7 1 0.517979 0.673311 0.5
75 4 0.10125 0.702745 0.5
14 1 0.307881 0.711829 0.5
77 4 0.288836 0.738244 0.5
59 3 0.606337 0.699744 0.5
70 4 0.873308 0.689546 0.5
16 1 0.964252 0.699799 0.5
73 4 0.0603187 0.775656 0.5
36 2 0.231993 0.785651 0.5
68 4 0.213708 0.765425 0.5
57 3 0.364789 0.773229 0.5
54 3 0.573735 0.767978 0.5
9 1 0.685783 0.762953 0.5
1 1 0.946115 0.753466 0.5
19 1 0.298668 0.802647 0.5
5 1 0.352534 0.836212 0.5
13 1 0.710367 0.818165 0.5
23 2 0.256179 0.845948 0.5
78 4 0.507639 0.884947 0.5
31 2 0.625338 0.85995 0.5
2 1 0.71592 0.861396 0.5
69 4 0.032303 0.916175 0.5
50 3 0.651614 0.912849 0.5
62 4 0.979825 0.916588 0.5
74 4 0.0385071 0.975605 0.5
56 3 0.387527 0.996512 0.5
46 3 0.458023 0.990437 0.5
25 2 0.676555 0.957151 0.5
ITEM: TIMESTEP
60
ITEM: NUMBER OF ATOMS
80
ITEM: BOX BOUNDS pp pp pp
-6.7915010083234382e+00 6.7915010083234382e+00
-6.7915010083234382e+00 6.7915010083234382e+00
-1.0000000000000001e-01 1.0000000000000001e-01
ITEM: ATOMS id type xs ys zs
58 3 0.0102881 0.00988297 0.5
24 2 0.354582 0.0217135 0.5
28 2 0.562395 0.0191133 0.5
65 4 0.595578 0.0494926 0.5
80 4 0.664723 0.0122308 0.5
34 2 0.920373 0.0102887 0.5
48 3 0.991394 0.0140813 0.5
12 1 0.0640756 0.0674697 0.5
29 2 0.96136 0.0976832 0.5
39 2 0.978849 0.058166 0.5
10 1 0.201728 0.124811 0.5
11 1 0.415599 0.108596 0.5
64 4 0.404611 0.158235 0.5
53 3 0.966714 0.144243 0.5
8 1 0.10533 0.167616 0.5
66 4 0.88488 0.184088 0.5
79 4 0.678442 0.249183 0.5
37 2 0.940416 0.230941 0.5
30 2 0.0362279 0.262135 0.5
33 2 0.258567 0.306805 0.5
55 3 0.72047 0.264554 0.5
15 1 0.994535 0.291096 0.5
52 3 0.030781 0.355362 0.5
3 1 0.144717 0.326862 0.5
72 4 0.19046 0.3567 0.5
38 2 0.224505 0.319914 0.5
18 1 0.992315 0.356412 0.5
22 2 0.747985 0.384148 0.5
17 1 0.975191 0.425246 0.5
61 4 0.954752 0.383284 0.5
76 4 0.146344 0.469206 0.5
6 1 0.215019 0.444041 0.5
49 3 0.235538 0.474838 0.5
21 2 0.307019 0.444287 0.5
32 2 0.296537 0.480652 0.5
35 2 0.550666 0.525515 0.5
27 2 0.881356 0.515968 0.5
67 4 0.925511 0.491325 0.5
43 3 0.133467 0.567386 0.5
47 3 0.271196 0.569043 0.5
60 3 0.306423 0.562369 0.5
44 3 0.329438 0.548543 0.5
40 2 0.605839 0.526131 0.5
4 1 0.640849 0.521829 0.5
45 3 0.684442 0.530192 0.5
63 4 0.650653 0.552803 0.5
51 3 0.116202 0.607651 0.5
26 2 0.616405 0.594675 0.5
20 1 0.675841 0.609407 0.5
71 4 0.0308539 0.672079 0.5
41 3 0.181691 0.677488 0.5
42 3 0.428072 0.647483 0.5
7 1 0.517973 0.67331 0.5
75 4 0.10125 0.702745 0.5
14 1 0.309234 0.709321 0.5
77 4 0.287405 0.739895 0.5
59 3 0.606345 0.699747 0.5
70 4 0.873308 0.689546 0.5
16 1 0.96495 0.697443 0.5
73 4 0.0603187 0.775656 0.5
36 2 0.232128 0.786163 0.5
68 4 0.21235 0.763949 0.5
57 3 0.365499 0.772192 0.5
54 3 0.573735 0.767978 0.5
9 1 0.684912 0.760839 0.5
1 1 0.9453 0.755873 0.5
19 1 0.29861 0.801697 0.5
5 1 0.354171 0.838155 0.5
13 1 0.710824 0.81678 0.5
23 2 0.255189 0.847813 0.5
78 4 0.507639 0.884947 0.5
31 2 0.624761 0.859486 0.5
2 1 0.716756 0.864754 0.5
69 4 0.032303 0.916175 0.5
50 3 0.651221 0.912462 0.5
62 4 0.979825 0.916588 0.5
74 4 0.038638 0.975461 0.5
56 3 0.389029 0.995357 0.5
46 3 0.458032 0.990436 0.5
25 2 0.677164 0.957844 0.5
ITEM: TIMESTEP
70
ITEM: NUMBER OF ATOMS
80
ITEM: BOX BOUNDS pp pp pp
-6.7069945676036786e+00 6.7069945676036786e+00
-6.7069945676036786e+00 6.7069945676036786e+00
-1.0000000000000001e-01 1.0000000000000001e-01
ITEM: ATOMS id type xs ys zs
58 3 0.013879 0.00789422 0.5
24 2 0.352782 0.0230836 0.5
28 2 0.561392 0.0181943 0.5
65 4 0.596582 0.0504117 0.5
80 4 0.664631 0.0126644 0.5
34 2 0.919779 0.00996065 0.5
48 3 0.988695 0.0133256 0.5
12 1 0.0648775 0.0677189 0.5
29 2 0.960305 0.0982181 0.5
39 2 0.978399 0.0589353 0.5
10 1 0.201909 0.124731 0.5
11 1 0.415957 0.107 0.5
64 4 0.404256 0.159837 0.5
53 3 0.96685 0.145901 0.5
8 1 0.105197 0.16781 0.5
66 4 0.884875 0.184083 0.5
79 4 0.677866 0.248972 0.5
37 2 0.940016 0.230509 0.5
30 2 0.038589 0.260285 0.5
33 2 0.261834 0.305542 0.5
55 3 0.721046 0.264765 0.5
15 1 0.992385 0.290571 0.5
52 3 0.0344179 0.355608 0.5
3 1 0.142955 0.326189 0.5
72 4 0.191204 0.357827 0.5
38 2 0.222256 0.320722 0.5
18 1 0.991005 0.355687 0.5
22 2 0.747985 0.384148 0.5
17 1 0.975341 0.429504 0.5
61 4 0.952478 0.382305 0.5
76 4 0.146184 0.46926 0.5
6 1 0.212155 0.440757 0.5
49 3 0.236831 0.477861 0.5
21 2 0.308652 0.440898 0.5
32 2 0.296592 0.484144 0.5
35 2 0.549288 0.525455 0.5
27 2 0.880574 0.516404 0.5
67 4 0.926283 0.490901 0.5
43 3 0.134042 0.566044 0.5
47 3 0.268816 0.569647 0.5
60 3 0.305835 0.563337 0.5
44 3 0.33245 0.547077 0.5
40 2 0.600074 0.523639 0.5
4 1 0.641144 0.515875 0.5
45 3 0.689306 0.529104 0.5
63 4 0.652717 0.556218 0.5
51 3 0.115627 0.608992 0.5
26 2 0.61321 0.59771 0.5
20 1 0.678956 0.612553 0.5
71 4 0.0310673 0.671992 0.5
41 3 0.181691 0.677488 0.5
42 3 0.428056 0.647479 0.5
7 1 0.517959 0.673305 0.5
75 4 0.10125 0.702745 0.5
14 1 0.310798 0.70622 0.5
77 4 0.285709 0.741721 0.5
59 3 0.606375 0.699756 0.5
70 4 0.873308 0.689546 0.5
16 1 0.965708 0.694658 0.5
73 4 0.0603187 0.775656 0.5
36 2 0.232131 0.786675 0.5
68 4 0.210736 0.762187 0.5
57 3 0.366465 0.770912 0.5
54 3 0.573735 0.767978 0.5
9 1 0.683825 0.758228 0.5
1 1 0.944329 0.758744 0.5
19 1 0.298582 0.80074 0.5
5 1 0.356187 0.840561 0.5
13 1 0.711469 0.815183 0.5
23 2 0.253978 0.85017 0.5
78 4 0.507639 0.884947 0.5
31 2 0.623916 0.858872 0.5
2 1 0.717901 0.868692 0.5
69 4 0.032303 0.916175 0.5
50 3 0.650698 0.912081 0.5
62 4 0.979825 0.916588 0.5
74 4 0.0388613 0.975208 0.5
56 3 0.390786 0.993985 0.5
46 3 0.458071 0.990433 0.5
25 2 0.677922 0.958675 0.5
ITEM: TIMESTEP
80
ITEM: NUMBER OF ATOMS
80
ITEM: BOX BOUNDS pp pp pp
-6.6989203765236498e+00 6.6989203765236498e+00
-6.6989203765236498e+00 6.6989203765236498e+00
-1.0000000000000001e-01 1.0000000000000001e-01
ITEM: ATOMS id type xs ys zs
58 3 0.0177652 0.00570089 0.5
24 2 0.350738 0.0246144 0.5
28 2 0.560238 0.0171382 0.5
65 4 0.597736 0.0514677 0.5
80 4 0.664506 0.0132302 0.5
34 2 0.918954 0.0095323 0.5
48 3 0.985783 0.0123638 0.5
12 1 0.0659048 0.0680224 0.5
29 2 0.959045 0.0988396 0.5
39 2 0.977909 0.0598493 0.5
10 1 0.202175 0.124612 0.5
11 1 0.416379 0.105185 0.5
64 4 0.40385 0.161672 0.5
53 3 0.967022 0.147838 0.5
8 1 0.105007 0.168116 0.5
66 4 0.884857 0.184068 0.5
79 4 0.677169 0.248717 0.5
37 2 0.939495 0.229934 0.5
30 2 0.0412905 0.258201 0.5
33 2 0.265496 0.304128 0.5
55 3 0.721743 0.26502 0.5
15 1 0.989966 0.289901 0.5
52 3 0.0385545 0.355956 0.5
3 1 0.140812 0.325415 0.5
72 4 0.192003 0.359205 0.5
38 2 0.219937 0.321525 0.5
18 1 0.98958 0.354888 0.5
22 2 0.747985 0.384148 0.5
17 1 0.975551 0.434295 0.5
61 4 0.949854 0.381258 0.5
76 4 0.145935 0.469353 0.5
6 1 0.208982 0.437056 0.5
49 3 0.238136 0.481221 0.5
21 2 0.310511 0.437103 0.5
32 2 0.296757 0.487968 0.5
35 2 0.547467 0.525415 0.5
27 2 0.879648 0.516921 0.5
67 4 0.927169 0.490434 0.5
43 3 0.1347 0.564509 0.5
47 3 0.266108 0.570317 0.5
60 3 0.305239 0.564471 0.5
44 3 0.335849 0.545498 0.5
40 2 0.593996 0.520993 0.5
4 1 0.641612 0.509133 0.5
45 3 0.69466 0.527927 0.5
63 4 0.654882 0.559853 0.5
51 3 0.114968 0.610527 0.5
26 2 0.609597 0.601098 0.5
20 1 0.682483 0.616135 0.5
71 4 0.0313909 0.671867 0.5
41 3 0.181691 0.677488 0.5
42 3 0.428018 0.647468 0.5
7 1 0.517936 0.673298 0.5
75 4 0.10125 0.702745 0.5
14 1 0.312521 0.702616 0.5
77 4 0.283809 0.743618 0.5
59 3 0.606433 0.699772 0.5
70 4 0.873308 0.689546 0.5
16 1 0.966481 0.691536 0.5
73 4 0.0603187 0.775656 0.5
36 2 0.231963 0.787181 0.5
68 4 0.20891 0.760183 0.5
57 3 0.367667 0.769431 0.5
54 3 0.573735 0.767978 0.5
9 1 0.68255 0.755213 0.5
1 1 0.943231 0.761991 0.5
19 1 0.29861 0.799818 0.5
5 1 0.358519 0.843369 0.5
13 1 0.7123 0.813432 0.5
23 2 0.252588 0.852968 0.5
78 4 0.507639 0.884947 0.5
31 2 0.622824 0.858111 0.5
2 1 0.719338 0.873042 0.5
69 4 0.032303 0.916175 0.5
50 3 0.650041 0.91173 0.5
62 4 0.979825 0.916588 0.5
74 4 0.0391827 0.974827 0.5
56 3 0.392726 0.992439 0.5
46 3 0.45816 0.990428 0.5
25 2 0.678804 0.959638 0.5
ITEM: TIMESTEP
90
ITEM: NUMBER OF ATOMS
80
ITEM: BOX BOUNDS pp pp pp
-6.7460329955649883e+00 6.7460329955649883e+00
-6.7460329955649883e+00 6.7460329955649883e+00
-1.0000000000000001e-01 1.0000000000000001e-01
ITEM: ATOMS id type xs ys zs
58 3 0.0218052 0.00340807 0.5
24 2 0.348511 0.0262495 0.5
28 2 0.558972 0.0159795 0.5
65 4 0.599001 0.0526264 0.5
80 4 0.664349 0.0139187 0.5
34 2 0.917905 0.00901511 0.5
48 3 0.982779 0.0112169 0.5
12 1 0.067109 0.068361 0.5
29 2 0.957595 0.0995435 0.5
39 2 0.977433 0.0608567 0.5
10 1 0.20252 0.124459 0.5
11 1 0.416857 0.103219 0.5
64 4 0.403405 0.163681 0.5
53 3 0.967234 0.150006 0.5
8 1 0.104768 0.168531 0.5
66 4 0.884822 0.184039 0.5
79 4 0.676375 0.248427 0.5
37 2 0.938864 0.229222 0.5
30 2 0.0442524 0.255959 0.5
33 2 0.269441 0.302605 0.5
55 3 0.722537 0.26531 0.5
15 1 0.987357 0.289109 0.5
52 3 0.0430522 0.356391 0.5
3 1 0.138346 0.324564 0.5
72 4 0.192815 0.360777 0.5
38 2 0.217635 0.322278 0.5
18 1 0.988097 0.354055 0.5
22 2 0.747985 0.384148 0.5
17 1 0.975844 0.439421 0.5
61 4 0.94695 0.380197 0.5
76 4 0.145596 0.469491 0.5
6 1 0.20568 0.433101 0.5
49 3 0.239408 0.484794 0.5
21 2 0.312491 0.433036 0.5
32 2 0.296993 0.49195 0.5
35 2 0.545232 0.525423 0.5
27 2 0.878607 0.517501 0.5
67 4 0.928117 0.489964 0.5
43 3 0.13542 0.56283 0.5
47 3 0.263171 0.571023 0.5
60 3 0.304666 0.565762 0.5
44 3 0.339521 0.543879 0.5
40 2 0.587868 0.518313 0.5
4 1 0.642245 0.501909 0.5
45 3 0.700314 0.526743 0.5
63 4 0.657039 0.563546 0.5
51 3 0.114248 0.612206 0.5
26 2 0.605711 0.60465 0.5
20 1 0.686287 0.619969 0.5
71 4 0.0318297 0.671707 0.5
41 3 0.181691 0.677488 0.5
42 3 0.427958 0.64745 0.5
7 1 0.517906 0.673288 0.5
75 4 0.10125 0.702745 0.5
14 1 0.314348 0.698639 0.5
77 4 0.281769 0.745491 0.5
59 3 0.606506 0.699786 0.5
70 4 0.873308 0.689546 0.5
16 1 0.967229 0.688177 0.5
73 4 0.0603187 0.775656 0.5
36 2 0.231606 0.787684 0.5
68 4 0.206922 0.75799 0.5
57 3 0.369059 0.767804 0.5
54 3 0.573735 0.767978 0.5
9 1 0.681131 0.751899 0.5
1 1 0.942045 0.765511 0.5
19 1 0.298721 0.798961 0.5
5 1 0.36108 0.846491 0.5
13 1 0.713295 0.811594 0.5
23 2 0.251083 0.856127 0.5
78 4 0.507639 0.884947 0.5
31 2 0.62154 0.857213 0.5
2 1 0.721026 0.877642 0.5
69 4 0.032303 0.916175 0.5
50 3 0.649258 0.911421 0.5
62 4 0.979825 0.916588 0.5
74 4 0.0396023 0.974305 0.5
56 3 0.394768 0.990768 0.5
46 3 0.45831 0.99042 0.5
25 2 0.679784 0.960722 0.5
ITEM: TIMESTEP
100
ITEM: NUMBER OF ATOMS
80
ITEM: BOX BOUNDS pp pp pp
-6.8208790139630082e+00 6.8208790139630082e+00
-6.8208790139630082e+00 6.8208790139630082e+00
-1.0000000000000001e-01 1.0000000000000001e-01
ITEM: ATOMS id type xs ys zs
58 3 0.0258812 0.00111703 0.5
24 2 0.346161 0.0279422 0.5
28 2 0.557631 0.0147518 0.5
65 4 0.600343 0.0538542 0.5
80 4 0.664159 0.0147162 0.5
34 2 0.916648 0.00842556 0.5
48 3 0.979767 0.00990373 0.5
12 1 0.0684477 0.068725 0.5
29 2 0.955964 0.100328 0.5
39 2 0.977021 0.0618991 0.5
10 1 0.202929 0.124277 0.5
11 1 0.417382 0.101158 0.5
64 4 0.402934 0.165807 0.5
53 3 0.967487 0.152352 0.5
8 1 0.104496 0.169036 0.5
66 4 0.884768 0.183994 0.5
79 4 0.675508 0.24811 0.5
37 2 0.938131 0.228387 0.5
30 2 0.0473974 0.253623 0.5
33 2 0.273572 0.301012 0.5
55 3 0.723404 0.265627 0.5
15 1 0.984642 0.288224 0.5
52 3 0.0477837 0.356876 0.5
3 1 0.135624 0.32366 0.5
72 4 0.193605 0.362476 0.5
38 2 0.215411 0.322949 0.5
18 1 0.986607 0.35324 0.5
22 2 0.747985 0.384148 0.5
17 1 0.976232 0.444707 0.5
61 4 0.943834 0.379172 0.5
76 4 0.145178 0.469679 0.5
6 1 0.202397 0.429047 0.5
49 3 0.240602 0.488474 0.5
21 2 0.314504 0.428813 0.5
32 2 0.297267 0.495947 0.5
35 2 0.542633 0.525502 0.5
27 2 0.877483 0.518128 0.5
67 4 0.929077 0.489523 0.5
43 3 0.136181 0.561056 0.5
47 3 0.260072 0.571742 0.5
60 3 0.30414 0.567193 0.5
44 3 0.343391 0.542266 0.5
40 2 0.581871 0.515669 0.5
4 1 0.643006 0.49447 0.5
45 3 0.706103 0.525627 0.5
63 4 0.659136 0.567174 0.5
51 3 0.113488 0.613981 0.5
26 2 0.601693 0.608203 0.5
20 1 0.690254 0.62391 0.5
71 4 0.0323823 0.67152 0.5
41 3 0.181691 0.677488 0.5
42 3 0.427881 0.647428 0.5
7 1 0.517869 0.673276 0.5
75 4 0.10125 0.702745 0.5
14 1 0.316233 0.694423 0.5
77 4 0.279642 0.747259 0.5
59 3 0.606572 0.699786 0.5
70 4 0.873308 0.689546 0.5
16 1 0.967919 0.684671 0.5
73 4 0.0603187 0.775656 0.5
36 2 0.231055 0.788191 0.5
68 4 0.204817 0.755652 0.5
57 3 0.370591 0.76608 0.5
54 3 0.573735 0.767978 0.5
9 1 0.679605 0.748366 0.5
1 1 0.940802 0.769204 0.5
19 1 0.298942 0.798182 0.5
5 1 0.363798 0.849836 0.5
13 1 0.714424 0.809728 0.5
23 2 0.249508 0.859562 0.5
78 4 0.507639 0.884947 0.5
31 2 0.620136 0.856192 0.5
2 1 0.72291 0.882375 0.5
69 4 0.032303 0.916175 0.5
50 3 0.648364 0.911156 0.5
62 4 0.979825 0.916588 0.5
74 4 0.0401159 0.973624 0.5
56 3 0.396846 0.989018 0.5
46 3 0.45853 0.990413 0.5
25 2 0.680833 0.96191 0.5
ITEM: TIMESTEP
110
ITEM: NUMBER OF ATOMS
80
ITEM: BOX BOUNDS pp pp pp
-6.8930236884865526e+00 6.8930236884865526e+00
-6.8930236884865526e+00 6.8930236884865526e+00
-1.0000000000000001e-01 1.0000000000000001e-01
ITEM: ATOMS id type xs ys zs
58 3 0.0299148 -0.00108872 0.5
24 2 0.343734 0.0296609 0.5
28 2 0.556244 0.0134811 0.5
65 4 0.60173 0.0551248 0.5
80 4 0.663937 0.0156119 0.5
34 2 0.915202 0.0077801 0.5
48 3 0.976802 0.0084386 0.5
12 1 0.0698864 0.0691082 0.5
29 2 0.954157 0.101195 0.5
39 2 0.976725 0.062922 0.5
10 1 0.203385 0.124073 0.5
11 1 0.41794 0.0990448 0.5
64 4 0.402447 0.168004 0.5
53 3 0.967787 0.154833 0.5
8 1 0.104214 0.1696 0.5
66 4 0.884696 0.183933 0.5
79 4 0.674588 0.247773 0.5
37 2 0.937301 0.227441 0.5
30 2 0.0506613 0.251251 0.5
33 2 0.277821 0.299376 0.5
55 3 0.724324 0.265964 0.5
15 1 0.981887 0.287269 0.5
52 3 0.0526388 0.35738 0.5
3 1 0.132713 0.322719 0.5
72 4 0.194353 0.364244 0.5
38 2 0.2133 0.323513 0.5
18 1 0.985149 0.352493 0.5
22 2 0.747985 0.384148 0.5
17 1 0.97672 0.450022 0.5
61 4 0.940556 0.378222 0.5
76 4 0.14469 0.469919 0.5
6 1 0.19919 0.425006 0.5
49 3 0.241676 0.492188 0.5
21 2 0.316516 0.424515 0.5
32 2 0.297575 0.499872 0.5
35 2 0.539721 0.525673 0.5
27 2 0.876299 0.518789 0.5
67 4 0.930006 0.489134 0.5
43 3 0.136966 0.559223 0.5
47 3 0.256848 0.572465 0.5
60 3 0.303676 0.568756 0.5
44 3 0.347418 0.540683 0.5
40 2 0.576101 0.513075 0.5
4 1 0.643862 0.486964 0.5
45 3 0.711918 0.524606 0.5
63 4 0.661146 0.570662 0.5
51 3 0.112702 0.615814 0.5
26 2 0.597648 0.611674 0.5
20 1 0.694304 0.627898 0.5
71 4 0.0330455 0.671311 0.5
41 3 0.181691 0.677488 0.5
42 3 0.427794 0.647404 0.5
7 1 0.517822 0.673266 0.5
75 4 0.10125 0.702745 0.5
14 1 0.318145 0.69008 0.5
77 4 0.277465 0.748867 0.5
59 3 0.606612 0.699764 0.5
70 4 0.873308 0.689546 0.5
16 1 0.968529 0.681086 0.5
73 4 0.0603187 0.775656 0.5
36 2 0.23031 0.788717 0.5
68 4 0.202625 0.7532 0.5
57 3 0.372221 0.764302 0.5
54 3 0.573735 0.767978 0.5
9 1 0.677999 0.744664 0.5
1 1 0.939529 0.772998 0.5
19 1 0.2993 0.797486 0.5
5 1 0.366631 0.853327 0.5
13 1 0.715657 0.807878 0.5
23 2 0.247889 0.863207 0.5
78 4 0.507639 0.884947 0.5
31 2 0.618678 0.85506 0.5
2 1 0.724943 0.887166 0.5
69 4 0.032303 0.916175 0.5
50 3 0.647374 0.910934 0.5
62 4 0.979825 0.916588 0.5
74 4 0.0407154 0.97277 0.5
56 3 0.398907 0.987221 0.5
46 3 0.458823 0.990408 0.5
25 2 0.681931 0.963191 0.5
ITEM: TIMESTEP
120
ITEM: NUMBER OF ATOMS
80
ITEM: BOX BOUNDS pp pp pp
-6.9374793790015099e+00 6.9374793790015099e+00
-6.9374793790015099e+00 6.9374793790015099e+00
-1.0000000000000001e-01 1.0000000000000001e-01
ITEM: ATOMS id type xs ys zs
58 3 0.0338731 0.996847 0.5
24 2 0.341259 0.0313894 0.5
28 2 0.554826 0.0121833 0.5
65 4 0.603148 0.0564226 0.5
80 4 0.66368 0.016602 0.5
34 2 0.913574 0.00709152 0.5
48 3 0.973915 0.00682651 0.5
12 1 0.0714038 0.0695062 0.5
29 2 0.952162 0.102155 0.5
39 2 0.97658 0.0638844 0.5
10 1 0.203876 0.123853 0.5
11 1 0.418526 0.0969012 0.5
64 4 0.40195 0.170247 0.5
53 3 0.968142 0.157425 0.5
8 1 0.103944 0.170195 0.5
66 4 0.884602 0.183855 0.5
79 4 0.673629 0.247422 0.5
37 2 0.936371 0.226393 0.5
30 2 0.0540045 0.248877 0.5
33 2 0.282155 0.297709 0.5
55 3 0.725283 0.266314 0.5
15 1 0.979123 0.286239 0.5
52 3 0.0575437 0.357908 0.5
3 1 0.129679 0.321739 0.5
72 4 0.195047 0.366032 0.5
38 2 0.211314 0.323941 0.5
18 1 0.983752 0.351861 0.5
22 2 0.747985 0.384148 0.5
17 1 0.977317 0.455288 0.5
61 4 0.937138 0.377378 0.5
76 4 0.144145 0.470209 0.5
6 1 0.196064 0.421068 0.5
49 3 0.242603 0.495895 0.5
21 2 0.318518 0.420184 0.5
32 2 0.297924 0.503681 0.5
35 2 0.536501 0.525966 0.5
27 2 0.875069 0.519474 0.5
67 4 0.930867 0.488814 0.5