LAMMPS data file via write_data, version 23 Jun 2022, timestep = 10000

80 atoms
4 atom types

-4.825181408831731 4.825181408831731 xlo xhi
-4.825181408831731 4.825181408831731 ylo yhi
-0.1 0.1 zlo zhi

Atoms # sphere

35 2 1.3 0.4551661356395083 -4.428417586475676 -4.3813111880489135 0 0 0 0
60 3 1 1 -3.2427058305117447 -4.191761968947333 0 0 1 0
65 4 0.7 2.915451895043732 -3.6476305711982424 4.748773619450922 0 1 -1 0
46 3 1 1 -2.295353621067435 -4.709027782242062 0 0 1 0
58 3 1 1 -1.3831810856486468 -4.286076147941982 0 0 0 0
69 4 0.7 2.915451895043732 0.5414140879517442 -4.411084169643305 0 0 0 0
52 3 1 1 1.0473579944333284 -3.8842368976526087 0 0 0 0
8 1 1.6 0.2441406249999999 2.8822283935971402 -4.578455687963346 0 0 1 0
41 3 1 1 4.0400397876192295 -4.103909145891331 0 -1 0 0
1 1 1.6 0.2441406249999999 -3.7459761186113543 -3.0768565980990896 0 1 0 0
11 1 1.6 0.2441406249999999 -2.1186795232443587 -3.3848422025830196 0 1 1 0
73 4 0.7 2.915451895043732 -1.1172423950376067 -3.1836676903163674 0 0 0 0
22 2 1.3 0.4551661356395083 -0.23812551546511784 -3.6936553363543214 0 0 1 0
39 2 1.3 0.4551661356395083 0.6453666624615941 -2.8701339604488867 0 0 0 0
48 3 1 1 1.9410107867384525 -3.797871892377242 0 0 0 0
12 1 1.6 0.2441406249999999 3.3348600018582752 -3.1216716121423973 0 0 0 0
49 3 1 1 4.569029615218455 -3.5619897840183947 0 0 1 0
51 3 1 1 -3.940957649102417 -1.8098831270336992 0 1 0 0
3 1 1.6 0.2441406249999999 -2.582999177833329 -1.9296768566136366 0 1 0 0
54 3 1 1 -1.5273042250656204 -2.461865236903939 0 0 0 0
47 3 1 1 -0.5021471844039658 -2.70530932598652 0 0 0 0
44 3 1 1 -1.343094466310427 -1.3555444808049133 0 0 0 0
70 4 0.7 2.915451895043732 -0.707797660121952 -2.045253516396144 0 0 0 0
56 3 1 1 0.05077181948435072 -2.1399924050538495 0 0 0 0
13 1 1.6 0.2441406249999999 1.9874644226360827 -2.405988621110338 0 0 0 0
26 2 1.3 0.4551661356395083 3.2091514989399146 -1.8015955088223503 0 0 0 0
16 1 1.6 0.2441406249999999 4.557292600628945 -2.206534303550119 0 0 0 0
50 3 1 1 -4.083664579867818 -0.6660069545875418 0 0 0 0
80 4 0.7 2.915451895043732 -3.3677404066577967 -1.1927485826777424 0 0 0 0
75 4 0.7 2.915451895043732 -1.304119835200575 -0.4862110809764637 0 0 0 0
5 1 1.6 0.2441406249999999 -0.26768191868559565 -0.9219317977065824 0 0 0 0
34 2 1.3 0.4551661356395083 0.9839984938593034 -1.3490170135271162 0 0 0 0
61 4 0.7 2.915451895043732 0.41392172038400243 -0.6274288276912339 0 0 0 0
29 2 1.3 0.4551661356395083 2.2077355223655353 -1.0485721946396969 0 0 0 0
23 2 1.3 0.4551661356395083 4.565063157079913 -0.9682959876083039 0 -1 0 0
9 1 1.6 0.2441406249999999 4.803515394837739 0.3459001488526807 0 0 0 0
72 4 0.7 2.915451895043732 -3.4918957058939717 -0.022406950281146365 0 1 0 0
7 1 1.6 0.2441406249999999 -2.266855179256238 -0.5492328480283284 0 0 0 0
36 2 1.3 0.4551661356395083 -1.4343929717700585 0.32274639559283536 0 0 0 0
67 4 0.7 2.915451895043732 -0.5794049804299153 0.018750611340265344 0 0 0 0
32 2 1.3 0.4551661356395083 1.3910789267259984 -0.16259151346015877 0 0 0 0
30 2 1.3 0.4551661356395083 2.523219907164906 0.2986272120234901 0 0 0 0
40 2 1.3 0.4551661356395083 3.5194639472055256 -0.7649529351300828 0 0 0 0
78 4 0.7 2.915451895043732 3.767715214295955 -0.05595947650761701 0 -1 0 0
33 2 1.3 0.4551661356395083 -2.8792956123984563 0.6324965298162057 0 0 0 0
55 3 1 1 -3.802760035776097 0.7007475409068826 0 0 0 0
57 3 1 1 -2.0575508121985275 1.2199234955649247 0 0 0 0
71 4 0.7 2.915451895043732 -0.9604359272350811 1.2289313291230304 0 0 0 0
79 4 0.7 2.915451895043732 -0.689558923966624 0.849442458824079 0 0 0 0
10 1 1.6 0.2441406249999999 0.2533420877318395 0.7156102783168183 0 0 0 0
43 3 1 1 -0.45517228419873046 1.866009197194975 0 0 0 0
27 2 1.3 0.4551661356395083 1.62992760613721 1.0873470057908738 0 0 0 0
66 4 0.7 2.915451895043732 3.4484360759103394 0.5330563110726612 0 0 1 0
64 4 0.7 2.915451895043732 2.9671818164125883 1.4304158382396537 0 0 0 0
6 1 1.6 0.2441406249999999 4.0933257234746625 1.6364967137273112 0 -1 0 0
53 3 1 1 -4.40612228835208 1.5132888397073065 0 1 0 0
63 4 0.7 2.915451895043732 -3.3694471221218203 1.485008394672188 0 0 0 0
74 4 0.7 2.915451895043732 -3.5604690654502487 2.1346129860490537 0 0 0 0
37 2 1.3 0.4551661356395083 -2.655698198682935 2.0761456784365873 0 1 0 0
28 2 1.3 0.4551661356395083 -1.4115748159353485 2.0408588306933497 0 1 0 0
18 1 1.6 0.2441406249999999 0.6952271585996437 2.1066768281937414 0 0 0 0
76 4 0.7 2.915451895043732 1.8079783770561786 1.9496349380042517 0 0 0 0
68 4 0.7 2.915451895043732 1.7011559756512122 2.555362102366251 0 0 0 0
17 1 1.6 0.2441406249999999 2.753906171218735 2.415651528288903 0 0 0 0
31 2 1.3 0.4551661356395083 -4.4889191424293475 2.552933165186843 0 1 0 0
20 1 1.6 0.2441406249999999 -3.1280440754033596 3.1597017222349404 0 0 0 0
59 3 1 1 -1.8578833056931914 2.921320065633118 0 0 -1 0
15 1 1.6 0.2441406249999999 -0.6243677645374381 2.9741721676370645 0 0 0 0
21 2 1.3 0.4551661356395083 0.7930308196304052 3.4266723538059685 0 0 0 0
45 3 1 1 1.9713610274469495 3.3904178807821745 0 0 0 0
2 1 1.6 0.2441406249999999 4.105153377821975 3.180307497433211 0 0 -1 0
4 1 1.6 0.2441406249999999 -4.243065218947339 3.956243957727211 0 0 0 0
42 3 1 1 -2.89094582122787 4.3205563387872035 0 0 -1 0
14 1 1.6 0.2441406249999999 -1.5340266755659782 4.0474338614033 0 0 0 0
25 2 1.3 0.4551661356395083 -0.3842208007829315 4.763556311094551 0 0 0 0
77 4 0.7 2.915451895043732 0.521138414585165 4.359989293488609 0 -1 -1 0
62 4 0.7 2.915451895043732 0.014646215450642153 3.949841121859923 0 0 0 0
19 1 1.6 0.2441406249999999 1.5237114063910466 4.667870752658691 0 0 0 0
24 2 1.3 0.4551661356395083 2.907566288735226 3.780631692631924 0 -1 0 0
38 2 1.3 0.4551661356395083 4.19876874808087 4.459204748078036 0 -1 -1 0

Velocities

35 -0.14588626123153298 0.12522256155903908 0 0 0 0
60 -0.001538300512806838 0.06519952548405583 0 0 0 0
65 0.19626694171343617 -0.01937455755337356 0 0 0 0
46 0.16337330443861042 -0.03784471452191304 0 0 0 0
58 -0.10149390499117042 0.014413918353588302 0 0 0 0
69 0.14707946242238412 -0.11328688593244457 0 0 0 0
52 0.08011616131120851 -0.04929584258957863 0 0 0 0
8 -0.025195724517696343 -0.02481301168873781 0 0 0 0
41 0.11146301736083278 -0.029452722735871958 0 0 0 0
1 -0.05403619435112983 0.08963621614342426 0 0 0 0
11 0.0015101306506009708 0.04690470593916133 0 0 0 0
73 -0.074926621175673 -0.07687216451751093 0 0 0 0
22 -0.06899664763800657 -0.032295865668833676 0 0 0 0
39 -0.043539033643177884 0.06363032225867216 0 0 0 0
48 -0.017731437178735127 0.026319846861045496 0 0 0 0
12 -0.03829842441489459 0.2304965768992318 0 0 0 0
49 0.09936533747278913 0.026799360150449182 0 0 0 0
51 0.10797026354083678 -0.07725968508904024 0 0 0 0
3 -0.015969398002029823 0.14840781905250722 0 0 0 0
54 -0.026479901442258404 0.07343721177899486 0 0 0 0
47 -0.00434245117865154 0.11870105649898535 0 0 0 0
44 0.11861096624738815 0.008688773413288005 0 0 0 0
70 0.043513664895285235 -0.023084647623597833 0 0 0 0
56 0.0365247599047802 0.09395488026585014 0 0 0 0
13 -0.12380749497097918 0.06753560436485757 0 0 0 0
26 0.20266298077082687 -0.10085665249345432 0 0 0 0
16 -0.023412980324222014 -0.17394544066940967 0 0 0 0
50 -0.028246451277681533 -0.055298665749786376 0 0 0 0
80 0.12155713726125325 -0.03303610685453072 0 0 0 0
75 -0.17845707044842674 -0.1013657105575364 0 0 0 0
5 0.06789466104915896 0.00042589535439929824 0 0 0 0
34 -0.14297266770528638 0.12701811159218243 0 0 0 0
61 -0.07154113081820855 0.07361953236729225 0 0 0 0
29 -0.14009424433687964 0.06545191837037444 0 0 0 0
23 -1.076632469624648e-05 -0.13931051946975587 0 0 0 0
9 -0.004510040165575805 0.06138584948373867 0 0 0 0
72 0.19264479205130136 0.2562779255658854 0 0 0 0
7 0.10446248219112285 -0.22724940640966185 0 0 0 0
36 -0.09537342836809233 -0.08209129978321612 0 0 0 0
67 -0.17695099568621797 -0.09982409145516184 0 0 0 0
32 -0.057662474696912935 0.03857655383766959 0 0 0 0
30 0.10198298397537099 -0.05153509370484092 0 0 0 0
40 0.010296240779843405 -0.06010726388487238 0 0 0 0
78 -0.0843892306017134 -0.06758071110310598 0 0 0 0
33 0.03781930546431417 0.030072873511657213 0 0 0 0
55 -0.007294533601383347 -0.15960475692900541 0 0 0 0
57 0.22164919696764002 0.08271897540305742 0 0 0 0
71 -0.07995559253393567 0.06414271202996635 0 0 0 0
79 -0.05465075311844428 -0.11841396827236464 0 0 0 0
10 -0.015352135209840368 0.04559681372940806 0 0 0 0
43 0.13481547010002284 0.00734378340615969 0 0 0 0
27 0.0293389255547722 0.10228669237440131 0 0 0 0
66 -0.007741710810666657 0.05369394949453531 0 0 0 0
64 0.06516281843554508 0.28137234211835377 0 0 0 0
6 -0.05291230004703208 0.018172856226331146 0 0 0 0
53 0.030453198464048963 0.08135637272973034 0 0 0 0
63 -0.02292514080087195 -0.1359342697005866 0 0 0 0
74 -0.022926474517971484 -0.1609683084583198 0 0 0 0
37 0.027889521777881943 0.11211554352374742 0 0 0 0
28 -0.08346701305692837 -0.2112309069998569 0 0 0 0
18 -0.011564642550354295 -0.027730017333394318 0 0 0 0
76 0.026828382300528694 -0.0629880206107322 0 0 0 0
68 -0.23116403360812382 0.019152281006123567 0 0 0 0
17 -0.07615513378623026 -0.04013788283728685 0 0 0 0
31 0.003183478688361676 -0.019718293765187456 0 0 0 0
20 0.06754096399116177 -0.012903058838671181 0 0 0 0
59 -0.20699799294598636 0.008760423746524445 0 0 0 0
15 0.011627127839982656 0.10830532363130142 0 0 0 0
21 -0.13405075142773784 0.018998979168265807 0 0 0 0
45 -0.13076026467645213 -0.09039972986164521 0 0 0 0
2 -0.18926806454280656 0.009491044631937983 0 0 0 0
4 0.19714616079626632 -0.06649721744710539 0 0 0 0
42 0.003459908020981142 0.05030017531823434 0 0 0 0
14 0.08368569349566517 -0.08128369168154578 0 0 0 0
25 -0.09268859884920325 0.056732564858462745 0 0 0 0
77 0.020935446696831395 -0.054206112941297915 0 0 0 0
62 0.00668247798154943 -0.07042635068043442 0 0 0 0
19 0.09912791589840335 0.10796125539049008 0 0 0 0
24 0.0051102666334692185 0.01972851330510023 0 0 0 0
38 0.18598686494216124 -0.1121839947848077 0 0 0 0
