LAMMPS data file.

     42 atoms
     84 bonds
      0 angles
      0 dihedrals
      0 impropers
      1 atom types
     84 bond types
      0 angle types
      0 dihedral types
      0 improper types
  -4.825181   4.825181 xlo xhi
  -4.825181   4.825181 ylo yhi
  -0.100000   0.100000 zlo zhi

Masses # ['atom_id', 'mass']

1 10000.0

Atoms # ['atomID', 'moleculeID', 'atomType', 'charge', 'x', 'y', 'z']

      8      1      1   0.000000   2.882228  -4.578456   0.000000
     41      1      1   0.000000   4.040040  -4.103909   0.000000
     12      1      1   0.000000   3.334860  -3.121672   0.000000
     13      1      1   0.000000   1.987464  -2.405989   0.000000
     26      1      1   0.000000   3.209151  -1.801596   0.000000
     75      1      1   0.000000  -1.304120  -0.486211   0.000000
      5      1      1   0.000000  -0.267682  -0.921932   0.000000
     34      1      1   0.000000   0.983998  -1.349017   0.000000
     29      1      1   0.000000   2.207736  -1.048572   0.000000
      7      1      1   0.000000  -2.266855  -0.549233   0.000000
     36      1      1   0.000000  -1.434393   0.322746   0.000000
     67      1      1   0.000000  -0.579405   0.018751   0.000000
     32      1      1   0.000000   1.391079  -0.162592   0.000000
     33      1      1   0.000000  -2.879296   0.632497   0.000000
     57      1      1   0.000000  -2.057551   1.219923   0.000000
     71      1      1   0.000000  -0.960436   1.228931   0.000000
     79      1      1   0.000000  -0.689559   0.849442   0.000000
     10      1      1   0.000000   0.253342   0.715610   0.000000
     43      1      1   0.000000  -0.455172   1.866009   0.000000
     27      1      1   0.000000   1.629928   1.087347   0.000000
      6      1      1   0.000000   4.093326   1.636497   0.000000
     63      1      1   0.000000  -3.369447   1.485008   0.000000
     74      1      1   0.000000  -3.560469   2.134613   0.000000
     37      1      1   0.000000  -2.655698   2.076146   0.000000
     28      1      1   0.000000  -1.411575   2.040859   0.000000
     18      1      1   0.000000   0.695227   2.106677   0.000000
     76      1      1   0.000000   1.807978   1.949635   0.000000
     68      1      1   0.000000   1.701156   2.555362   0.000000
     17      1      1   0.000000   2.753906   2.415652   0.000000
     31      1      1   0.000000  -4.488919   2.552933   0.000000
     20      1      1   0.000000  -3.128044   3.159702   0.000000
     59      1      1   0.000000  -1.857883   2.921320   0.000000
     15      1      1   0.000000  -0.624368   2.974172   0.000000
     21      1      1   0.000000   0.793031   3.426672   0.000000
      2      1      1   0.000000   4.105153   3.180307   0.000000
      4      1      1   0.000000  -4.243065   3.956244   0.000000
     14      1      1   0.000000  -1.534027   4.047434   0.000000
     25      1      1   0.000000  -0.384221   4.763556   0.000000
     77      1      1   0.000000   0.521138   4.359989   0.000000
     62      1      1   0.000000   0.014646   3.949841   0.000000
     19      1      1   0.000000   1.523711   4.667871   0.000000
     38      1      1   0.000000   4.198769   4.459205   0.000000

Bond Coeffs # ['bondID', 'bondCoeff', 'd']

      1   0.538268   1.363015
      2   2.643290   0.615074
      3   1.074309   0.964796
      4   1.018273   0.990987
      5   0.532552   1.370311
      6   1.217690   0.906216
      7   0.656016   1.234647
      8   0.795765   1.121005
      9   0.683962   1.209160
     10   0.688758   1.204944
     11   0.416471   1.549557
     12   1.102568   0.952351
     13   0.636992   1.252948
     14   0.571721   1.322538
     15   0.429613   1.525673
     16   0.435226   1.515802
     17   1.164306   0.926758
     18   0.469411   1.459565
     19   0.414840   1.552600
     20   4.600109   0.466247
     21   0.899320   1.054491
     22   0.544993   1.354579
     23   2.181142   0.677108
     24   0.838046   1.092361
     25   0.824259   1.101459
     26   1.034099   0.983374
     27   0.728324   1.171757
     28   0.723935   1.175304
     29   1.136896   0.937864
     30   1.057890   0.972254
     31   0.608146   1.282319
     32   0.484101   1.437249
     33   0.715715   1.182034
     34   1.214450   0.907424
     35   0.916677   1.044460
     36   0.645541   1.244624
     37   1.026269   0.987119
     38   2.354294   0.651733
     39   0.848118   1.085855
     40   0.570791   1.323614
     41   0.638683   1.251288
     42   0.505211   1.406901
     43   0.886680   1.061980
     44   0.568698   1.326048
     45   0.791104   1.124302
     46   1.201654   0.912243
     47   0.617515   1.272555
     48   0.482051   1.440301
     49   0.583597   1.309012
     50   0.583597   1.309012
     51   1.489462   0.819380
     52   0.629802   1.260079
     53   0.400982   1.579202
     54   0.497806   1.417326
     55   1.159081   0.928845
     56   0.497806   1.417326
     57   0.564472   1.331002
     58   0.598754   1.292337
     59   1.058194   0.972114
     60   0.491841   1.425895
     61   0.522822   1.383003
     62   0.492677   1.424684
     63   0.670795   1.220970
     64   0.635599   1.254321
     65   0.916406   1.044615
     66   1.289919   0.880479
     67   0.909138   1.048782
     68   0.791842   1.123778
     69   0.662538   1.228555
     70   0.980070   1.010116
     71   0.662538   1.228555
     72   0.419553   1.543856
     73   0.504864   1.407385
     74   0.828291   1.098774
     75   0.504864   1.407385
     76   0.828291   1.098774
     77   0.688070   1.205546
     78   1.216502   0.906658
     79   1.512494   0.813117
     80   0.528793   1.375172
     81   0.429720   1.525482
     82   0.807886   1.112564
     83   0.435226   1.515802
     84   1.017769   0.991232

Bonds # ['ID', 'type', 'atom1', 'atom2']

         1         1        13        26
         2         2        76        68
         3         3        75         7
         4         4         5        67
         5         5        20         4
         6         6        25        62
         7         7        59        15
         8         8        43        15
         9         9        41        12
        10        10        29        32
        11        11         6        17
        12        12        79        10
        13        13        26        29
        14        14         5        34
        15        15        12        13
        16        16         4         2
        17        17        63        37
        18        18        10        18
        19        19        17         2
        20        20        71        79
        21        21        76        17
        22        22        14        25
        23        23        63        74
        24        24        36        57
        25        25        18        68
        26        26        33        63
        27        27        59        14
        28        28        43        18
        29        29        21        62
        30        30        43        28
        31        31         2        38
        32        32        32        10
        33        33        37        20
        34        34        36        67
        35        35        57        37
        36        36        37        28
        37        37        28        59
        38        38        77        62
        39        39        67        10
        40        40        18        21
        41        41         8        41
        42        42        15        14
        43        43        68        17
        44        44        12        26
        45        45        75         5
        46        46        36        79
        47        47        32        27
        48        48        21        19
        49        49         4        38
        50        50        38         4
        51        51        75        36
        52        52        34        29
        53        53        18        15
        54        54         8        19
        55        55        71        28
        56        56        19         8
        57        57         7        33
        58        58        20        59
        59        59        21        77
        60        60        10        27
        61        61        27        18
        62        62        31         4
        63        63        28        15
        64        64        34        32
        65        65        57        28
        66        66        27        76
        67        67        77        19
        68        68        18        76
        69        69         2        31
        70        70        33        57
        71        71        31         2
        72        72         6         2
        73        73        31         6
        74        74        41        38
        75        75         6        31
        76        76        38        41
        77        77         7        36
        78        78        74        37
        79        79        71        43
        80        80        13        29
        81        81         8        12
        82        82        74        20
        83        83         2         4
        84        84        25        77
