ITEM: TIMESTEP
0
ITEM: NUMBER OF ATOMS
80
ITEM: BOX BOUNDS pp pp pp
-1.0000000000000000e+01 1.0000000000000000e+01
-1.0000000000000000e+01 1.0000000000000000e+01
-1.0000000000000001e-01 1.0000000000000001e-01
ITEM: ATOMS id type xs ys zs
59 3 0.191233 0.0523558 0.5
47 3 0.255551 0.0476647 0.5
2 1 0.598085 0.00828682 0.5
34 2 0.586661 0.00936215 0.5
52 3 0.60011 0.0457615 0.5
70 4 0.64878 0.0499249 0.5
1 1 0.815199 0.0494556 0.5
3 1 0.880229 0.0155876 0.5
71 4 0.433278 0.0968376 0.5
73 4 0.422091 0.0867002 0.5
56 3 0.533889 0.0700687 0.5
69 4 0.721192 0.0735421 0.5
41 3 0.10181 0.125678 0.5
16 1 0.811873 0.156563 0.5
77 4 0.0758129 0.187199 0.5
32 2 0.442624 0.18895 0.5
44 3 0.0216732 0.262274 0.5
55 3 0.249197 0.250947 0.5
7 1 0.813962 0.259927 0.5
65 4 0.999479 0.236908 0.5
23 2 0.217427 0.30124 0.5
42 3 0.443167 0.310709 0.5
33 2 0.621366 0.291281 0.5
53 3 0.85246 0.296733 0.5
58 3 0.930998 0.286975 0.5
26 2 0.973004 0.281277 0.5
35 2 0.122886 0.33905 0.5
38 2 0.278058 0.325409 0.5
54 3 0.271753 0.345834 0.5
30 2 0.628211 0.343565 0.5
43 3 0.714069 0.35844 0.5
9 1 0.959382 0.331574 0.5
39 2 0.356481 0.380268 0.5
48 3 0.637258 0.401014 0.5
13 1 0.783209 0.396538 0.5
80 4 0.470071 0.489093 0.5
40 2 0.635836 0.495666 0.5
8 1 0.934104 0.482253 0.5
50 3 0.257425 0.545224 0.5
36 2 0.274206 0.578677 0.5
76 4 0.53243 0.553576 0.5
51 3 0.747461 0.578895 0.5
6 1 0.256121 0.62646 0.5
18 1 0.327638 0.619895 0.5
68 4 0.965942 0.58073 0.5
78 4 0.331866 0.674453 0.5
64 4 0.420163 0.681368 0.5
57 3 0.527855 0.657956 0.5
27 2 0.963567 0.668641 0.5
67 4 0.0265787 0.70776 0.5
4 1 0.129514 0.734527 0.5
75 4 0.305688 0.689951 0.5
20 1 0.35793 0.72246 0.5
61 4 0.386547 0.688086 0.5
17 1 0.561833 0.722341 0.5
12 1 0.76264 0.696095 0.5
19 1 0.766034 0.732561 0.5
74 4 0.0153974 0.784942 0.5
22 2 0.280821 0.751556 0.5
25 2 0.34401 0.77944 0.5
28 2 0.793226 0.747673 0.5
79 4 0.235129 0.821176 0.5
5 1 0.553687 0.80984 0.5
62 4 0.785793 0.818925 0.5
72 4 0.964231 0.835243 0.5
10 1 0.197648 0.868552 0.5
31 2 0.408095 0.845465 0.5
21 2 0.599684 0.889588 0.5
45 3 0.952631 0.864356 0.5
24 2 0.0324812 0.911764 0.5
63 4 0.109056 0.90875 0.5
14 1 0.570769 0.90841 0.5
29 2 0.800018 0.902884 0.5
60 3 0.226393 0.984057 0.5
46 3 0.366513 0.985017 0.5
15 1 0.559231 0.988973 0.5
66 4 0.788002 0.951087 0.5
37 2 0.864521 0.997129 0.5
49 3 0.939487 0.964888 0.5
11 1 0.990242 0.998487 0.5
ITEM: TIMESTEP
10
ITEM: NUMBER OF ATOMS
80
ITEM: BOX BOUNDS pp pp pp
-9.2565072308830754e+00 9.2565072308830754e+00
-9.2565072308830754e+00 9.2565072308830754e+00
-1.0000000000000001e-01 1.0000000000000001e-01
ITEM: ATOMS id type xs ys zs
59 3 0.191233 0.0523558 0.5
47 3 0.255551 0.0476647 0.5
2 1 0.598426 0.00822354 0.5
34 2 0.586527 0.00940228 0.5
52 3 0.60014 0.0459306 0.5
70 4 0.64878 0.0499249 0.5
1 1 0.81517 0.0494729 0.5
3 1 0.88037 0.0157106 0.5
71 4 0.433332 0.0968872 0.5
73 4 0.422036 0.0866506 0.5
56 3 0.533889 0.0700687 0.5
69 4 0.721192 0.0735421 0.5
41 3 0.10181 0.125678 0.5
16 1 0.811873 0.156563 0.5
77 4 0.0758129 0.187199 0.5
32 2 0.442624 0.18895 0.5
44 3 0.0217162 0.262292 0.5
55 3 0.249197 0.250947 0.5
7 1 0.813929 0.259895 0.5
65 4 0.999456 0.236882 0.5
23 2 0.217425 0.30124 0.5
42 3 0.443167 0.310709 0.5
33 2 0.621359 0.291233 0.5
53 3 0.852493 0.296764 0.5
58 3 0.930916 0.286943 0.5
26 2 0.973061 0.281202 0.5
35 2 0.122886 0.33905 0.5
38 2 0.2781 0.325282 0.5
54 3 0.271713 0.345962 0.5
30 2 0.628217 0.343611 0.5
43 3 0.714069 0.35844 0.5
9 1 0.959387 0.331689 0.5
39 2 0.356481 0.380268 0.5
48 3 0.637259 0.401015 0.5
13 1 0.783209 0.396538 0.5
80 4 0.470071 0.489093 0.5
40 2 0.635836 0.495666 0.5
8 1 0.934104 0.482253 0.5
50 3 0.257391 0.545157 0.5
36 2 0.274251 0.578656 0.5
76 4 0.53243 0.553576 0.5
51 3 0.747461 0.578895 0.5
6 1 0.256059 0.626539 0.5
18 1 0.327688 0.619892 0.5
68 4 0.965942 0.58073 0.5
78 4 0.331877 0.674444 0.5
64 4 0.420167 0.681367 0.5
57 3 0.527855 0.657956 0.5
27 2 0.963567 0.668641 0.5
67 4 0.0265787 0.70776 0.5
4 1 0.129514 0.734527 0.5
75 4 0.305672 0.68996 0.5
20 1 0.357917 0.722457 0.5
61 4 0.386574 0.688049 0.5
17 1 0.561833 0.722341 0.5
12 1 0.7626 0.695892 0.5
19 1 0.765914 0.732647 0.5
74 4 0.0153974 0.784942 0.5
22 2 0.280821 0.751556 0.5
25 2 0.343997 0.779492 0.5
28 2 0.793385 0.74779 0.5
79 4 0.23513 0.821176 0.5
5 1 0.553687 0.80984 0.5
62 4 0.785793 0.818925 0.5
72 4 0.964247 0.835203 0.5
10 1 0.197648 0.868552 0.5
31 2 0.408095 0.845465 0.5
21 2 0.599803 0.889511 0.5
45 3 0.952615 0.864395 0.5
24 2 0.0324812 0.911764 0.5
63 4 0.109056 0.90875 0.5
14 1 0.57065 0.908486 0.5
29 2 0.800019 0.90288 0.5
60 3 0.226393 0.984057 0.5
46 3 0.366513 0.985017 0.5
15 1 0.558993 0.988829 0.5
66 4 0.788001 0.95109 0.5
37 2 0.864409 0.996989 0.5
49 3 0.939472 0.964878 0.5
11 1 0.990257 0.998497 0.5
ITEM: TIMESTEP
20
ITEM: NUMBER OF ATOMS
80
ITEM: BOX BOUNDS pp pp pp
-8.3370856008918555e+00 8.3370856008918555e+00
-8.3370856008918555e+00 8.3370856008918555e+00
-1.0000000000000001e-01 1.0000000000000001e-01
ITEM: ATOMS id type xs ys zs
59 3 0.191233 0.0523558 0.5
47 3 0.255551 0.0476647 0.5
2 1 0.599638 0.00798725 0.5
34 2 0.586061 0.00953884 0.5
52 3 0.600254 0.0465633 0.5
70 4 0.648782 0.0499262 0.5
1 1 0.815012 0.0495758 0.5
3 1 0.880902 0.016132 0.5
71 4 0.433529 0.0970655 0.5
73 4 0.42184 0.0864723 0.5
56 3 0.533889 0.0700687 0.5
69 4 0.721192 0.0735421 0.5
41 3 0.10181 0.125678 0.5
16 1 0.811873 0.156563 0.5
77 4 0.0758129 0.187199 0.5
32 2 0.442624 0.18895 0.5
44 3 0.0219022 0.262356 0.5
55 3 0.249209 0.250928 0.5
7 1 0.813794 0.259766 0.5
65 4 0.999377 0.236763 0.5
23 2 0.217374 0.301243 0.5
42 3 0.443167 0.310709 0.5
33 2 0.621334 0.291042 0.5
53 3 0.852628 0.296893 0.5
58 3 0.930593 0.286812 0.5
26 2 0.973252 0.280941 0.5
35 2 0.122886 0.33905 0.5
38 2 0.27828 0.32484 0.5
54 3 0.271572 0.346419 0.5
30 2 0.628237 0.34377 0.5
43 3 0.714069 0.35844 0.5
9 1 0.959412 0.332136 0.5
39 2 0.356481 0.380268 0.5
48 3 0.637264 0.401048 0.5
13 1 0.783209 0.396538 0.5
80 4 0.470071 0.489093 0.5
40 2 0.635836 0.495666 0.5
8 1 0.934104 0.482253 0.5
50 3 0.257264 0.544903 0.5
36 2 0.274401 0.578552 0.5
76 4 0.53243 0.553576 0.5
51 3 0.747461 0.578895 0.5
6 1 0.255796 0.626842 0.5
18 1 0.327923 0.619872 0.5
68 4 0.965942 0.58073 0.5
78 4 0.331915 0.674412 0.5
64 4 0.4202 0.681361 0.5
57 3 0.527854 0.657953 0.5
27 2 0.963567 0.668641 0.5
67 4 0.0265787 0.70776 0.5
4 1 0.129514 0.734527 0.5
75 4 0.305594 0.689995 0.5
20 1 0.357891 0.722466 0.5
61 4 0.386666 0.687905 0.5
17 1 0.561835 0.722336 0.5
12 1 0.762447 0.695142 0.5
19 1 0.765483 0.732959 0.5
74 4 0.0153974 0.784942 0.5
22 2 0.280805 0.751551 0.5
25 2 0.343959 0.77971 0.5
28 2 0.79397 0.748228 0.5
79 4 0.23514 0.821163 0.5
5 1 0.553686 0.809848 0.5
62 4 0.785793 0.818925 0.5
72 4 0.964308 0.83505 0.5
10 1 0.197638 0.868565 0.5
31 2 0.408095 0.845465 0.5
21 2 0.600231 0.889232 0.5
45 3 0.952554 0.864548 0.5
24 2 0.0324812 0.911764 0.5
63 4 0.109056 0.90875 0.5
14 1 0.570229 0.908722 0.5
29 2 0.800028 0.902843 0.5
60 3 0.226393 0.984057 0.5
46 3 0.366513 0.985017 0.5
15 1 0.558124 0.988337 0.5
66 4 0.787992 0.951127 0.5
37 2 0.864035 0.996465 0.5
49 3 0.939394 0.964826 0.5
11 1 0.990336 0.998549 0.5
ITEM: TIMESTEP
30
ITEM: NUMBER OF ATOMS
80
ITEM: BOX BOUNDS pp pp pp
-7.6544912276833337e+00 7.6544912276833337e+00
-7.6544912276833337e+00 7.6544912276833337e+00
-1.0000000000000001e-01 1.0000000000000001e-01
ITEM: ATOMS id type xs ys zs
59 3 0.191233 0.0523558 0.5
47 3 0.255551 0.0476647 0.5
2 1 0.601953 0.00748371 0.5
34 2 0.585185 0.00979644 0.5
52 3 0.600482 0.0478587 0.5
70 4 0.648827 0.0499502 0.5
1 1 0.814601 0.049854 0.5
3 1 0.88198 0.0169185 0.5
71 4 0.433911 0.0974119 0.5
73 4 0.421457 0.0861259 0.5
56 3 0.533889 0.0700687 0.5
69 4 0.721192 0.0735421 0.5
41 3 0.10181 0.125678 0.5
16 1 0.811873 0.156563 0.5
77 4 0.0758129 0.187199 0.5
32 2 0.442624 0.18895 0.5
44 3 0.0223272 0.262483 0.5
55 3 0.249261 0.250846 0.5
7 1 0.813501 0.259486 0.5
65 4 0.999232 0.236469 0.5
23 2 0.217187 0.301271 0.5
42 3 0.443167 0.310709 0.5
33 2 0.62128 0.290628 0.5
53 3 0.852921 0.297174 0.5
58 3 0.929916 0.286528 0.5
26 2 0.973589 0.280456 0.5
35 2 0.122886 0.33905 0.5
38 2 0.278686 0.324011 0.5
54 3 0.271301 0.347302 0.5
30 2 0.628272 0.344065 0.5
43 3 0.714064 0.358437 0.5
9 1 0.959473 0.333072 0.5
39 2 0.356481 0.380268 0.5
48 3 0.637283 0.401168 0.5
13 1 0.783214 0.39654 0.5
80 4 0.470071 0.489093 0.5
40 2 0.635836 0.495666 0.5
8 1 0.934104 0.482253 0.5
50 3 0.257004 0.54439 0.5
36 2 0.274669 0.578302 0.5
76 4 0.53243 0.553576 0.5
51 3 0.747461 0.578895 0.5
6 1 0.255211 0.627471 0.5
18 1 0.328485 0.619814 0.5
68 4 0.965942 0.58073 0.5
78 4 0.331992 0.674341 0.5
64 4 0.420296 0.681342 0.5
57 3 0.527834 0.657916 0.5
27 2 0.963567 0.668641 0.5
67 4 0.0265787 0.70776 0.5
4 1 0.129514 0.734527 0.5
75 4 0.305381 0.690051 0.5
20 1 0.357923 0.722521 0.5
61 4 0.386835 0.687606 0.5
17 1 0.561861 0.722304 0.5
12 1 0.762131 0.693645 0.5
19 1 0.764638 0.733575 0.5
74 4 0.0153974 0.784942 0.5
22 2 0.280696 0.75153 0.5
25 2 0.343923 0.780202 0.5
28 2 0.795131 0.749109 0.5
79 4 0.235191 0.821098 0.5
5 1 0.553679 0.809915 0.5
62 4 0.785793 0.818925 0.5
72 4 0.964434 0.834733 0.5
10 1 0.197586 0.86863 0.5
31 2 0.408095 0.845465 0.5
21 2 0.601068 0.888688 0.5
45 3 0.952428 0.864865 0.5
24 2 0.0324812 0.911764 0.5
63 4 0.109056 0.90875 0.5
14 1 0.569417 0.909102 0.5
29 2 0.800057 0.902725 0.5
60 3 0.226393 0.984057 0.5
46 3 0.366513 0.985017 0.5
15 1 0.556387 0.987428 0.5
66 4 0.787963 0.951245 0.5
37 2 0.863361 0.995406 0.5
49 3 0.939201 0.964687 0.5
11 1 0.990535 0.998681 0.5
ITEM: TIMESTEP
40
ITEM: NUMBER OF ATOMS
80
ITEM: BOX BOUNDS pp pp pp
-7.1711415661361695e+00 7.1711415661361695e+00
-7.1711415661361695e+00 7.1711415661361695e+00
-1.0000000000000001e-01 1.0000000000000001e-01
ITEM: ATOMS id type xs ys zs
59 3 0.191224 0.0523565 0.5
47 3 0.25556 0.047664 0.5
2 1 0.605537 0.00660703 0.5
34 2 0.583843 0.0102053 0.5
52 3 0.600821 0.049983 0.5
70 4 0.648995 0.0500385 0.5
1 1 0.813824 0.0503868 0.5
3 1 0.883709 0.0181451 0.5
71 4 0.434514 0.0979582 0.5
73 4 0.420855 0.0855795 0.5
56 3 0.533888 0.0700731 0.5
69 4 0.721192 0.0735421 0.5
41 3 0.10181 0.125678 0.5
16 1 0.811873 0.15655 0.5
77 4 0.0758129 0.187199 0.5
32 2 0.442624 0.18895 0.5
44 3 0.0230826 0.262687 0.5
55 3 0.249381 0.250657 0.5
7 1 0.812998 0.259021 0.5
65 4 0.999014 0.235922 0.5
23 2 0.216754 0.301331 0.5
42 3 0.443167 0.310709 0.5
33 2 0.621187 0.28992 0.5
53 3 0.853424 0.297654 0.5
58 3 0.928784 0.286045 0.5
26 2 0.974071 0.279724 0.5
35 2 0.122886 0.33905 0.5
38 2 0.279406 0.322739 0.5
54 3 0.270895 0.348704 0.5
30 2 0.628323 0.344508 0.5
43 3 0.714022 0.358413 0.5
9 1 0.959584 0.334631 0.5
39 2 0.356481 0.380268 0.5
48 3 0.637324 0.401432 0.5
13 1 0.783257 0.396564 0.5
80 4 0.470071 0.489093 0.5
40 2 0.635836 0.495666 0.5
8 1 0.934104 0.482253 0.5
50 3 0.256577 0.543538 0.5
36 2 0.275063 0.577846 0.5
76 4 0.53243 0.553576 0.5
51 3 0.747461 0.578895 0.5
6 1 0.254192 0.628525 0.5
18 1 0.329514 0.619679 0.5
68 4 0.965942 0.58073 0.5
78 4 0.332113 0.674222 0.5
64 4 0.420498 0.6813 0.5
57 3 0.52777 0.657796 0.5
27 2 0.963567 0.668641 0.5
67 4 0.0265787 0.70776 0.5
4 1 0.129514 0.734527 0.5
75 4 0.304954 0.690128 0.5
20 1 0.358113 0.72266 0.5
61 4 0.387087 0.687105 0.5
17 1 0.561943 0.722226 0.5
12 1 0.761621 0.691237 0.5
19 1 0.763286 0.734565 0.5
74 4 0.0153974 0.784942 0.5
22 2 0.280382 0.751493 0.5
25 2 0.343923 0.781074 0.5
28 2 0.796993 0.750527 0.5
79 4 0.235317 0.820939 0.5
5 1 0.553644 0.810064 0.5
62 4 0.785793 0.818925 0.5
72 4 0.964644 0.834206 0.5
10 1 0.19746 0.868789 0.5
31 2 0.408095 0.845465 0.5
21 2 0.602407 0.887846 0.5
45 3 0.952218 0.865393 0.5
24 2 0.0324826 0.911762 0.5
63 4 0.109056 0.90875 0.5
14 1 0.56815 0.909609 0.5
29 2 0.800119 0.90248 0.5
60 3 0.226393 0.984057 0.5
46 3 0.366513 0.985017 0.5
15 1 0.553585 0.986064 0.5
66 4 0.787901 0.951491 0.5
37 2 0.862362 0.993687 0.5
49 3 0.938874 0.964396 0.5
11 1 0.990909 0.998932 0.5
ITEM: TIMESTEP
50
ITEM: NUMBER OF ATOMS
80
ITEM: BOX BOUNDS pp pp pp
-6.8485060544238392e+00 6.8485060544238392e+00
-6.8485060544238392e+00 6.8485060544238392e+00
-1.0000000000000001e-01 1.0000000000000001e-01
ITEM: ATOMS id type xs ys zs
59 3 0.191177 0.0523599 0.5
47 3 0.255608 0.0476636 0.5
2 1 0.610436 0.00530048 0.5
34 2 0.582041 0.0107815 0.5
52 3 0.601237 0.0529978 0.5
70 4 0.649356 0.0502324 0.5
1 1 0.812608 0.0511919 0.5
3 1 0.8861 0.0198555 0.5
71 4 0.43535 0.0987153 0.5
73 4 0.420019 0.0848225 0.5
56 3 0.533865 0.0701215 0.5
69 4 0.721192 0.0735421 0.5
41 3 0.10181 0.125678 0.5
16 1 0.811872 0.15651 0.5
77 4 0.0758129 0.187199 0.5
32 2 0.442624 0.18895 0.5
44 3 0.0242302 0.262972 0.5
55 3 0.249586 0.25031 0.5
7 1 0.812257 0.258394 0.5
65 4 0.998728 0.235066 0.5
23 2 0.215984 0.301422 0.5
42 3 0.443167 0.310709 0.5
33 2 0.621051 0.288875 0.5
53 3 0.854166 0.298363 0.5
58 3 0.927148 0.285338 0.5
26 2 0.974675 0.278751 0.5
35 2 0.122886 0.33905 0.5
38 2 0.2805 0.321027 0.5
54 3 0.270366 0.350671 0.5
30 2 0.628388 0.345097 0.5
43 3 0.713902 0.358347 0.5
9 1 0.959755 0.336882 0.5
39 2 0.356481 0.380268 0.5
48 3 0.637396 0.401888 0.5
13 1 0.783376 0.39663 0.5
80 4 0.470071 0.489093 0.5
40 2 0.635836 0.495666 0.5
8 1 0.934104 0.482253 0.5
50 3 0.25596 0.542286 0.5
36 2 0.275587 0.577148 0.5
76 4 0.53243 0.553576 0.5
51 3 0.747461 0.578895 0.5
6 1 0.252667 0.630075 0.5
18 1 0.331097 0.619388 0.5
68 4 0.965942 0.58073 0.5
78 4 0.332278 0.67405 0.5
64 4 0.42086 0.681214 0.5
57 3 0.52764 0.657549 0.5
27 2 0.963567 0.668641 0.5
67 4 0.0265787 0.70776 0.5
4 1 0.129514 0.734527 0.5
75 4 0.304261 0.690229 0.5
20 1 0.358533 0.722954 0.5
61 4 0.387419 0.686372 0.5
17 1 0.56211 0.722084 0.5
12 1 0.760915 0.68786 0.5
19 1 0.761379 0.735964 0.5
74 4 0.0153974 0.784942 0.5
22 2 0.279766 0.751457 0.5
25 2 0.343982 0.782393 0.5
28 2 0.799607 0.752498 0.5
79 4 0.235543 0.820654 0.5
5 1 0.553543 0.810265 0.5
62 4 0.785791 0.818932 0.5
72 4 0.964947 0.833446 0.5
10 1 0.197235 0.869074 0.5
31 2 0.408098 0.845469 0.5
21 2 0.604305 0.886727 0.5
45 3 0.951915 0.866153 0.5
24 2 0.0324976 0.91173 0.5
63 4 0.109056 0.90875 0.5
14 1 0.566403 0.910195 0.5
29 2 0.80022 0.902072 0.5
60 3 0.226391 0.984054 0.5
46 3 0.366513 0.985017 0.5
15 1 0.549646 0.984258 0.5
66 4 0.7878 0.951899 0.5
37 2 0.861043 0.991251 0.5
49 3 0.93841 0.96389 0.5
11 1 0.991502 0.999349 0.5
ITEM: TIMESTEP
60
ITEM: NUMBER OF ATOMS
80
ITEM: BOX BOUNDS pp pp pp
-6.6308909723940053e+00 6.6308909723940053e+00
-6.6308909723940053e+00 6.6308909723940053e+00
-1.0000000000000001e-01 1.0000000000000001e-01
ITEM: ATOMS id type xs ys zs
59 3 0.191068 0.0523679 0.5
47 3 0.255728 0.0476777 0.5
2 1 0.616606 0.00352822 0.5
34 2 0.579833 0.0115396 0.5
52 3 0.6017 0.0568735 0.5
70 4 0.649958 0.0505679 0.5
1 1 0.810924 0.0522428 0.5
3 1 0.889092 0.0220727 0.5
71 4 0.436413 0.099679 0.5
73 4 0.418956 0.0838588 0.5
56 3 0.533774 0.070273 0.5
69 4 0.721192 0.0735421 0.5
41 3 0.10181 0.125678 0.5
16 1 0.811869 0.156441 0.5
77 4 0.0758129 0.187199 0.5
32 2 0.442624 0.18895 0.5
44 3 0.0258033 0.263338 0.5
55 3 0.249878 0.249757 0.5
7 1 0.811267 0.257641 0.5
65 4 0.998381 0.23387 0.5
23 2 0.214821 0.30155 0.5
42 3 0.443167 0.310709 0.5
33 2 0.620868 0.287477 0.5
53 3 0.855155 0.299312 0.5
58 3 0.925 0.284405 0.5
26 2 0.975368 0.277561 0.5
35 2 0.122886 0.33905 0.5
38 2 0.282008 0.318922 0.5
54 3 0.269728 0.353201 0.5
30 2 0.628464 0.345818 0.5
43 3 0.713676 0.358223 0.5
9 1 0.959987 0.339834 0.5
39 2 0.356482 0.380269 0.5
48 3 0.637503 0.402565 0.5
13 1 0.783602 0.396754 0.5
80 4 0.470071 0.489093 0.5
40 2 0.635836 0.495666 0.5
8 1 0.934104 0.482253 0.5
50 3 0.255141 0.540611 0.5
36 2 0.27624 0.576197 0.5
76 4 0.53243 0.553576 0.5
51 3 0.747461 0.578895 0.5
6 1 0.250595 0.632125 0.5
18 1 0.333276 0.618866 0.5
68 4 0.965942 0.58073 0.5
78 4 0.332482 0.673827 0.5
64 4 0.421426 0.681068 0.5
57 3 0.527426 0.657147 0.5
27 2 0.963566 0.668641 0.5
67 4 0.0265791 0.70776 0.5
4 1 0.129514 0.734527 0.5
75 4 0.303292 0.690361 0.5
20 1 0.35923 0.723472 0.5
61 4 0.387821 0.685389 0.5
17 1 0.562383 0.721867 0.5
12 1 0.760036 0.683535 0.5
19 1 0.758904 0.737783 0.5
74 4 0.0153974 0.784942 0.5
22 2 0.278785 0.751446 0.5
25 2 0.344096 0.784176 0.5
28 2 0.80297 0.75496 0.5
79 4 0.235884 0.820222 0.5
5 1 0.553346 0.810486 0.5
62 4 0.785782 0.818975 0.5
72 4 0.965345 0.832446 0.5
10 1 0.196893 0.869506 0.5
31 2 0.408127 0.845498 0.5
21 2 0.606783 0.885371 0.5
45 3 0.951517 0.867152 0.5
24 2 0.0325408 0.911638 0.5
63 4 0.109056 0.90875 0.5
14 1 0.564184 0.910784 0.5
29 2 0.800368 0.901481 0.5
60 3 0.226381 0.984032 0.5
46 3 0.366513 0.985017 0.5
15 1 0.54459 0.982075 0.5
66 4 0.787653 0.952489 0.5
37 2 0.859416 0.988099 0.5
49 3 0.937825 0.963122 0.5
11 1 0.992364 0.999967 0.5
ITEM: TIMESTEP
70
ITEM: NUMBER OF ATOMS
80
ITEM: BOX BOUNDS pp pp pp
-6.4970018327000183e+00 6.4970018327000183e+00
-6.4970018327000183e+00 6.4970018327000183e+00
-1.0000000000000001e-01 1.0000000000000001e-01
ITEM: ATOMS id type xs ys zs
59 3 0.190879 0.0523816 0.5
47 3 0.255943 0.0477206 0.5
2 1 0.62392 0.00127549 0.5
34 2 0.577305 0.0124851 0.5
52 3 0.60217 0.061505 0.5
70 4 0.650815 0.0510737 0.5
1 1 0.808786 0.0534903 0.5
3 1 0.892585 0.0247953 0.5
71 4 0.437686 0.100833 0.5
73 4 0.417682 0.0827048 0.5
56 3 0.533577 0.0705702 0.5
69 4 0.721192 0.0735421 0.5
41 3 0.10181 0.125678 0.5
16 1 0.811868 0.156348 0.5
77 4 0.0758129 0.187199 0.5
32 2 0.442624 0.18895 0.5
44 3 0.0278074 0.263781 0.5
55 3 0.250249 0.248968 0.5
7 1 0.81003 0.256801 0.5
65 4 0.997987 0.232325 0.5
23 2 0.213249 0.30172 0.5
42 3 0.443167 0.310709 0.5
33 2 0.62064 0.28573 0.5
53 3 0.856362 0.300499 0.5
58 3 0.922391 0.283257 0.5
26 2 0.976107 0.276191 0.5
35 2 0.122885 0.339051 0.5
38 2 0.283935 0.316479 0.5
54 3 0.268994 0.356256 0.5
30 2 0.628541 0.346647 0.5
43 3 0.713332 0.358031 0.5
9 1 0.960277 0.343447 0.5
39 2 0.35649 0.380276 0.5
48 3 0.637649 0.403482 0.5
13 1 0.783952 0.396947 0.5
80 4 0.470071 0.489093 0.5
40 2 0.635836 0.495666 0.5
8 1 0.934104 0.482253 0.5
50 3 0.254117 0.538527 0.5
36 2 0.277015 0.575003 0.5
76 4 0.53243 0.553576 0.5
51 3 0.747461 0.578895 0.5
6 1 0.247974 0.634633 0.5
18 1 0.336045 0.618061 0.5
68 4 0.965942 0.58073 0.5
78 4 0.332709 0.673561 0.5
64 4 0.422219 0.680852 0.5
57 3 0.527119 0.656572 0.5
27 2 0.963559 0.668637 0.5
67 4 0.0265866 0.707765 0.5
4 1 0.129514 0.734527 0.5
75 4 0.30206 0.690529 0.5
20 1 0.360226 0.724259 0.5
61 4 0.388282 0.684156 0.5
17 1 0.562774 0.721569 0.5
12 1 0.759025 0.678354 0.5
19 1 0.755876 0.740001 0.5
74 4 0.0153974 0.784942 0.5
22 2 0.277409 0.751473 0.5
25 2 0.344246 0.786407 0.5
28 2 0.807033 0.757809 0.5
79 4 0.236348 0.819636 0.5
5 1 0.553029 0.810703 0.5
62 4 0.785759 0.81909 0.5
72 4 0.965835 0.831219 0.5
10 1 0.196429 0.870092 0.5
31 2 0.408205 0.845573 0.5
21 2 0.609826 0.883825 0.5
45 3 0.951027 0.86838 0.5
24 2 0.0326218 0.911463 0.5
63 4 0.109056 0.90875 0.5
14 1 0.561529 0.911305 0.5
29 2 0.800561 0.900704 0.5
60 3 0.226355 0.983976 0.5
46 3 0.366513 0.985017 0.5
15 1 0.538517 0.979629 0.5
66 4 0.787459 0.953267 0.5
37 2 0.857496 0.984284 0.5
49 3 0.937147 0.96206 0.5
11 1 0.993527 0.000800845 0.5
ITEM: TIMESTEP
80
ITEM: NUMBER OF ATOMS
80
ITEM: BOX BOUNDS pp pp pp
-6.4358280771308660e+00 6.4358280771308660e+00
-6.4358280771308660e+00 6.4358280771308660e+00
-1.0000000000000001e-01 1.0000000000000001e-01
ITEM: ATOMS id type xs ys zs
59 3 0.190603 0.0524021 0.5
47 3 0.256265 0.0478007 0.5
2 1 0.632153 -0.0014406 0.5
34 2 0.574562 0.0136021 0.5
52 3 0.602624 0.0667369 0.5
70 4 0.651909 0.0517664 0.5
1 1 0.806244 0.0548658 0.5
3 1 0.896451 0.0279885 0.5
71 4 0.439137 0.102147 0.5
73 4 0.416232 0.0813905 0.5
56 3 0.533252 0.071032 0.5
69 4 0.721191 0.0735424 0.5
41 3 0.10181 0.125678 0.5
16 1 0.811875 0.156235 0.5
77 4 0.0758129 0.187199 0.5
32 2 0.442624 0.18895 0.5
44 3 0.030216 0.264292 0.5
55 3 0.250688 0.247938 0.5
7 1 0.80857 0.255919 0.5
65 4 0.997562 0.230449 0.5
23 2 0.211308 0.301935 0.5
42 3 0.443167 0.310709 0.5
33 2 0.62037 0.283663 0.5
53 3 0.857731 0.301911 0.5
58 3 0.919418 0.28192 0.5
26 2 0.976847 0.274692 0.5
35 2 0.122869 0.339057 0.5
38 2 0.286244 0.313768 0.5
54 3 0.268177 0.359753 0.5
30 2 0.628602 0.347553 0.5
43 3 0.712879 0.357771 0.5
9 1 0.960615 0.347626 0.5
39 2 0.356516 0.380298 0.5
48 3 0.637832 0.404639 0.5
13 1 0.78443 0.39721 0.5
80 4 0.470071 0.489093 0.5
40 2 0.635836 0.495666 0.5
8 1 0.934104 0.482253 0.5
50 3 0.252897 0.536088 0.5
36 2 0.277904 0.5736 0.5
76 4 0.53243 0.553576 0.5
51 3 0.74746 0.578888 0.5
6 1 0.244856 0.637515 0.5
18 1 0.33934 0.616948 0.5
68 4 0.965942 0.58073 0.5
78 4 0.332942 0.673264 0.5
64 4 0.423245 0.680565 0.5
57 3 0.526717 0.655822 0.5
27 2 0.963535 0.668622 0.5
67 4 0.0266103 0.70778 0.5
4 1 0.129514 0.734527 0.5
75 4 0.300606 0.690725 0.5
20 1 0.361517 0.725333 0.5
61 4 0.388796 0.682696 0.5
17 1 0.563289 0.721189 0.5
12 1 0.757939 0.672486 0.5
19 1 0.752348 0.742555 0.5
74 4 0.0153974 0.784942 0.5
22 2 0.275651 0.751546 0.5
25 2 0.344404 0.789044 0.5
28 2 0.811689 0.760908 0.5
79 4 0.23693 0.818901 0.5
5 1 0.552585 0.810901 0.5
62 4 0.785717 0.819313 0.5
72 4 0.966404 0.82979 0.5
10 1 0.195848 0.870827 0.5
31 2 0.408351 0.845711 0.5
21 2 0.613381 0.882142 0.5
45 3 0.950458 0.869808 0.5
24 2 0.0327407 0.911194 0.5
63 4 0.10906 0.90875 0.5
14 1 0.558519 0.911714 0.5
29 2 0.800798 0.899747 0.5
60 3 0.226309 0.983875 0.5
46 3 0.366513 0.985017 0.5
15 1 0.531591 0.977047 0.5
66 4 0.787215 0.954219 0.5
37 2 0.855332 0.979912 0.5
49 3 0.936397 0.960701 0.5
11 1 0.994997 0.00184227 0.5
ITEM: TIMESTEP
90
ITEM: NUMBER OF ATOMS
80
ITEM: BOX BOUNDS pp pp pp
-6.4350207098616732e+00 6.4350207098616732e+00
-6.4350207098616732e+00 6.4350207098616732e+00
-1.0000000000000001e-01 1.0000000000000001e-01
ITEM: ATOMS id type xs ys zs
59 3 0.190242 0.0524305 0.5
47 3 0.256691 0.0479197 0.5
2 1 0.641 -0.00456556 0.5
34 2 0.571725 0.0148545 0.5
52 3 0.603065 0.0723888 0.5
70 4 0.653186 0.0526457 0.5
1 1 0.803401 0.0562863 0.5
3 1 0.900546 0.0315832 0.5
71 4 0.44072 0.103582 0.5
73 4 0.414649 0.0799556 0.5
56 3 0.532794 0.0716524 0.5
69 4 0.721175 0.0735459 0.5
41 3 0.10181 0.125678 0.5
16 1 0.811896 0.156109 0.5
77 4 0.0758129 0.187199 0.5
32 2 0.442624 0.18895 0.5
44 3 0.0329733 0.264856 0.5
55 3 0.251174 0.246686 0.5
7 1 0.806921 0.25504 0.5
65 4 0.997127 0.228281 0.5
23 2 0.209081 0.302197 0.5
42 3 0.443167 0.310709 0.5
33 2 0.620065 0.281329 0.5
53 3 0.859198 0.303521 0.5
58 3 0.9162 0.280434 0.5
26 2 0.977546 0.273123 0.5
35 2 0.122822 0.339077 0.5
38 2 0.288871 0.31087 0.5
54 3 0.267291 0.363578 0.5
30 2 0.628631 0.348499 0.5
43 3 0.712337 0.357449 0.5
9 1 0.960985 0.352235 0.5
39 2 0.356563 0.380341 0.5
48 3 0.638052 0.406021 0.5
13 1 0.785028 0.39754 0.5
80 4 0.470071 0.489093 0.5
40 2 0.635836 0.495666 0.5
8 1 0.934104 0.482253 0.5
50 3 0.251496 0.533369 0.5
36 2 0.278887 0.57204 0.5
76 4 0.53243 0.553576 0.5
51 3 0.747454 0.578834 0.5
6 1 0.241334 0.640658 0.5
18 1 0.343058 0.615544 0.5
68 4 0.965942 0.58073 0.5
78 4 0.333159 0.672949 0.5
64 4 0.42449 0.680215 0.5
57 3 0.526223 0.654908 0.5
27 2 0.963491 0.668595 0.5
67 4 0.0266541 0.707807 0.5
4 1 0.129514 0.734527 0.5
75 4 0.298989 0.690933 0.5
20 1 0.363069 0.726674 0.5
61 4 0.389352 0.681046 0.5
17 1 0.563924 0.72073 0.5
12 1 0.756844 0.666186 0.5
19 1 0.748412 0.745365 0.5
74 4 0.0153974 0.784942 0.5
22 2 0.273561 0.751665 0.5
25 2 0.344537 0.792018 0.5
28 2 0.816792 0.764107 0.5
79 4 0.237614 0.818036 0.5
5 1 0.552015 0.811074 0.5
62 4 0.785652 0.819658 0.5
72 4 0.967037 0.828201 0.5
10 1 0.195162 0.871694 0.5
31 2 0.408578 0.845921 0.5
21 2 0.617358 0.880379 0.5
45 3 0.949825 0.871397 0.5
24 2 0.03289 0.910831 0.5
63 4 0.109072 0.90875 0.5
14 1 0.555271 0.911992 0.5
29 2 0.801056 0.898615 0.5
60 3 0.226243 0.983728 0.5
46 3 0.366513 0.985017 0.5
15 1 0.524021 0.974453 0.5
66 4 0.786901 0.955312 0.5
37 2 0.85302 0.975153 0.5
49 3 0.935595 0.95907 0.5
11 1 0.996757 0.00306126 0.5
ITEM: TIMESTEP
100
ITEM: NUMBER OF ATOMS
80
ITEM: BOX BOUNDS pp pp pp
-6.4723888690384683e+00 6.4723888690384683e+00
-6.4723888690384683e+00 6.4723888690384683e+00
-1.0000000000000001e-01 1.0000000000000001e-01
ITEM: ATOMS id type xs ys zs
59 3 0.189808 0.0524648 0.5
47 3 0.25721 0.0480736 0.5
2 1 0.650123 0.991987 0.5
34 2 0.568911 0.0161936 0.5
52 3 0.603509 0.0782711 0.5
70 4 0.654575 0.0536941 0.5
1 1 0.800375 0.057669 0.5
3 1 0.904727 0.0354887 0.5
71 4 0.442391 0.105096 0.5
73 4 0.412978 0.0784418 0.5
56 3 0.532212 0.0724065 0.5
69 4 0.721123 0.0735568 0.5
41 3 0.10181 0.125678 0.5
16 1 0.81194 0.155975 0.5
77 4 0.0758129 0.187199 0.5
32 2 0.442624 0.18895 0.5
44 3 0.0360085 0.265454 0.5
55 3 0.251686 0.245247 0.5
7 1 0.805126 0.2542 0.5
65 4 0.996702 0.225876 0.5
23 2 0.206669 0.302506 0.5
42 3 0.443167 0.310709 0.5
33 2 0.619734 0.278784 0.5
53 3 0.860702 0.305301 0.5
58 3 0.91286 0.278843 0.5
26 2 0.978169 0.271543 0.5
35 2 0.122729 0.339116 0.5
38 2 0.291738 0.30787 0.5
54 3 0.26635 0.367607 0.5
30 2 0.628619 0.349451 0.5
43 3 0.711725 0.357073 0.5
9 1 0.961367 0.357121 0.5
39 2 0.356629 0.380403 0.5
48 3 0.638305 0.407603 0.5
13 1 0.78573 0.397927 0.5
80 4 0.470071 0.489093 0.5
40 2 0.635836 0.495667 0.5
8 1 0.934104 0.482253 0.5
50 3 0.249938 0.530433 0.5
36 2 0.279944 0.570383 0.5
76 4 0.53243 0.553576 0.5
51 3 0.747439 0.578691 0.5
6 1 0.237527 0.643961 0.5
18 1 0.347073 0.613904 0.5
68 4 0.965942 0.58073 0.5
78 4 0.333342 0.672629 0.5
64 4 0.425925 0.679813 0.5
57 3 0.525647 0.653852 0.5
27 2 0.963429 0.668556 0.5
67 4 0.0267168 0.707846 0.5
4 1 0.129514 0.734527 0.5
75 4 0.297283 0.691133 0.5
20 1 0.364834 0.728239 0.5
61 4 0.389933 0.679243 0.5
17 1 0.56467 0.720198 0.5
12 1 0.755794 0.659706 0.5
19 1 0.744175 0.748347 0.5
74 4 0.0153974 0.784942 0.5
22 2 0.271215 0.751816 0.5
25 2 0.34461 0.795258 0.5
28 2 0.822187 0.767284 0.5
79 4 0.238376 0.817079 0.5
5 1 0.551332 0.811225 0.5
62 4 0.785559 0.820122 0.5
72 4 0.967715 0.826499 0.5
10 1 0.194392 0.872667 0.5
31 2 0.408894 0.846205 0.5
21 2 0.621652 0.878579 0.5
45 3 0.949147 0.873099 0.5
24 2 0.0330622 0.910385 0.5
63 4 0.109094 0.908749 0.5
14 1 0.551923 0.912149 0.5
29 2 0.801313 0.897314 0.5
60 3 0.226159 0.983539 0.5
46 3 0.366513 0.985017 0.5
15 1 0.516028 0.971956 0.5
66 4 0.786502 0.956508 0.5
37 2 0.850669 0.97019 0.5
49 3 0.934751 0.957216 0.5
11 1 0.99877 0.00441433 0.5
ITEM: TIMESTEP
110
ITEM: NUMBER OF ATOMS
80
ITEM: BOX BOUNDS pp pp pp
-6.5196861847072922e+00 6.5196861847072922e+00
-6.5196861847072922e+00 6.5196861847072922e+00
-1.0000000000000001e-01 1.0000000000000001e-01
ITEM: ATOMS id type xs ys zs
59 3 0.189314 0.052503 0.5
47 3 0.257803 0.0482557 0.5
2 1 0.659296 0.988333 0.5
34 2 0.566212 0.0175697 0.5
52 3 0.603978 0.0842279 0.5
70 4 0.656015 0.054884 0.5
1 1 0.797275 0.0589448 0.5
3 1 0.908881 0.0396158 0.5
71 4 0.44411 0.106654 0.5
73 4 0.411258 0.0768833 0.5
56 3 0.531519 0.0732731 0.5
69 4 0.721019 0.0735783 0.5
41 3 0.10181 0.125678 0.5
16 1 0.812014 0.155839 0.5
77 4 0.0758129 0.187199 0.5
32 2 0.442624 0.18895 0.5
44 3 0.0392565 0.26607 0.5
55 3 0.252206 0.24366 0.5
7 1 0.803219 0.253428 0.5
65 4 0.996307 0.223279 0.5
23 2 0.204171 0.302861 0.5
42 3 0.443167 0.310709 0.5
33 2 0.619383 0.276076 0.5
53 3 0.862197 0.30723 0.5
58 3 0.909493 0.277186 0.5
26 2 0.978693 0.27 0.5
35 2 0.122583 0.339179 0.5
38 2 0.294771 0.304837 0.5
54 3 0.265363 0.371735 0.5
30 2 0.628562 0.350384 0.5
43 3 0.711064 0.356653 0.5
9 1 0.961741 0.362154 0.5
39 2 0.356708 0.380479 0.5
48 3 0.638588 0.409358 0.5
13 1 0.786517 0.398361 0.5
80 4 0.470071 0.489093 0.5
40 2 0.635836 0.495672 0.5
8 1 0.934104 0.482253 0.5
50 3 0.248243 0.527327 0.5
36 2 0.281054 0.568683 0.5
76 4 0.53243 0.553576 0.5
51 3 0.74741 0.578421 0.5
6 1 0.233548 0.647342 0.5
18 1 0.351277 0.612084 0.5
68 4 0.965942 0.58073 0.5
78 4 0.333477 0.672312 0.5
64 4 0.427522 0.679373 0.5
57 3 0.524998 0.652672 0.5
27 2 0.963351 0.668507 0.5
67 4 0.0267946 0.707894 0.5
4 1 0.129514 0.734527 0.5
75 4 0.295546 0.691317 0.5
20 1 0.366757 0.729972 0.5
61 4 0.390528 0.677319 0.5
17 1 0.565517 0.719598 0.5
12 1 0.754802 0.653213 0.5
19 1 0.739737 0.751432 0.5
74 4 0.0153974 0.784942 0.5
22 2 0.268695 0.751982 0.5
25 2 0.344589 0.7987 0.5
28 2 0.827767 0.770396 0.5
79 4 0.23919 0.816064 0.5
5 1 0.550556 0.811364 0.5
62 4 0.785438 0.820686 0.5
72 4 0.968423 0.824722 0.5
10 1 0.193557 0.873723 0.5
31 2 0.409303 0.846563 0.5
21 2 0.62617 0.876771 0.5
45 3 0.948439 0.874876 0.5
24 2 0.0332517 0.909869 0.5
63 4 0.109124 0.908748 0.5
14 1 0.54859 0.912201 0.5
29 2 0.801545 0.895855 0.5
60 3 0.226059 0.983319 0.5
46 3 0.366513 0.985017 0.5
15 1 0.507731 0.969617 0.5
66 4 0.786003 0.95778 0.5
37 2 0.848369 0.965179 0.5
49 3 0.933871 0.955194 0.5
11 1 1.001 0.00585663 0.5
ITEM: TIMESTEP
120
ITEM: NUMBER OF ATOMS
80
ITEM: BOX BOUNDS pp pp pp
-6.5490861495411652e+00 6.5490861495411652e+00
-6.5490861495411652e+00 6.5490861495411652e+00
-1.0000000000000001e-01 1.0000000000000001e-01
ITEM: ATOMS id type xs ys zs
59 3 0.188771 0.0525441 0.5
47 3 0.258458 0.0484591 0.5
2 1 0.668448 0.984552 0.5
34 2 0.563694 0.0189397 0.5
52 3 0.60447 0.0901989 0.5
70 4 0.657463 0.0561873 0.5
1 1 0.794182 0.0600619 0.5
3 1 0.912931 0.0438937 0.5
71 4 0.445856 0.108236 0.5
73 4 0.409513 0.0753018 0.5
56 3 0.53073 0.0742564 0.5
69 4 0.720845 0.0736131 0.5
41 3 0.10181 0.125678 0.5
16 1 0.812129 0.155703 0.5
77 4 0.0758129 0.187199 0.5
32 2 0.442624 0.18895 0.5
44 3 0.0426726 0.266687 0.5
55 3 0.252716 0.241952 0.5
7 1 0.80122 0.252742 0.5
65 4 0.99596 0.220523 0.5
23 2 0.201657 0.303243 0.5
42 3 0.443167 0.310709 0.5
33 2 0.619015 0.273235 0.5
53 3 0.863654 0.309301 0.5
58 3 0.906156 0.275479 0.5
26 2 0.979107 0.268529 0.5
35 2 0.122374 0.33927 0.5
38 2 0.297914 0.301815 0.5
54 3 0.264347 0.375904 0.5
30 2 0.628457 0.351278 0.5
43 3 0.710368 0.356197 0.5
9 1 0.962094 0.367245 0.5
39 2 0.356794 0.380565 0.5
48 3 0.6389 0.41127 0.5
13 1 0.787374 0.398833 0.5
80 4 0.470071 0.489093 0.5
40 2 0.635835 0.495691 0.5
8 1 0.934103 0.482256 0.5
50 3 0.24642 0.52407 0.5
36 2 0.282201 0.566978 0.5