ITEM: TIMESTEP
500
ITEM: NUMBER OF ATOMS
56
ITEM: BOX BOUNDS pp pp pp
-4.8278366092224649e+00 4.8278366092224649e+00
-4.8314311035320943e+00 4.8314311035320943e+00
-1.0000000000000001e-01 1.0000000000000001e-01
ITEM: ATOMS id type xs ys zs
22 1 0.0996636 0.096371 0.499007
65 1 0.119384 0.982676 0.500773
78 1 0.166783 0.0238234 0.500899
58 1 0.233855 0.0616256 0.501529
24 1 0.337614 0.0392608 0.502805
74 1 0.435123 0.0658342 0.500724
41 1 0.513471 0.0318777 0.498363
42 1 0.591084 0.0972556 0.50062
5 1 0.662787 0.00525009 0.500055
80 1 0.181825 0.119845 0.498665
8 1 0.144722 0.22042 0.500699
43 1 0.253269 0.153244 0.499751
55 1 0.368211 0.147751 0.500157
29 1 0.483057 0.141106 0.500467
23 1 0.572847 0.206935 0.500808
27 1 0.703386 0.132875 0.499392
62 1 0.253473 0.23858 0.500175
4 1 0.211675 0.343776 0.500095
45 1 0.319286 0.233674 0.49828
11 1 0.433797 0.282329 0.499116
17 1 0.693207 0.273047 0.502388
50 1 0.0941354 0.331384 0.500401
75 1 0.317127 0.301037 0.500604
2 1 0.373024 0.433396 0.499608
69 1 0.475572 0.391864 0.499853
32 1 0.556932 0.338484 0.498573
21 1 0.668795 0.412378 0.503505
6 1 0.0896997 0.449363 0.499811
25 1 0.233354 0.468575 0.500867
18 1 0.444848 0.569106 0.501873
28 1 0.550253 0.457584 0.499582
57 1 0.0613025 0.570085 0.499414
72 1 0.101428 0.63393 0.497323
44 1 0.156001 0.576517 0.500038
15 1 0.291123 0.598857 0.499946
51 1 0.375713 0.675452 0.499794
33 1 0.87023 0.697956 0.500321
39 1 0.993358 0.651548 0.502408
40 1 0.18545 0.675884 0.498971
66 1 0.234723 0.757033 0.497488
46 1 0.304561 0.722499 0.499768
34 1 0.413632 0.769747 0.499012
26 1 0.51115 0.699432 0.500052
48 1 0.577353 0.785409 0.500642
16 1 0.119075 0.803839 0.501199
47 1 0.242317 0.839605 0.501589
7 1 0.500275 0.868571 0.502024
37 1 0.649362 0.872559 0.500391
12 1 0.788842 0.792949 0.49973
1 1 0.960928 0.790825 0.500416
13 1 0.0321439 0.925502 0.499501
36 1 0.184828 0.927782 0.499061
10 1 0.337486 0.89506 0.501485
52 1 0.431531 0.974083 0.499182
49 1 0.745437 0.916533 0.498405
3 1 0.867617 0.925002 0.499584
ITEM: TIMESTEP
750
ITEM: NUMBER OF ATOMS
56
ITEM: BOX BOUNDS pp pp pp
-4.8266293494624790e+00 4.8266293494624790e+00
-4.8306402024791000e+00 4.8306402024791000e+00
-1.0000000000000001e-01 1.0000000000000001e-01
ITEM: ATOMS id type xs ys zs
22 1 0.100454 0.0960165 0.497803
65 1 0.120233 0.982391 0.499682
78 1 0.167969 0.0232223 0.502297
58 1 0.234452 0.0617066 0.502246
24 1 0.337752 0.0387337 0.50251
74 1 0.435417 0.0660308 0.498361
41 1 0.513723 0.032508 0.497186
42 1 0.591646 0.0980191 0.502655
5 1 0.66289 0.00520678 0.499668
80 1 0.182571 0.119946 0.499917
8 1 0.145207 0.220759 0.500718
43 1 0.25413 0.153963 0.498767
55 1 0.368306 0.147514 0.498881
29 1 0.483138 0.141962 0.50171
23 1 0.57227 0.207986 0.499758
27 1 0.703968 0.133659 0.498435
62 1 0.253812 0.239225 0.498165
4 1 0.211157 0.344359 0.498858
45 1 0.319409 0.234366 0.497022
11 1 0.433657 0.282767 0.498957
17 1 0.692779 0.273829 0.503043
50 1 0.0940176 0.330982 0.500537
75 1 0.316745 0.301196 0.499744
2 1 0.373362 0.433102 0.500625
69 1 0.475218 0.391886 0.497595
32 1 0.556492 0.338389 0.498561
21 1 0.667035 0.413205 0.501476
6 1 0.0895156 0.449046 0.499264
25 1 0.232873 0.469346 0.503881
18 1 0.444377 0.569173 0.50235
28 1 0.549186 0.457792 0.501136
57 1 0.061598 0.569636 0.500467
72 1 0.101283 0.633705 0.498349
44 1 0.155756 0.576485 0.501921
15 1 0.291594 0.599537 0.49852
51 1 0.37603 0.676119 0.502531
33 1 0.870874 0.698949 0.50068
39 1 0.993356 0.651307 0.50315
40 1 0.185597 0.675313 0.497275
66 1 0.234905 0.756535 0.498975
46 1 0.305358 0.723566 0.498663
34 1 0.414944 0.770524 0.500124
26 1 0.512381 0.698004 0.501349
48 1 0.57728 0.784975 0.503378
16 1 0.119653 0.802343 0.501942
47 1 0.242859 0.839155 0.501591
7 1 0.501752 0.869233 0.500873
37 1 0.649709 0.872096 0.500621
12 1 0.787645 0.792631 0.501125
1 1 0.962467 0.791009 0.500551
13 1 0.0339333 0.925417 0.498777
36 1 0.185758 0.927244 0.500025
10 1 0.337923 0.894349 0.502715
52 1 0.431938 0.974804 0.500281
49 1 0.745999 0.916966 0.498752
3 1 0.867921 0.923907 0.498829
ITEM: TIMESTEP
1000
ITEM: NUMBER OF ATOMS
56
ITEM: BOX BOUNDS pp pp pp
-4.8254220897024931e+00 4.8254220897024931e+00
-4.8337791286491427e+00 4.8337791286491427e+00
-1.0000000000000001e-01 1.0000000000000001e-01
ITEM: ATOMS id type xs ys zs
22 1 0.101839 0.095465 0.49907
65 1 0.121558 0.982486 0.497942
78 1 0.169565 0.0231376 0.501137
58 1 0.235532 0.0623035 0.501843
24 1 0.3384 0.0402406 0.502164
74 1 0.436403 0.0661013 0.497778
41 1 0.514382 0.0324567 0.495033
42 1 0.591884 0.097886 0.503466
5 1 0.662056 0.00506417 0.499103
80 1 0.183075 0.120409 0.499588
8 1 0.145553 0.220834 0.499886
43 1 0.254665 0.15375 0.49821
55 1 0.370269 0.148638 0.499136
29 1 0.48404 0.141966 0.5008
23 1 0.572763 0.208217 0.500158
27 1 0.703775 0.133631 0.500509
62 1 0.253571 0.238699 0.496877
4 1 0.211157 0.344494 0.498387
45 1 0.319334 0.233586 0.497044
11 1 0.432943 0.283028 0.500981
17 1 0.694653 0.273314 0.503653
50 1 0.0936182 0.33069 0.500239
75 1 0.315912 0.300556 0.499225
2 1 0.372621 0.433622 0.499135
69 1 0.475084 0.391415 0.496659
32 1 0.555935 0.338457 0.499176
21 1 0.667029 0.412641 0.502006
6 1 0.0883331 0.448337 0.50096
25 1 0.23227 0.469528 0.50299
18 1 0.444578 0.569542 0.500201
28 1 0.548648 0.457789 0.500636
57 1 0.0615994 0.569236 0.5012
72 1 0.101487 0.632753 0.500097
44 1 0.156182 0.576181 0.501054
15 1 0.291911 0.599956 0.500682
51 1 0.376542 0.676056 0.503368
33 1 0.870555 0.699765 0.498957
39 1 0.993013 0.650898 0.503145
40 1 0.185014 0.675366 0.496018
66 1 0.23544 0.755816 0.49883
46 1 0.306049 0.723068 0.498799
34 1 0.414835 0.770653 0.50166
26 1 0.512192 0.699132 0.501955
48 1 0.578069 0.785397 0.504455
16 1 0.120083 0.803 0.500859
47 1 0.243573 0.838703 0.50222
7 1 0.501288 0.868796 0.500933
37 1 0.649913 0.873413 0.497177
12 1 0.786275 0.792428 0.501444
1 1 0.963844 0.790511 0.502744
13 1 0.0350848 0.925365 0.498043
36 1 0.186417 0.926961 0.498649
10 1 0.338046 0.895051 0.502078
52 1 0.431984 0.974972 0.49997
49 1 0.74574 0.917346 0.498463
3 1 0.868355 0.922623 0.501034
ITEM: TIMESTEP
1250
ITEM: NUMBER OF ATOMS
56
ITEM: BOX BOUNDS pp pp pp
-4.8242148299425081e+00 4.8242148299425081e+00
-4.8281209203459738e+00 4.8281209203459738e+00
-1.0000000000000001e-01 1.0000000000000001e-01
ITEM: ATOMS id type xs ys zs
22 1 0.102136 0.0955855 0.50044
65 1 0.121829 0.982566 0.497874
78 1 0.169779 0.0234307 0.501097
58 1 0.235861 0.0622401 0.501805
24 1 0.339381 0.0391173 0.503143
74 1 0.436491 0.0666505 0.497655
41 1 0.514994 0.032697 0.496006
42 1 0.592472 0.098061 0.502755
5 1 0.662432 0.00475624 0.499883
80 1 0.184009 0.120954 0.499488
8 1 0.145587 0.221512 0.498932
43 1 0.255204 0.154661 0.496213
55 1 0.370167 0.147969 0.499192
29 1 0.48516 0.142058 0.501889
23 1 0.574405 0.207855 0.497531
27 1 0.704185 0.132971 0.501823
62 1 0.254164 0.24012 0.49925
4 1 0.210901 0.345594 0.498953
45 1 0.319693 0.23386 0.497153
11 1 0.433113 0.282401 0.500496
17 1 0.695471 0.274274 0.504966
50 1 0.0932244 0.331033 0.498056
75 1 0.315553 0.300897 0.501016
2 1 0.37192 0.433454 0.499804
69 1 0.474342 0.391215 0.496938
32 1 0.555918 0.338561 0.499637
21 1 0.666191 0.413138 0.502696
6 1 0.0879425 0.448214 0.500207
25 1 0.231458 0.470964 0.50254
18 1 0.445185 0.568141 0.50119
28 1 0.548005 0.457685 0.499129
57 1 0.0610547 0.568825 0.501518
72 1 0.101174 0.632586 0.500489
44 1 0.155267 0.575181 0.502007
15 1 0.292398 0.599601 0.500077
51 1 0.377044 0.675525 0.504462
33 1 0.871345 0.700016 0.50037
39 1 0.993147 0.650577 0.503885
40 1 0.185145 0.674869 0.494297
66 1 0.235496 0.755989 0.499705
46 1 0.30556 0.722515 0.497327
34 1 0.414703 0.77022 0.499994
26 1 0.512042 0.698338 0.502446
48 1 0.578117 0.784955 0.504883
16 1 0.120405 0.803271 0.500073
47 1 0.243918 0.838813 0.503278
7 1 0.5009 0.867747 0.50265
37 1 0.649663 0.873238 0.495618
12 1 0.786024 0.791805 0.502769
1 1 0.964022 0.791038 0.502397
13 1 0.0347399 0.926039 0.498975
36 1 0.186627 0.927161 0.499418
10 1 0.338329 0.895096 0.502123
52 1 0.433101 0.974646 0.498293
49 1 0.745908 0.916415 0.49601
3 1 0.868057 0.922485 0.501885
ITEM: TIMESTEP
1500
ITEM: NUMBER OF ATOMS
56
ITEM: BOX BOUNDS pp pp pp
-4.8230075701825221e+00 4.8230075701825221e+00
-4.8326849512215704e+00 4.8326849512215704e+00
-1.0000000000000001e-01 1.0000000000000001e-01
ITEM: ATOMS id type xs ys zs
22 1 0.101753 0.0952294 0.498853
65 1 0.121355 0.982887 0.498202
78 1 0.169766 0.0230185 0.501273
58 1 0.235791 0.0622291 0.497562
24 1 0.339265 0.0386987 0.501568
74 1 0.436617 0.0661182 0.497511
41 1 0.51485 0.0328237 0.496861
42 1 0.592045 0.0989364 0.502571
5 1 0.663588 0.00692687 0.500362
80 1 0.183576 0.12016 0.500928
8 1 0.145182 0.220997 0.500256
43 1 0.254574 0.154456 0.496998
55 1 0.369204 0.147224 0.497751
29 1 0.484248 0.142254 0.501753
23 1 0.573123 0.209014 0.498567
27 1 0.704564 0.134427 0.502733
62 1 0.253813 0.23978 0.499311
4 1 0.210982 0.344536 0.499868
45 1 0.319078 0.232926 0.496507
11 1 0.433127 0.282282 0.501034
17 1 0.694948 0.274552 0.504416
50 1 0.0938027 0.330905 0.497492
75 1 0.315719 0.300058 0.501087
2 1 0.372138 0.433342 0.500242
69 1 0.474177 0.391486 0.498608
32 1 0.555544 0.33911 0.498432
21 1 0.665763 0.414058 0.503403
6 1 0.0879371 0.448209 0.50011
25 1 0.23211 0.469052 0.503052
18 1 0.445286 0.568581 0.499878
28 1 0.547504 0.458663 0.499456
57 1 0.0613625 0.568564 0.501787
72 1 0.101431 0.632407 0.501514
44 1 0.156344 0.575445 0.501612
15 1 0.291749 0.598703 0.499168
51 1 0.37587 0.674721 0.504831
33 1 0.870556 0.700255 0.501838
39 1 0.993134 0.650258 0.504668
40 1 0.185593 0.674706 0.493852
66 1 0.234603 0.755997 0.499029
46 1 0.304786 0.722079 0.498717
34 1 0.413509 0.769802 0.498163
26 1 0.510698 0.698821 0.503268
48 1 0.577377 0.784595 0.504902
16 1 0.119806 0.802254 0.501591
47 1 0.243436 0.838645 0.504435
7 1 0.501391 0.867545 0.504161
37 1 0.650015 0.871634 0.496697
12 1 0.785464 0.792101 0.502109
1 1 0.964932 0.79 0.504256
13 1 0.0349101 0.925141 0.49999
36 1 0.1849 0.926155 0.499052
10 1 0.33812 0.89565 0.499386
52 1 0.433514 0.974477 0.500813
49 1 0.745393 0.916863 0.494868
3 1 0.868203 0.921404 0.503262
ITEM: TIMESTEP
1750
ITEM: NUMBER OF ATOMS
56
ITEM: BOX BOUNDS pp pp pp
-4.8218003104225362e+00 4.8218003104225362e+00
-4.8391032061731698e+00 4.8391032061731698e+00
-1.0000000000000001e-01 1.0000000000000001e-01
ITEM: ATOMS id type xs ys zs
22 1 0.102464 0.0955223 0.498793
65 1 0.121069 0.983618 0.499257
78 1 0.169616 0.0232216 0.502957
58 1 0.235699 0.0622926 0.497118
24 1 0.339384 0.0372232 0.500285
74 1 0.436345 0.0671645 0.496655
41 1 0.514012 0.033303 0.498321
42 1 0.591481 0.0989399 0.503372
5 1 0.664628 0.00751009 0.4994
80 1 0.183923 0.121045 0.501105
8 1 0.145554 0.220451 0.497996
43 1 0.255031 0.154816 0.498221
55 1 0.367392 0.146051 0.4992
29 1 0.483258 0.142879 0.502133
23 1 0.573125 0.208674 0.498759
27 1 0.702803 0.13551 0.503835
62 1 0.254005 0.239827 0.499192
4 1 0.210802 0.344475 0.498805
45 1 0.319832 0.233186 0.49724
11 1 0.432768 0.282561 0.500126
17 1 0.692508 0.275343 0.504812
50 1 0.0937908 0.330468 0.499241
75 1 0.315643 0.300196 0.502394
2 1 0.371807 0.434644 0.501631
69 1 0.474194 0.391767 0.49909
32 1 0.555659 0.339221 0.498949
21 1 0.665683 0.416146 0.503924
6 1 0.0879195 0.447591 0.500853
25 1 0.231061 0.469728 0.504677
18 1 0.445306 0.568823 0.500336
28 1 0.546985 0.458656 0.499144
57 1 0.062414 0.568436 0.500073
72 1 0.101804 0.632703 0.501207
44 1 0.156484 0.575623 0.50238
15 1 0.291781 0.598178 0.498584
51 1 0.375618 0.675074 0.504075
33 1 0.870543 0.701001 0.500968
39 1 0.991893 0.648227 0.505016
40 1 0.186578 0.674833 0.493949
66 1 0.234628 0.757128 0.498828
46 1 0.303691 0.720754 0.498709
34 1 0.411444 0.770648 0.498145
26 1 0.509142 0.699649 0.502715
48 1 0.577417 0.783623 0.505424
16 1 0.120384 0.801868 0.502211
47 1 0.243305 0.839546 0.505366
7 1 0.500653 0.866022 0.506165
37 1 0.649713 0.871281 0.498371
12 1 0.784041 0.791579 0.503681
1 1 0.965793 0.788879 0.505739
13 1 0.0355267 0.924105 0.500442
36 1 0.184419 0.926448 0.499512
10 1 0.337869 0.896019 0.497644
52 1 0.43388 0.973016 0.500455
49 1 0.745659 0.917109 0.49333
3 1 0.868387 0.919359 0.501557
ITEM: TIMESTEP
2000
ITEM: NUMBER OF ATOMS
56
ITEM: BOX BOUNDS pp pp pp
-4.8205930506625503e+00 4.8205930506625503e+00
-4.8416528671012120e+00 4.8416528671012120e+00
-1.0000000000000001e-01 1.0000000000000001e-01
ITEM: ATOMS id type xs ys zs
22 1 0.102571 0.0950112 0.49973
65 1 0.121243 0.984814 0.498551
78 1 0.17077 0.0233693 0.505042
58 1 0.236821 0.0623149 0.496882
24 1 0.339832 0.0368266 0.502238
74 1 0.435646 0.0680454 0.495271
41 1 0.514006 0.034307 0.498713
42 1 0.591901 0.0986008 0.505829
5 1 0.666295 0.00843466 0.49961
80 1 0.184035 0.119882 0.501576
8 1 0.146352 0.220495 0.496796
43 1 0.255343 0.154321 0.496842
55 1 0.369271 0.145044 0.499433
29 1 0.484342 0.143505 0.502496
23 1 0.573655 0.208936 0.499823
27 1 0.70308 0.137323 0.502358
62 1 0.254473 0.239435 0.498787
4 1 0.211021 0.344132 0.499506
45 1 0.319933 0.231296 0.497226
11 1 0.432918 0.282755 0.501379
17 1 0.692824 0.277768 0.504163
50 1 0.093526 0.330403 0.499852
75 1 0.315385 0.297679 0.500691
2 1 0.371777 0.433679 0.500631
69 1 0.473923 0.391801 0.499547
32 1 0.555629 0.339559 0.498918
21 1 0.665798 0.416483 0.502621
6 1 0.0873794 0.447746 0.501256
25 1 0.231311 0.469326 0.505244
18 1 0.445183 0.568973 0.498957
28 1 0.546627 0.458849 0.500681
57 1 0.0628834 0.569245 0.500886
72 1 0.102826 0.6331 0.500082
44 1 0.157518 0.576078 0.502949
15 1 0.291818 0.598073 0.496658
51 1 0.374794 0.675072 0.505179
33 1 0.870914 0.701906 0.500609
39 1 0.992172 0.648863 0.503693
40 1 0.187349 0.675506 0.494065
66 1 0.234798 0.757574 0.498235
46 1 0.303708 0.721244 0.499043
34 1 0.411856 0.769903 0.498183
26 1 0.50884 0.698761 0.502795
48 1 0.576723 0.783082 0.506599
16 1 0.119909 0.801691 0.501238
47 1 0.24296 0.839863 0.505664
7 1 0.500282 0.866166 0.506765
37 1 0.648698 0.870793 0.495751
12 1 0.784321 0.791573 0.502996
1 1 0.966321 0.789952 0.504153
13 1 0.03568 0.925664 0.50012
36 1 0.183815 0.926888 0.499428
10 1 0.338294 0.895348 0.496173
52 1 0.434079 0.973419 0.501215
49 1 0.744962 0.916525 0.493264
3 1 0.867191 0.919993 0.500243
ITEM: TIMESTEP
2250
ITEM: NUMBER OF ATOMS
56
ITEM: BOX BOUNDS pp pp pp
-4.8193857909025644e+00 4.8193857909025644e+00
-4.8389687283642733e+00 4.8389687283642733e+00
-1.0000000000000001e-01 1.0000000000000001e-01
ITEM: ATOMS id type xs ys zs
22 1 0.101916 0.0952491 0.500215
65 1 0.120827 0.98478 0.498258
78 1 0.17024 0.0237494 0.501861
58 1 0.23663 0.0621604 0.495839
24 1 0.339139 0.0366557 0.502662
74 1 0.435385 0.0679644 0.495015
41 1 0.514217 0.0344645 0.500226
42 1 0.591874 0.100425 0.506597
5 1 0.665059 0.00934384 0.500409
80 1 0.183956 0.120266 0.50065
8 1 0.145203 0.220468 0.496764
43 1 0.255285 0.154008 0.496503
55 1 0.368613 0.145364 0.499172
29 1 0.483596 0.143027 0.502229
23 1 0.572176 0.210079 0.50151
27 1 0.702786 0.138115 0.500732
62 1 0.253744 0.239247 0.498043
4 1 0.210147 0.34387 0.499062
45 1 0.319493 0.231991 0.497681
11 1 0.432614 0.282949 0.500209
17 1 0.691348 0.278545 0.502997
50 1 0.0932086 0.32994 0.497976
75 1 0.314804 0.298951 0.501851
2 1 0.370827 0.433834 0.500227
69 1 0.473778 0.391455 0.501512
32 1 0.555946 0.339932 0.498877
21 1 0.664928 0.417844 0.502845
6 1 0.0874486 0.447082 0.502973
25 1 0.230365 0.469104 0.506745
18 1 0.444719 0.568792 0.49922
28 1 0.545761 0.459352 0.500304
57 1 0.0633417 0.568563 0.499421
72 1 0.10322 0.632606 0.49937
44 1 0.15762 0.576176 0.501254
15 1 0.291437 0.597333 0.495984
51 1 0.374926 0.674195 0.50507
33 1 0.871389 0.70121 0.500253
39 1 0.993131 0.648679 0.504513
40 1 0.187181 0.675679 0.495775
66 1 0.234452 0.758211 0.499971
46 1 0.302454 0.720709 0.499105
34 1 0.411771 0.769036 0.498115
26 1 0.50938 0.69893 0.502173
48 1 0.57783 0.782966 0.506561
16 1 0.12076 0.802598 0.499695
47 1 0.243275 0.840774 0.505544
7 1 0.500798 0.865772 0.506083
37 1 0.64969 0.870329 0.498718
12 1 0.784449 0.791747 0.501254
1 1 0.966906 0.789014 0.502439
13 1 0.0360218 0.925603 0.497431
36 1 0.183291 0.926846 0.499607
10 1 0.338484 0.896077 0.494817
52 1 0.434468 0.973399 0.501393
49 1 0.745072 0.917567 0.493491
3 1 0.868031 0.919344 0.499648
ITEM: TIMESTEP
2500
ITEM: NUMBER OF ATOMS
56
ITEM: BOX BOUNDS pp pp pp
-4.8181785311425784e+00 4.8181785311425784e+00
-4.8312234329465369e+00 4.8312234329465369e+00
-1.0000000000000001e-01 1.0000000000000001e-01
ITEM: ATOMS id type xs ys zs
22 1 0.101315 0.0943813 0.500845
65 1 0.121636 0.984467 0.497764
78 1 0.170489 0.0237446 0.500786
58 1 0.237203 0.0615037 0.495435
24 1 0.339926 0.0352307 0.50119
74 1 0.435923 0.0678691 0.492997
41 1 0.514413 0.0339568 0.499224
42 1 0.591857 0.100059 0.50643
5 1 0.66409 0.00821672 0.500533
80 1 0.183349 0.118865 0.501612
8 1 0.145106 0.219907 0.495045
43 1 0.254188 0.153728 0.49752
55 1 0.368292 0.145026 0.49966
29 1 0.48329 0.143677 0.503717
23 1 0.572653 0.209976 0.498659
27 1 0.704014 0.136945 0.501166
62 1 0.253854 0.238796 0.499279
4 1 0.209988 0.343598 0.501924
45 1 0.319395 0.23147 0.495843
11 1 0.431942 0.283119 0.503213
17 1 0.69201 0.277411 0.500746
50 1 0.0931138 0.330008 0.499055
75 1 0.314338 0.298351 0.50168
2 1 0.369766 0.433914 0.500086
69 1 0.472368 0.392292 0.501392
32 1 0.554958 0.3404 0.501733
21 1 0.66483 0.41689 0.502849
6 1 0.0869688 0.447093 0.502232
25 1 0.229944 0.469457 0.507187
18 1 0.444669 0.568668 0.499549
28 1 0.545107 0.459942 0.50004
57 1 0.0628828 0.568375 0.500623
72 1 0.102535 0.632745 0.499595
44 1 0.157283 0.575597 0.501146
15 1 0.291512 0.597618 0.495767
51 1 0.375367 0.67448 0.504561
33 1 0.870774 0.7024 0.499951
39 1 0.992477 0.648692 0.505507
40 1 0.186677 0.675342 0.495939
66 1 0.235458 0.756659 0.499624
46 1 0.304266 0.72087 0.498911
34 1 0.412394 0.769515 0.499024
26 1 0.510135 0.6983 0.503351
48 1 0.578699 0.782249 0.50742
16 1 0.119334 0.802441 0.498353
47 1 0.242423 0.839156 0.506332
7 1 0.501834 0.865462 0.505445
37 1 0.651089 0.869692 0.49946
12 1 0.783975 0.791871 0.499187
1 1 0.966471 0.790258 0.501322
13 1 0.0347475 0.926651 0.496458
36 1 0.184179 0.926943 0.498028
10 1 0.337966 0.895217 0.493656
52 1 0.435219 0.97255 0.500881
49 1 0.745534 0.917188 0.493046
3 1 0.868148 0.920483 0.498589
ITEM: TIMESTEP
2750
ITEM: NUMBER OF ATOMS
56
ITEM: BOX BOUNDS pp pp pp
-4.8169712713825925e+00 4.8169712713825925e+00
-4.8325487667742255e+00 4.8325487667742255e+00
-1.0000000000000001e-01 1.0000000000000001e-01
ITEM: ATOMS id type xs ys zs
22 1 0.10136 0.093962 0.502787
65 1 0.120915 0.98405 0.496977
78 1 0.170266 0.0229497 0.49972
58 1 0.236605 0.0610876 0.494376
24 1 0.339889 0.0356737 0.502392
74 1 0.435709 0.067847 0.491119
41 1 0.514891 0.0352712 0.498501
42 1 0.592263 0.10075 0.505387
5 1 0.665398 0.00983238 0.501522
80 1 0.183568 0.11841 0.502507
8 1 0.144422 0.219248 0.495136
43 1 0.254389 0.153183 0.498021
55 1 0.36797 0.144659 0.49899
29 1 0.483433 0.143746 0.500524
23 1 0.572597 0.210849 0.49932
27 1 0.703793 0.137971 0.502064
62 1 0.25367 0.237926 0.499397
4 1 0.209559 0.342536 0.503084
45 1 0.319506 0.231441 0.495236
11 1 0.432037 0.283403 0.502695
17 1 0.693568 0.277549 0.502378
50 1 0.0925372 0.328936 0.49812
75 1 0.314475 0.298237 0.501779
2 1 0.369635 0.433507 0.499229
69 1 0.472509 0.393254 0.503098
32 1 0.554553 0.34069 0.501542
21 1 0.664361 0.416719 0.504489
6 1 0.0861294 0.446426 0.501549
25 1 0.229604 0.46846 0.50735
18 1 0.444957 0.567337 0.501717
28 1 0.544902 0.460799 0.499968
57 1 0.0609536 0.568184 0.503237
72 1 0.101433 0.63214 0.49979
44 1 0.155393 0.574677 0.500487
15 1 0.291372 0.597271 0.498371
51 1 0.375565 0.673827 0.507225
33 1 0.871033 0.701725 0.501394
39 1 0.99184 0.649426 0.506086
40 1 0.185766 0.674201 0.496017
66 1 0.234744 0.755702 0.499073
46 1 0.304439 0.720663 0.49901
34 1 0.413232 0.76956 0.499104
26 1 0.510338 0.697724 0.503942
48 1 0.577569 0.782921 0.507914
16 1 0.119836 0.802098 0.499153
47 1 0.243549 0.838866 0.506286
7 1 0.501578 0.866276 0.505293
37 1 0.650467 0.870417 0.499087
12 1 0.783334 0.791872 0.49739
1 1 0.965305 0.79013 0.499829
13 1 0.0350101 0.925555 0.496554
36 1 0.184361 0.926578 0.499111
10 1 0.338775 0.895587 0.494464
52 1 0.43537 0.973488 0.499807
49 1 0.745123 0.917906 0.493401
3 1 0.867108 0.920125 0.498112
ITEM: TIMESTEP
3000
ITEM: NUMBER OF ATOMS
56
ITEM: BOX BOUNDS pp pp pp
-4.8157640116226066e+00 4.8157640116226066e+00
-4.8253987888269894e+00 4.8253987888269894e+00
-1.0000000000000001e-01 1.0000000000000001e-01
ITEM: ATOMS id type xs ys zs
22 1 0.100571 0.0934278 0.501552
65 1 0.120701 0.983375 0.498947
78 1 0.169507 0.0230413 0.499576
58 1 0.23641 0.0604189 0.4943
24 1 0.339634 0.0362707 0.501495
74 1 0.435975 0.0684487 0.489739
41 1 0.514899 0.0342833 0.49725
42 1 0.592176 0.100271 0.506992
5 1 0.665991 0.00996663 0.501236
80 1 0.182835 0.118052 0.503109
8 1 0.144312 0.218968 0.495261
43 1 0.254054 0.152724 0.4981
55 1 0.369673 0.145235 0.498618
29 1 0.48494 0.143956 0.49894
23 1 0.573621 0.211031 0.498603
27 1 0.704338 0.138273 0.502405
62 1 0.253401 0.237847 0.4983
4 1 0.208869 0.34286 0.50381
45 1 0.319098 0.231076 0.496816
11 1 0.432136 0.283576 0.501625
17 1 0.693773 0.278593 0.501292
50 1 0.091786 0.328818 0.496818
75 1 0.314019 0.298209 0.501027
2 1 0.368701 0.433169 0.500099
69 1 0.472269 0.393138 0.503813
32 1 0.554791 0.340772 0.501762
21 1 0.664847 0.418064 0.504476
6 1 0.0849387 0.446862 0.499676
25 1 0.228148 0.468304 0.507389
18 1 0.444351 0.566799 0.501666
28 1 0.545185 0.460136 0.501333
57 1 0.0603305 0.568218 0.504678
72 1 0.10033 0.632298 0.499727
44 1 0.154846 0.574698 0.49993
15 1 0.290905 0.596805 0.497142
51 1 0.37567 0.672975 0.506661
33 1 0.86914 0.700803 0.502151
39 1 0.990593 0.6489 0.506527
40 1 0.18472 0.674073 0.496154
66 1 0.234565 0.755402 0.499755
46 1 0.304239 0.720499 0.500269
34 1 0.413255 0.7683 0.496726
26 1 0.510088 0.696681 0.503361
48 1 0.577317 0.782027 0.507824
16 1 0.119371 0.802792 0.501499
47 1 0.242792 0.838283 0.505985
7 1 0.50177 0.865624 0.50488
37 1 0.650566 0.869239 0.499679
12 1 0.783476 0.791805 0.496439
1 1 0.963252 0.790147 0.501393
13 1 0.0335809 0.925373 0.494776
36 1 0.185191 0.926838 0.497381
10 1 0.338492 0.894461 0.493788
52 1 0.434623 0.973339 0.499386
49 1 0.744495 0.917002 0.492201
3 1 0.86608 0.922144 0.499048
ITEM: TIMESTEP
3250
ITEM: NUMBER OF ATOMS
56
ITEM: BOX BOUNDS pp pp pp
-4.8145567518626207e+00 4.8145567518626207e+00
-4.8298269462997325e+00 4.8298269462997325e+00
-1.0000000000000001e-01 1.0000000000000001e-01
ITEM: ATOMS id type xs ys zs
22 1 0.100592 0.0943949 0.502854
65 1 0.121147 0.983279 0.498201
78 1 0.169751 0.0231164 0.499832
58 1 0.236022 0.061347 0.49347
24 1 0.339479 0.0376305 0.5008
74 1 0.435781 0.068751 0.489858
41 1 0.51434 0.0345642 0.494445
42 1 0.592611 0.100491 0.506705
5 1 0.665342 0.00962739 0.503152
80 1 0.182893 0.11881 0.503362
8 1 0.143847 0.219105 0.496431
43 1 0.253842 0.153672 0.498805
55 1 0.369374 0.145911 0.498063
29 1 0.484369 0.144368 0.497329
23 1 0.573703 0.210658 0.500813
27 1 0.703989 0.137718 0.503794
62 1 0.252648 0.238904 0.498931
4 1 0.208492 0.343562 0.505573
45 1 0.318391 0.231914 0.498686
11 1 0.431092 0.283057 0.502626
17 1 0.694007 0.278327 0.500705
50 1 0.0912144 0.329029 0.496646
75 1 0.313501 0.29892 0.501839
2 1 0.368259 0.433512 0.501195
69 1 0.471485 0.392625 0.50316
32 1 0.55366 0.340498 0.501692
21 1 0.663524 0.417321 0.505436
6 1 0.0846432 0.44722 0.500828
25 1 0.228185 0.469162 0.507711
18 1 0.443487 0.567247 0.500804
28 1 0.544393 0.459913 0.500028
57 1 0.0590625 0.568485 0.507338
72 1 0.100284 0.632377 0.500012
44 1 0.153684 0.574561 0.499107
15 1 0.289622 0.597486 0.494869
51 1 0.374955 0.67304 0.505499
33 1 0.868474 0.70067 0.501452
39 1 0.989876 0.649664 0.506938
40 1 0.184172 0.674418 0.495625
66 1 0.234167 0.755516 0.499619
46 1 0.303624 0.720629 0.502526
34 1 0.412388 0.768432 0.497417
26 1 0.509874 0.696451 0.501896
48 1 0.576723 0.78182 0.508216
16 1 0.119895 0.802193 0.500431
47 1 0.243293 0.838449 0.506815
7 1 0.500696 0.866023 0.505879
37 1 0.649589 0.868716 0.500679
12 1 0.783157 0.792389 0.496902
1 1 0.963094 0.789772 0.500305
13 1 0.0341683 0.92525 0.495719
36 1 0.185163 0.926705 0.499016
10 1 0.338348 0.895194 0.495241
52 1 0.434139 0.974053 0.497653
49 1 0.744178 0.916884 0.491046
3 1 0.866953 0.921642 0.499472
ITEM: TIMESTEP
3500
ITEM: NUMBER OF ATOMS
56
ITEM: BOX BOUNDS pp pp pp
-4.8133494921026347e+00 4.8133494921026347e+00
-4.8321800271647524e+00 4.8321800271647524e+00
-1.0000000000000001e-01 1.0000000000000001e-01
ITEM: ATOMS id type xs ys zs
22 1 0.1008 0.094242 0.505136
65 1 0.120729 0.982749 0.498298
78 1 0.1694 0.0226381 0.500543
58 1 0.236139 0.0615527 0.494671
24 1 0.339637 0.0378037 0.501719
74 1 0.436434 0.0681127 0.489523
41 1 0.514927 0.0345935 0.496123
42 1 0.592441 0.100543 0.505939
5 1 0.665127 0.00969243 0.503003
80 1 0.183337 0.119216 0.503807
8 1 0.144556 0.219184 0.495921
43 1 0.254671 0.15376 0.496491
55 1 0.369823 0.146203 0.497665
29 1 0.484692 0.143873 0.497154
23 1 0.574207 0.210468 0.501073
27 1 0.704118 0.138133 0.502645
62 1 0.25331 0.239349 0.499293
4 1 0.208385 0.343378 0.506219
45 1 0.318812 0.230768 0.497745
11 1 0.431166 0.28269 0.503338
17 1 0.694447 0.278792 0.500001
50 1 0.0912893 0.329052 0.495587
75 1 0.313228 0.29779 0.502438
2 1 0.36835 0.432453 0.499439
69 1 0.4716 0.392212 0.503277
32 1 0.553675 0.340496 0.50208
21 1 0.663366 0.417978 0.506097
6 1 0.084616 0.44695 0.499509
25 1 0.228749 0.468682 0.50418
18 1 0.44273 0.566494 0.501685
28 1 0.544275 0.459976 0.499633
57 1 0.0597913 0.5683 0.507671
72 1 0.100324 0.632309 0.500277
44 1 0.154593 0.575261 0.497735
15 1 0.289698 0.597947 0.493062
51 1 0.374918 0.673689 0.505703
33 1 0.86849 0.701154 0.503309
39 1 0.989326 0.648303 0.505235
40 1 0.184447 0.674509 0.49481
66 1 0.234272 0.755822 0.499573
46 1 0.30336 0.720533 0.501514
34 1 0.411354 0.769675 0.498419
26 1 0.507941 0.697664 0.501999
48 1 0.576033 0.782272 0.508667
16 1 0.119035 0.801835 0.502667
47 1 0.243206 0.838489 0.506721
7 1 0.499784 0.865621 0.50568
37 1 0.649968 0.868331 0.501803
12 1 0.783654 0.792383 0.496106
1 1 0.962943 0.789513 0.500951
13 1 0.0335286 0.924671 0.496314
36 1 0.184349 0.926057 0.497708
10 1 0.337681 0.896255 0.493108
52 1 0.434471 0.973729 0.496607
49 1 0.744361 0.917403 0.492072
3 1 0.866964 0.921646 0.497428
ITEM: TIMESTEP
3750
ITEM: NUMBER OF ATOMS
56
ITEM: BOX BOUNDS pp pp pp
-4.8121422323426488e+00 4.8121422323426488e+00
-4.8299495706318352e+00 4.8299495706318352e+00
-1.0000000000000001e-01 1.0000000000000001e-01
ITEM: ATOMS id type xs ys zs
22 1 0.101136 0.0937738 0.505849
65 1 0.12118 0.982017 0.497456
78 1 0.169405 0.0225218 0.501149
58 1 0.236071 0.0611433 0.496044
24 1 0.33958 0.0366396 0.502026
74 1 0.436225 0.0672879 0.491892
41 1 0.514585 0.0338311 0.497039
42 1 0.59202 0.0996599 0.506455
5 1 0.665059 0.00973332 0.503078
80 1 0.183032 0.118837 0.504142
8 1 0.143825 0.219124 0.497103
43 1 0.254041 0.153312 0.497115
55 1 0.369036 0.145484 0.497141
29 1 0.484465 0.143286 0.496671
23 1 0.573856 0.20977 0.501357
27 1 0.703046 0.138613 0.502148
62 1 0.252249 0.238588 0.498771
4 1 0.209064 0.343356 0.506099
45 1 0.317843 0.231153 0.495902
11 1 0.43147 0.282233 0.50494
17 1 0.693192 0.279443 0.498937
50 1 0.0916613 0.328746 0.495815
75 1 0.31379 0.298167 0.502451
2 1 0.368689 0.432838 0.497311
69 1 0.471717 0.391749 0.504695
32 1 0.554557 0.340354 0.501596
21 1 0.663932 0.418449 0.505265
6 1 0.0847399 0.446539 0.497944
25 1 0.227855 0.468709 0.504123
18 1 0.44368 0.567401 0.503045
28 1 0.543685 0.459667 0.497177
57 1 0.0605417 0.568474 0.50847
72 1 0.100531 0.632593 0.50077
44 1 0.155104 0.575283 0.49596
15 1 0.290133 0.597642 0.494574
51 1 0.37456 0.673808 0.507329
33 1 0.868496 0.700409 0.503523
39 1 0.990224 0.648549 0.506277
40 1 0.184642 0.675052 0.494909
66 1 0.234041 0.756027 0.499683
46 1 0.303438 0.720748 0.499943
34 1 0.412812 0.768764 0.497613
26 1 0.510534 0.696648 0.502137
48 1 0.577126 0.782002 0.509495
16 1 0.119058 0.802495 0.502723
47 1 0.243907 0.838659 0.504882
7 1 0.501548 0.866155 0.505551
37 1 0.651387 0.868045 0.500495
12 1 0.783847 0.792995 0.495411
1 1 0.963563 0.789453 0.50067
13 1 0.0336561 0.925115 0.494404
36 1 0.18581 0.926188 0.496659
10 1 0.33895 0.894508 0.494723
52 1 0.434434 0.97282 0.496478
49 1 0.744809 0.918007 0.491796
3 1 0.867426 0.922291 0.496088
ITEM: TIMESTEP
4000
ITEM: NUMBER OF ATOMS
56
ITEM: BOX BOUNDS pp pp pp
-4.8109349725826629e+00 4.8109349725826629e+00
-4.8238543203591053e+00 4.8238543203591053e+00
-1.0000000000000001e-01 1.0000000000000001e-01
ITEM: ATOMS id type xs ys zs
22 1 0.0999294 0.0948756 0.504192
65 1 0.121202 0.981434 0.497457
78 1 0.168737 0.0230513 0.500804
58 1 0.23572 0.0607155 0.497049
24 1 0.338552 0.03575 0.498972
74 1 0.435187 0.0678792 0.489563
41 1 0.513983 0.0342301 0.496963
42 1 0.592004 0.0998815 0.505664
5 1 0.665986 0.0098174 0.504835
80 1 0.182662 0.118833 0.505608
8 1 0.143517 0.219521 0.498102
43 1 0.254052 0.152805 0.496981
55 1 0.36873 0.145216 0.496474
29 1 0.484084 0.143243 0.496717
23 1 0.572599 0.209988 0.502418
27 1 0.702961 0.138668 0.502827
62 1 0.252342 0.238194 0.497977
4 1 0.209374 0.343215 0.505102
45 1 0.318226 0.230679 0.496043
11 1 0.431515 0.281904 0.503953
17 1 0.692209 0.279302 0.497717
50 1 0.0917366 0.329436 0.495919
75 1 0.314482 0.297829 0.502364
2 1 0.368519 0.432298 0.49889
69 1 0.471722 0.39191 0.504422
32 1 0.554258 0.340705 0.502552
21 1 0.663222 0.41912 0.50411
6 1 0.0854793 0.446723 0.497893
25 1 0.229107 0.468959 0.505162
18 1 0.444015 0.566266 0.503148
28 1 0.543623 0.460493 0.498534
57 1 0.0602853 0.568344 0.509141
72 1 0.100112 0.632944 0.502666
44 1 0.15475 0.575426 0.493413
15 1 0.291437 0.597544 0.494608
51 1 0.37656 0.673854 0.506294
33 1 0.867384 0.700263 0.504072
39 1 0.989534 0.647965 0.505734
40 1 0.185218 0.674484 0.493561
66 1 0.235074 0.755521 0.500267
46 1 0.305009 0.721032 0.498381
34 1 0.413558 0.769514 0.496859
26 1 0.510104 0.696261 0.50168
48 1 0.57731 0.781478 0.510348
16 1 0.119494 0.803064 0.502025
47 1 0.243341 0.838372 0.503922