LAMMPS (23 Jun 2022 - Update 4)
  using 1 OpenMP thread(s) per MPI task
# Compute elastic constant tensor for a crystal
#
# Written by Aidan Thompson (Sandia, athomps@sandia.gov)
#
#  This script uses the following three include files.
#
#   init.mod      (must be modified for different crystal structures)
# 	       	  Define units, deformation parameters and initial
#		  configuration of the atoms and simulation cell.
#
#
#   potential.mod    (must be modified for different pair styles)
# 		     Define pair style and other attributes
#		     not stored in restart file
#
#
#   displace.mod    (displace.mod should not need to be modified)
# 		    Perform positive and negative box displacements
# 		    in direction ${dir} and size ${up}.
# 		    It uses the resultant changes
#		    in stress to compute one
# 		    row of the elastic stiffness tensor
#
#		    Inputs variables:
#		    	   dir = the Voigt deformation component
#		    		    (1,2,3,4,5,6)
#		    Global constants:
#       	    	   up = the deformation magnitude (strain units)
#       		   cfac = conversion from LAMMPS pressure units to
#               	   output units for elastic constants
#
#
#  To run this on a different system, it should only be necessary to
#  modify the files init.mod and potential.mod. In order to calculate
#  the elastic constants correctly, care must be taken to specify
#  the correct units in init.mod (units, cfac and cunits). It is also
#  important to verify that the minimization of energy w.r.t atom
#  positions in the deformed cell is fully converged.
#  One indication of this is that the elastic constants are insensitive
#  to the choice of the variable ${up} in init.mod. Another is to check
#  the final max and two-norm forces reported in the log file. If you know
#  that minimization is not required, you can set maxiter = 0.0 in
#  init.mod.
#



variable dt equal 0.01
variable strain equal 0.05
variable srate equal 1e-4
variable M equal 1000 # averaging time for properties
variable strainsteps equal ${strain}/${dt}/${srate}
variable strainsteps equal 0.05/${dt}/${srate}
variable strainsteps equal 0.05/0.01/${srate}
variable strainsteps equal 0.05/0.01/0.0001


dimension 2
include init.mod
# NOTE: This script can be modified for different atomic structures,
# units, etc. See in.elastic for more info.
#

# Define the finite deformation size. Try several values of this
# variable to verify that results do not depend on it.
variable up equal 1.0e-1

# Define the amount of random jiggle for atoms
# This prevents atoms from staying on saddle points
variable atomjiggle equal 1.0e-6

# Uncomment one of these blocks, depending on what units
# you are using in LAMMPS and for output

# metal units, elastic constants in eV/A^3
#units		metal
#variable cfac equal 6.2414e-7
#variable cunits string eV/A^3

# Choose potential
# metal units, elastic constants in GPa
units		metal
atom_style	full
#pair_style      lj/cut 1.0
#pair_style      yukawa 1.0 2.0
#pair_modify     mix arithmetic
bond_style      harmonic
angle_style     harmonic
dihedral_style  zero
special_bonds   amber
variable cfac equal 1.0e-4
variable cunits string GPa
boundary	p p p

# Need to set mass to something, just to satisfy LAMMPS
#mass 1 1.0e-20
read_data network.lmp
Reading data file ...
  orthogonal box = (-4.829036 -4.829036 -0.1) to (4.829036 4.829036 0.1)
  1 by 1 by 1 MPI processor grid
WARNING: Atom style in data file differs from currently defined atom style (src/read_data.cpp:538)
  reading atoms ...
  56 atoms
WARNING: Bond style in data file differs from currently defined bond style (src/read_data.cpp:630)
  scanning bonds ...
  4 = max bonds/atom
  reading bonds ...
  115 bonds
Finding 1-2 1-3 1-4 neighbors ...
  special bond factors lj:    0        0        0.5     
  special bond factors coul:  0        0        0.8333333333333334
     6 = max # of 1-2 neighbors
    23 = max # of 1-3 neighbors
   101 = max # of 1-4 neighbors
    29 = max # of special neighbors
  special bonds CPU = 0.000 seconds
  read_data CPU = 0.003 seconds

# real units, elastic constants in GPa
#units		real
#variable cfac equal 1.01325e-4
#variable cunits string GPa

# Define minimization parameters
variable etol equal 0.0
variable ftol equal 5.0e-10
variable maxiter equal 100000
variable maxeval equal 20000
variable dmax equal 1.0e-2


include potential.mod
# NOTE: This script can be modified for different pair styles
# See in.elastic for more info.

# Setup neighbor style
neighbor 3.0 nsq
neigh_modify once no every 1 delay 0 check yes
comm_modify cutoff 2.0

# Setup minimization style
min_style	     cg
min_modify	     dmax ${dmax} line quadratic
min_modify	     dmax 0.01 line quadratic

timestep	0.001


# Setup output
thermo		500
thermo_style custom step temp pe ebond eangle edihed press pxx pyy pzz pxy pxz pyz lx ly lz vol
thermo_modify norm no


#change_box all triclinic
comm_modify mode single cutoff 10.0 vel yes
atom_modify sort 0 0



# Compute initial state

#dump rela all atom 1 traj_relax.lmpstrj
fix 3 all box/relax x 0 y 0 # xy 0  #MS comment: relax if the network is periodic
minimize ${etol} ${ftol} ${maxiter} ${maxeval}
minimize 0 ${ftol} ${maxiter} ${maxeval}
minimize 0 5e-10 ${maxiter} ${maxeval}
minimize 0 5e-10 100000 ${maxeval}
minimize 0 5e-10 100000 20000
Neighbor list info ...
  update every 1 steps, delay 0 steps, check yes
  max neighbors/atom: 2000, page size: 100000
  master list distance cutoff = 0
  ghost atom cutoff = 10
  0 neighbor lists, perpetual/occasional/extra = 0 0 0
WARNING: Inconsistent image flags (src/domain.cpp:819)
Per MPI rank memory allocation (min/avg/max) = 8.65 | 8.65 | 8.65 Mbytes
   Step          Temp          PotEng         E_bond        E_angle        E_dihed         Press           Pxx            Pyy            Pzz            Pxy            Pxz            Pyz             Lx             Ly             Lz           Volume    
         0   0              2.2873206e-11  2.2873206e-11  0              0             -0.0034413612  -0.026394694    0.019511972    0             -0.033200089    0              0              9.658072       9.658072       0.2            93.278355    
       251   0              2.615635e-19   2.615635e-19   0              0              8.3655685e-07  9.4509233e-07  7.2802138e-07  0              4.8296267e-06  0              0              9.6580781      9.6580713      0.2            93.278407    
Loop time of 0.0134879 on 1 procs for 251 steps with 56 atoms

92.9% CPU use with 1 MPI tasks x 1 OpenMP threads

Minimization stats:
  Stopping criterion = force tolerance
  Energy initial, next-to-last, final = 
    2.28732063390206e-11 3.00286573447302e-19 2.61563503940041e-19
  Force two-norm initial, final = 1.6807271e-05 4.6996194e-10
  Force max component initial, final = 4.4189374e-06 2.2961891e-10
  Final line search alpha, max atom move = 1 2.2961891e-10
  Iterations, force evaluations = 251 502

MPI task timing breakdown:
Section |  min time  |  avg time  |  max time  |%varavg| %total
---------------------------------------------------------------
Pair    | 0          | 0          | 0          |   0.0 |  0.00
Bond    | 0.0018019  | 0.0018019  | 0.0018019  |   0.0 | 13.36
Neigh   | 0          | 0          | 0          |   0.0 |  0.00
Comm    | 0.0040685  | 0.0040685  | 0.0040685  |   0.0 | 30.16
Output  | 0          | 0          | 0          |   0.0 |  0.00
Modify  | 0          | 0          | 0          |   0.0 |  0.00
Other   |            | 0.007618   |            |       | 56.48

Nlocal:             56 ave          56 max          56 min
Histogram: 1 0 0 0 0 0 0 0 0 0
Nghost:            469 ave         469 max         469 min
Histogram: 1 0 0 0 0 0 0 0 0 0
Neighs:              0 ave           0 max           0 min
Histogram: 1 0 0 0 0 0 0 0 0 0

Total # of neighbors = 0
Ave neighs/atom = 0
Ave special neighs/atom = 21.214286
Neighbor list builds = 0
Dangerous builds = 0
#dump rela all atom 1 traj_relax.lmpstrj
thermo 100
unfix 3

fix 2d all enforce2d



#dump dump0 all xyz 1000000 cfg0.xyz
#dump_modify dump0 format line "%d %20.10g %20.10g %20.10g"
#minimize ${etol} ${ftol} ${maxiter} ${maxeval}

#undump rela

#write_restart restart.equil

# These formulas define the derivatives w.r.t. strain components
# Constants uses $, variables use v_


timestep        ${dt}
timestep        0.01
variable nsteps equal round(${strainsteps})
variable nsteps equal round(50000)

fix             4 all nve
fix             5 all langevin 0.1 0.1 1 904297
#fix		6 all press/berendsen y  0.0 0.0 1 x 0.0 0.0 10
fix             6 all nph y 0.0 0.0 10 ptemp 0.1 # x 0.0 0.0 10

# For PLUMED2
# fix 22 all plumed plumedfile plumed.dat outfile plumed.out

#fix             6 all nph x 0.0 0.0 10
fix     	9 all deform 1 x erate -${srate} units box remap x
fix     	9 all deform 1 x erate -0.0001 units box remap x

#fix     8 all deform 1 xy erate ${srate} units box remap x



#fix    10 all ave/time

dump 1 all atom 250 deform_dump.lammpstrj


#To avoid flying ice cube phenomenon:
#fix 21 all momentum 100 linear 1 1 1 angular


run  ${nsteps}
run  50000
WARNING: One or more atoms are time integrated more than once (src/modify.cpp:292)
WARNING: Inconsistent image flags (src/domain.cpp:819)
Per MPI rank memory allocation (min/avg/max) = 7.525 | 7.525 | 7.525 Mbytes
   Step          Temp          PotEng         E_bond        E_angle        E_dihed         Press           Pxx            Pyy            Pzz            Pxy            Pxz            Pyz             Lx             Ly             Lz           Volume    
       251   0              2.615635e-19   2.615635e-19   0              0              8.3655685e-07  9.4509233e-07  7.2802138e-07  0              4.8296267e-06  0              0              9.6580781      9.6580713      0.2            93.278407    
       300   0.14572603     0.0004496757   0.0004496757   0              0             -75.070586     -213.443        63.133635      0             -19.138415      0              0              9.6576048      9.6596489      0.2            93.289072    
       400   0.24079225     0.00085766084  0.00085766084  0              0             -4.6558765     -55.831988      46.347753      0             -224.4613       0              0              9.656639       9.657671       0.2            93.260643    
       500   0.18045287     0.00088895963  0.00088895963  0              0             -791.25011     -1384.6485     -198.00907      0              110.32164      0              0              9.6556732      9.6628622      0.2            93.30144     
       600   0.18903493     0.00071715042  0.00071715042  0              0             -274.55258     -443.16104     -106.10385      0              127.6432       0              0              9.6547074      9.6632801      0.2            93.296142    
       700   0.17495488     0.00079329175  0.00079329175  0              0              307.64376      433.34694      181.80223      0             -261.89223      0              0              9.6537416      9.6562996      0.2            93.219421    
       800   0.19038471     0.00098780969  0.00098780969  0              0             -93.394302     -461.9559       274.99244      0             -102.59402      0              0              9.6527758      9.6615598      0.2            93.26087     
       900   0.20408641     0.0007970737   0.0007970737   0              0              245.65881      665.32311     -174.13386      0             -232.47891      0              0              9.65181        9.6637453      0.2            93.272633    
      1000   0.16998089     0.0011117818   0.0011117818   0              0              104.52246      575.01916     -366.13857      0             -128.88814      0              0              9.6508442      9.6675583      0.2            93.300098    
      1100   0.16626378     0.0010909626   0.0010909626   0              0              132.88443      222.47819      43.146563      0             -282.86449      0              0              9.6498784      9.6675125      0.2            93.29032     
      1200   0.22744717     0.00096573761  0.00096573761  0              0              484.02956      562.5006       405.40077      0              272.01103      0              0              9.6489126      9.657617       0.2            93.185502    
      1300   0.15905827     0.00078179445  0.00078179445  0              0              212.50779      224.53397      200.31251      0             -45.679303      0              0              9.6479468      9.6514177      0.2            93.116364    
      1400   0.19142762     0.000850441    0.000850441    0              0             -628.15892     -936.13437     -320.33695      0             -227.4667       0              0              9.6469809      9.6616828      0.2            93.20607     
      1500   0.19622874     0.0006696562   0.0006696562   0              0             -394.93649     -568.00945     -222.03772      0             -162.4769       0              0              9.6460151      9.6653699      0.2            93.232304    
      1600   0.19208545     0.001043899    0.001043899    0              0              176.41968      108.14128      244.54251      0             -230.86647      0              0              9.6450493      9.6592183      0.2            93.163637    
      1700   0.26636573     0.00085508931  0.00085508931  0              0              69.200768     -244.09493      382.29777      0              333.38424      0              0              9.6440835      9.6675863      0.2            93.235009    
      1800   0.20408546     0.0010605344   0.0010605344   0              0             -74.680074     -265.98874      116.4303       0              177.10937      0              0              9.6431177      9.6773488      0.2            93.319814    
      1900   0.20149436     0.00076032049  0.00076032049  0              0             -116.2625       31.873895     -264.58139      0              555.21933      0              0              9.6421519      9.6746943      0.2            93.284872    
      2000   0.17847687     0.00096638826  0.00096638826  0              0              24.974559      406.16619     -356.38714      0             -42.192252      0              0              9.6411861      9.6833057      0.2            93.358553    
      2100   0.18073306     0.001297854    0.001297854    0              0             -237.23692     -457.39664     -17.25904       0              481.43783      0              0              9.6402203      9.6787762      0.2            93.305535    
      2200   0.20661106     0.00076223789  0.00076223789  0              0              45.917803     -420.44025      512.08849      0              365.26706      0              0              9.6392545      9.6749815      0.2            93.259609    
      2300   0.26654694     0.0010346176   0.0010346176   0              0              253.2393       84.255162      422.0685       0              1074.3579      0              0              9.6382887      9.6698979      0.2            93.201268    
      2400   0.23903675     0.00095556249  0.00095556249  0              0             -138.37472      75.622288     -352.56353      0              882.41253      0              0              9.6373229      9.6666194      0.2            93.160332    
      2500   0.25676574     0.00082400517  0.00082400517  0              0             -296.06566     -2.412458      -589.86173      0              538.70961      0              0              9.6363571      9.6624469      0.2            93.110788    
      2600   0.24008637     0.0010242773   0.0010242773   0              0              168.46335      315.65413      21.112262      0              134.4961       0              0              9.6353913      9.6553505      0.2            93.03308     
      2700   0.19549796     0.0010026602   0.0010026602   0              0              247.10671     -137.1625       631.19651      0             -14.979272      0              0              9.6344254      9.6539775      0.2            93.010527    
      2800   0.18675621     0.0010608313   0.0010608313   0              0              80.175996     -175.67324      335.87109      0              84.800094      0              0              9.6334596      9.6541716      0.2            93.003072    
      2900   0.22822523     0.0011149948   0.0011149948   0              0             -881.35998     -1241.2589     -521.61944      0             -511.29073      0              0              9.6324938      9.6509369      0.2            92.96259     
      3000   0.21241707     0.00097756651  0.00097756651  0              0             -690.69277     -778.53794     -602.99168      0              90.406924      0              0              9.631528       9.6507976      0.2            92.951927    
      3100   0.20614313     0.0011331684   0.0011331684   0              0              99.08819       75.741375      122.24204      0             -219.81764      0              0              9.6305622      9.6509385      0.2            92.943963    
      3200   0.19656931     0.00088964312  0.00088964312  0              0              486.11663      291.252        680.78217      0             -174.78721      0              0              9.6295964      9.6530812      0.2            92.955276    
      3300   0.16151612     0.001023085    0.001023085    0              0              17.072028     -197.59117      231.60606      0             -1040.5293      0              0              9.6286306      9.6560002      0.2            92.974059    
      3400   0.17951754     0.00099392075  0.00099392075  0              0             -583.51004     -598.10691     -569.08645      0             -666.44947      0              0              9.6276648      9.6635984      0.2            93.037886    
      3500   0.26743976     0.00085182768  0.00085182768  0              0             -377.5714      -343.32878     -411.97244      0             -1281.1289      0              0              9.626699       9.6643601      0.2            93.035885    
      3600   0.23825603     0.00096280722  0.00096280722  0              0              587.93112      644.66738      531.01812      0             -384.44289      0              0              9.6257332      9.6521179      0.2            92.908711    
      3700   0.20811389     0.001022406    0.001022406    0              0              539.8828       407.7619       671.82408      0             -557.27151      0              0              9.6247674      9.6561527      0.2            92.938223    
      3800   0.19496657     0.0008457364   0.0008457364   0              0              99.567976      377.48624     -178.53799      0             -419.63591      0              0              9.6238016      9.6571019      0.2            92.938033    
      3900   0.16864785     0.00091275372  0.00091275372  0              0             -556.6242      -385.65963     -727.78874      0             -345.8544       0              0              9.6228358      9.6642481      0.2            92.997472    
      4000   0.28444122     0.00098523075  0.00098523075  0              0             -322.06516     -547.11194     -97.200089      0             -1023.1704      0              0              9.6218699      9.6477086      0.2            92.828998    
      4100   0.20600564     0.00093626305  0.00093626305  0              0              722.63171      684.07377      761.01369      0             -46.316342      0              0              9.6209041      9.6582895      0.2            92.921477    
      4200   0.207887       0.00082596543  0.00082596543  0              0              597.92319      664.45128      531.2648       0             -831.89797      0              0              9.6199383      9.6527362      0.2            92.858727    
      4300   0.24992491     0.00100533     0.00100533     0              0             -7.7862545      441.8614      -457.58249      0              215.70012      0              0              9.6189725      9.6595252      0.2            92.914708    
      4400   0.17931088     0.0012000614   0.0012000614   0              0             -305.97698      203.6323      -815.75037      0             -50.855054      0              0              9.6180067      9.6716917      0.2            93.022396    
      4500   0.20203118     0.0010412628   0.0010412628   0              0             -105.00275     -118.82978     -91.327841      0             -164.74469      0              0              9.6170409      9.6753899      0.2            93.04862     
      4600   0.22100843     0.0010191649   0.0010191649   0              0              460.71451      244.99331      676.26625      0             -491.81229      0              0              9.6160751      9.6623157      0.2            92.913554    
      4700   0.1590315      0.00085472656  0.00085472656  0              0              73.790271     -284.35119      431.74022      0             -78.780713      0              0              9.6151093      9.6644706      0.2            92.924941    
      4800   0.16866137     0.00095588863  0.00095588863  0              0             -103.71141      45.880702     -253.44278      0             -144.96566      0              0              9.6141435      9.6609078      0.2            92.881353    
      4900   0.23450447     0.0011636535   0.0011636535   0              0              154.52982      843.17966     -534.30105      0              45.823829      0              0              9.6131777      9.66009        0.2            92.864161    
      5000   0.23198195     0.00091364595  0.00091364595  0              0              393.98481      781.1653       6.6084656      0              49.799136      0              0              9.6122119      9.6552475      0.2            92.808284    
      5100   0.2319058      0.00096997905  0.00096997905  0              0              502.57443      413.78388      591.21077      0             -29.944497      0              0              9.6112461      9.6487012      0.2            92.736041    
      5200   0.20583288     0.00097166325  0.00097166325  0              0              374.42203      352.42873      396.23559      0              46.656186      0              0              9.6102803      9.6528464      0.2            92.766559    
      5300   0.18657773     0.0010280382   0.0010280382   0              0              214.89278      641.93893     -212.31701      0              72.262328      0              0              9.6093144      9.6522244      0.2            92.751259    
      5400   0.23158569     0.00087806821  0.00087806821  0              0             -898.69988     -1161.9993     -635.58964      0              465.6065       0              0              9.6083486      9.647717       0.2            92.698629    
      5500   0.14945397     0.0010020239   0.0010020239   0              0             -663.33467     -1272.999      -53.801338      0              149.55178      0              0              9.6073828      9.6390585      0.2            92.606125    
      5600   0.22661159     0.0010853631   0.0010853631   0              0             -80.397703     -722.76091      561.81034      0             -259.63109      0              0              9.606417       9.630073       0.2            92.510497    
      5700   0.28365703     0.0010235905   0.0010235905   0              0             -280.763       -844.5395       282.83581      0             -734.79566      0              0              9.6054512      9.6410207      0.2            92.606354    
      5800   0.19769601     0.001035787    0.001035787    0              0             -159.25763      254.67916     -573.3539       0              376.82052      0              0              9.6044854      9.6509123      0.2            92.692047    
      5900   0.17642138     0.0012908302   0.0012908302   0              0              194.51402      816.62268     -427.76106      0             -252.14654      0              0              9.6035196      9.6533932      0.2            92.70655     
      6000   0.18304462     0.0010037474   0.0010037474   0              0              174.50535      6.6190397      342.20316      0             -242.02205      0              0              9.6025538      9.6425934      0.2            92.593522    
      6100   0.18354864     0.0007701568   0.0007701568   0              0              234.89077     -196.70439      666.31815      0             -704.55959      0              0              9.601588       9.6296539      0.2            92.459969    
      6200   0.2575218      0.00089454119  0.00089454119  0              0              113.38162      116.71073      109.91178      0             -534.5559       0              0              9.6006222      9.6372552      0.2            92.523646    
      6300   0.19951279     0.0010391557   0.0010391557   0              0             -344.90929      33.277937     -723.23072      0             -318.46895      0              0              9.5996564      9.6516071      0.2            92.652112    
      6400   0.19157185     0.00097616121  0.00097616121  0              0             -417.43266     -456.4887      -378.55226      0             -437.15965      0              0              9.5986906      9.6578344      0.2            92.702564    
      6500   0.19708087     0.00081127875  0.00081127875  0              0             -368.47101     -1217.0193      479.87623      0             -579.03196      0              0              9.5977247      9.6450911      0.2            92.57093     
      6600   0.17987538     0.001032228    0.001032228    0              0             -9.2036876     -693.25669      674.68774      0              195.07674      0              0              9.5967589      9.6417371      0.2            92.529427    
      6700   0.2212262      0.0011445674   0.0011445674   0              0             -218.24131     -416.94604     -19.674501      0             -243.04972      0              0              9.5957931      9.6517913      0.2            92.616593    
      6800   0.22380423     0.0008926312   0.0008926312   0              0             -345.61302      15.177587     -706.57194      0             -59.176506      0              0              9.5948273      9.6560787      0.2            92.648408    
      6900   0.20617323     0.00096529262  0.00096529262  0              0             -266.23516     -230.22797     -302.44564      0             -431.23602      0              0              9.5938615      9.6519138      0.2            92.599124    
      7000   0.21512325     0.00079116442  0.00079116442  0              0              407.47617      368.02293      446.79144      0             -130.53824      0              0              9.5928957      9.6529913      0.2            92.600138    
      7100   0.18885992     0.0012791974   0.0012791974   0              0             -408.01547     -1360.7776      544.56041      0             -514.63522      0              0              9.5919299      9.657842       0.2            92.637343    
      7200   0.19782096     0.00078177762  0.00078177762  0              0             -261.25606     -361.21667     -161.47853      0             -315.42682      0              0              9.5909641      9.6674513      0.2            92.720178    
      7300   0.22707456     0.00098869568  0.00098869568  0              0             -164.94566      327.85932     -657.92704      0             -364.43312      0              0              9.5899983      9.6634441      0.2            92.672412    
      7400   0.16761831     0.00097519635  0.00097519635  0              0             -496.35753     -767.38179     -225.47961      0              144.77935      0              0              9.5890325      9.658854       0.2            92.619064    
      7500   0.18621051     0.00067749154  0.00067749154  0              0              928.43063      1250.0073      606.67569      0              111.14187      0              0              9.5880667      9.6500355      0.2            92.525184    
      7600   0.19008347     0.001001239    0.001001239    0              0              735.89664      806.72827      664.89834      0              498.66513      0              0              9.5871009      9.6585364      0.2            92.597363    
      7700   0.21110193     0.0011185063   0.0011185063   0              0             -267.15979     -310.15991     -224.30617      0             -156.25834      0              0              9.5861351      9.6694208      0.2            92.692374    
      7800   0.26154079     0.00085834706  0.00085834706  0              0             -555.31834     -318.27989     -792.52539      0              282.16082      0              0              9.5851692      9.6734422      0.2            92.721581    
      7900   0.20787248     0.00093002904  0.00093002904  0              0             -147.70169      24.812822     -320.3819       0              571.37903      0              0              9.5842034      9.6709754      0.2            92.688596    
      8000   0.18616723     0.00072891411  0.00072891411  0              0              385.42848      176.79883      593.90954      0             -393.95537      0              0              9.5832376      9.6602945      0.2            92.576897    
      8100   0.21358476     0.00094847924  0.00094847924  0              0              603.21082      578.76282      627.46635      0             -94.856392      0              0              9.5822718      9.6605606      0.2            92.570118    
      8200   0.15990839     0.0010284949   0.0010284949   0              0             -397.99967     -670.85193     -125.32633      0              241.41614      0              0              9.581306       9.6666776      0.2            92.619396    
      8300   0.17829241     0.00095550085  0.00095550085  0              0             -558.66752     -306.60146     -810.90558      0              199.40255      0              0              9.5803402      9.6672847      0.2            92.615876    
      8400   0.22164148     0.00085961402  0.00085961402  0              0             -527.8732      -724.27036     -331.61382      0             -752.18299      0              0              9.5793744      9.6589817      0.2            92.527002    
      8500   0.1935397      0.00094324285  0.00094324285  0              0             -66.816583     -728.03735      594.24879      0             -418.72887      0              0              9.5784086      9.6507811      0.2            92.439125    
      8600   0.19290368     0.00094829409  0.00094829409  0              0             -83.391637     -728.5249       561.59709      0             -137.75001      0              0              9.5774428      9.6539915      0.2            92.460551    
      8700   0.19829666     0.0010718739   0.0010718739   0              0             -451.29963     -633.79024     -269.01118      0             -908.43212      0              0              9.576477       9.6560761      0.2            92.47119     
      8800   0.24003544     0.0010759598   0.0010759598   0              0             -286.82037      57.23155      -631.0238       0              0.22978797     0              0              9.5755112      9.6579452      0.2            92.479762    
      8900   0.20757152     0.0009433273   0.0009433273   0              0             -235.63526     -271.20946     -200.25645      0             -453.58128      0              0              9.5745454      9.6588426      0.2            92.479026    
      9000   0.22603578     0.0011309989   0.0011309989   0              0              668.60467      898.87767      438.17749      0              318.35008      0              0              9.5735796      9.6589586      0.2            92.470809    
      9100   0.14313551     0.00092759006  0.00092759006  0              0              673.54145      846.73684      500.1768       0              99.017832      0              0              9.5726137      9.6527032      0.2            92.4016      
      9200   0.15346157     0.00081264178  0.00081264178  0              0             -42.723382      43.026223     -128.6538       0             -68.950996      0              0              9.5716479      9.6651044      0.2            92.510977    
      9300   0.20567483     0.00093989644  0.00093989644  0              0             -4.7033773      536.44088     -546.01533      0             -574.70347      0              0              9.5706821      9.6664266      0.2            92.514296    
      9400   0.12704028     0.00080229234  0.00080229234  0              0             -199.86803     -119.187       -280.68995      0              162.14991      0              0              9.5697163      9.6626194      0.2            92.468527    
      9500   0.15973765     0.00096311667  0.00096311667  0              0              541.53464      865.3847       217.52364      0             -45.978486      0              0              9.5687505      9.6633336      0.2            92.466029    
      9600   0.20420488     0.00099694976  0.00099694976  0              0              477.077        524.5074       429.5043       0             -565.74494      0              0              9.5677847      9.6641953      0.2            92.46494     
      9700   0.19168708     0.001034124    0.001034124    0              0              343.37192      684.7582       1.8482197      0             -109.47107      0              0              9.5668189      9.670418       0.2            92.515137    
      9800   0.18179496     0.00088019425  0.00088019425  0              0              274.70637      789.37007     -240.1428       0             -24.039435      0              0              9.5658531      9.6687043      0.2            92.489405    
      9900   0.19828299     0.00097020758  0.00097020758  0              0              445.43606      1054.0515     -163.33192      0              536.97691      0              0              9.5648873      9.6627629      0.2            92.423238    
     10000   0.22750882     0.0010822602   0.0010822602   0              0             -144.08171     -394.92379      106.59587      0              63.973822      0              0              9.5639215      9.6563482      0.2            92.352556    
     10100   0.18929069     0.0010801927   0.0010801927   0              0             -236.73698     -621.01626      147.36191      0             -825.3779       0              0              9.5629557      9.6619185      0.2            92.396498    
     10200   0.24857066     0.0011647876   0.0011647876   0              0              516.62018      1031.072       2.0289073      0              155.02739      0              0              9.5619899      9.6636075      0.2            92.403317    
     10300   0.26146924     0.00094153332  0.00094153332  0              0             -122.48649     -51.463961     -193.69547      0              445.14587      0              0              9.5610241      9.6751219      0.2            92.504074    
     10400   0.19464557     0.0010227554   0.0010227554   0              0              578.6993       1361.1609     -203.93123      0             -598.37573      0              0              9.5600582      9.6683668      0.2            92.430149    
     10500   0.24139112     0.0010886657   0.0010886657   0              0              93.671745      71.787958      115.40974      0             -303.42886      0              0              9.5590924      9.6612301      0.2            92.352592    
     10600   0.22730104     0.0010032918   0.0010032918   0              0             -233.91787     -774.10764      306.12853      0             -558.77974      0              0              9.5581266      9.665029       0.2            92.379571    
     10700   0.2332563      0.0011229874   0.0011229874   0              0             -208.8626      -495.49416      77.599397      0             -488.13778      0              0              9.5571608      9.6682162      0.2            92.400697    
     10800   0.24573951     0.00093105747  0.00093105747  0              0             -214.71736     -232.34236     -197.25849      0             -87.221941      0              0              9.556195       9.6741439      0.2            92.448005    
     10900   0.23094545     0.00096269825  0.00096269825  0              0             -669.29721     -1087.1722     -251.58047      0              93.575392      0              0              9.5552292      9.6732641      0.2            92.430256    
     11000   0.25125424     0.0010921992   0.0010921992   0              0             -350.27556     -748.47767      47.766596      0             -98.781908      0              0              9.5542634      9.669623       0.2            92.386125    
     11100   0.2118723      0.0010120066   0.0010120066   0              0             -254.74508     -646.0093       136.36403      0             -376.59443      0              0              9.5532976      9.664026       0.2            92.323316    
     11200   0.23736427     0.00085177133  0.00085177133  0              0              18.362035     -1.071091       37.60828       0             -281.55963      0              0              9.5523318      9.6651046      0.2            92.324286    
     11300   0.23085054     0.0010988994   0.0010988994   0              0             -25.265956      105.96871     -156.67939      0              181.88447      0              0              9.551366       9.6629313      0.2            92.294194    
     11400   0.20214332     0.00078804938  0.00078804938  0              0             -63.467737     -91.419757     -35.697904      0              77.376426      0              0              9.5504002      9.6589286      0.2            92.246634    
     11500   0.22246255     0.00078126354  0.00078126354  0              0              37.573596      36.240088      38.773199      0             -194.50814      0              0              9.5494344      9.6691047      0.2            92.334481    
     11600   0.21906528     0.00073398196  0.00073398196  0              0              74.521493      30.385449      118.48096      0             -226.71899      0              0              9.5484686      9.664401       0.2            92.280229    
     11700   0.22529757     0.00081864233  0.00081864233  0              0             -289.67233     -652.85436      73.383217      0              29.141927      0              0              9.5475027      9.6667297      0.2            92.293128    
     11800   0.18592689     0.00090952408  0.00090952408  0              0             -456.47534     -735.43891     -177.63727      0             -265.02096      0              0              9.5465369      9.669027       0.2            92.305724    
     11900   0.1655367      0.00092130269  0.00092130269  0              0             -178.86863     -138.98525     -218.89987      0             -475.65742      0              0              9.5455711      9.6697354      0.2            92.303147    
     12000   0.18775019     0.00096200092  0.00096200092  0              0             -5.7669061     -56.403419      44.660773      0             -243.75133      0              0              9.5446053      9.6677366      0.2            92.27473     
     12100   0.21415928     0.0010534778   0.0010534778   0              0              353.35861      426.18715      280.36698      0             -497.94725      0              0              9.5436395      9.6683704      0.2            92.271442    
     12200   0.22130221     0.00061393235  0.00061393235  0              0             -144.85936     -335.74476      45.82316       0             -12.478458      0              0              9.5426737      9.6730474      0.2            92.306735    
     12300   0.18980683     0.00084045236  0.00084045236  0              0             -62.743607      118.57369     -244.27094      0              328.23004      0              0              9.5417079      9.6782987      0.2            92.3475      
     12400   0.2072054      0.00088914107  0.00088914107  0              0             -350.3352      -564.09632     -136.72572      0             -165.67871      0              0              9.5407421      9.6700603      0.2            92.259551    
     12500   0.21843726     0.00090997918  0.00090997918  0              0             -330.63974     -718.84188      57.397693      0             -31.452119      0              0              9.5397763      9.6700728      0.2            92.250331    
     12600   0.18317696     0.00070551116  0.00070551116  0              0             -127.11469     -462.21878      207.79884      0             -83.993518      0              0              9.5388105      9.6713         0.2            92.252698    
     12700   0.22514997     0.00070645786  0.00070645786  0              0             -120.72938     -141.36155     -100.25646      0              162.60032      0              0              9.5378447      9.6726851      0.2            92.256568    
     12800   0.18122753     0.00093216606  0.00093216606  0              0             -678.66908     -1047.15       -310.34409      0              487.41675      0              0              9.5368789      9.6682441      0.2            92.204873    
     12900   0.16022247     0.00080343046  0.00080343046  0              0             -98.112306     -51.484535     -144.86705      0              141.06453      0              0              9.5359131      9.6651145      0.2            92.165692    
     13000   0.22371516     0.00092256754  0.00092256754  0              0              680.37266      1025.1311      335.44162      0             -102.039        0              0              9.5349472      9.6614119      0.2            92.121053    
     13100   0.2135796      0.0014518604   0.0014518604   0              0              303.81559      189.07379      418.42303      0             -283.7595       0              0              9.5339814      9.6673207      0.2            92.168056    
     13200   0.21217854     0.0010006076   0.0010006076   0              0              202.44736      343.32811      61.355518      0              638.49889      0              0              9.5330156      9.6765589      0.2            92.246787    
     13300   0.22259856     0.0010704744   0.0010704744   0              0             -485.19364     -533.88057     -436.66029      0              489.12639      0              0              9.5320498      9.6792946      0.2            92.263519    
     13400   0.23134855     0.00090380951  0.00090380951  0              0              100.68264      554.06005     -352.88342      0             -33.188397      0              0              9.531084       9.6793983      0.2            92.255158    
     13500   0.22506481     0.0008547826   0.0008547826   0              0             -268.60913     -634.09748      96.722674      0             -174.96715      0              0              9.5301182      9.6755429      0.2            92.209068    
     13600   0.23132954     0.0010190457   0.0010190457   0              0              283.99363     -54.212408      622.04294      0             -503.95551      0              0              9.5291524      9.6764861      0.2            92.20871     
     13700   0.22849509     0.00089194195  0.00089194195  0              0              253.89461     -32.021015      539.66958      0             -392.774        0              0              9.5281866      9.6697566      0.2            92.135245    
     13800   0.23267951     0.0010872127   0.0010872127   0              0             -482.49644     -694.46354     -270.69355      0             -405.70611      0              0              9.5272208      9.6736534      0.2            92.163032    
     13900   0.20684911     0.0009430997   0.0009430997   0              0             -603.19768     -423.5228      -783.04654      0             -16.36951       0              0              9.526255       9.6811156      0.2            92.224775    
     14000   0.16993867     0.00098742119  0.00098742119  0              0             -963.84999     -1522.3247     -405.54153      0              30.694038      0              0              9.5252892      9.6866522      0.2            92.268163    
     14100   0.17861674     0.00090704203  0.00090704203  0              0             -120.35638     -763.30191      522.44168      0              107.41803      0              0              9.5243234      9.6778383      0.2            92.174861    
     14200   0.20846865     0.0012355145   0.0012355145   0              0              447.7903      -52.648321      948.06144      0              99.644688      0              0              9.5233575      9.6720243      0.2            92.110146    
     14300   0.23957038     0.001069301    0.001069301    0              0              151.15341      94.435226      207.71406      0              173.47902      0              0              9.5223917      9.6736212      0.2            92.116011    
     14400   0.19942927     0.0011008102   0.0011008102   0              0             -489.81543     -91.422631     -888.37922      0              246.49108      0              0              9.5214259      9.6859264      0.2            92.223831    
     14500   0.20256292     0.00094228946  0.00094228946  0              0             -400.69472      251.09958     -1052.6579      0              366.33604      0              0              9.5204601      9.7000984      0.2            92.3494      
     14600   0.17209235     0.00080774252  0.00080774252  0              0              25.841615      58.431382     -6.9569296      0             -94.703387      0              0              9.5194943      9.6918811      0.2            92.261807    
     14700   0.21619904     0.00089848591  0.00089848591  0              0              547.80261      55.379935      1040.0522      0             -782.15555      0              0              9.5185285      9.6773961      0.2            92.11457     
     14800   0.23059947     0.00079067222  0.00079067222  0              0              369.24525     -91.491471      829.78566      0              111.14254      0              0              9.5175627      9.6776274      0.2            92.107426    
     14900   0.21431232     0.00088256867  0.00088256867  0              0             -589.97905     -905.03442     -275.09817      0              315.16523      0              0              9.5165969      9.6850236      0.2            92.168465    
     15000   0.21378399     0.00077868511  0.00077868511  0              0             -560.18077     -341.17472     -779.36799      0              331.68014      0              0              9.5156311      9.6934325      0.2            92.239128    
     15100   0.22293316     0.0010504715   0.0010504715   0              0             -716.61691     -853.1794      -580.22603      0             -76.802321      0              0              9.5146653      9.690322       0.2            92.20017     
     15200   0.24180895     0.00080302035  0.00080302035  0              0              187.5838       115.21714      259.78859      0              41.280826      0              0              9.5136995      9.6893737      0.2            92.18179     
     15300   0.19351433     0.0011776668   0.0011776668   0              0              733.74012      737.76964      729.56456      0              162.93868      0              0              9.5127337      9.6901533      0.2            92.179847    
     15400   0.16070834     0.001133832    0.001133832    0              0              731.79414      1091.6297      371.7938       0              325.58212      0              0              9.5117679      9.6938136      0.2            92.205304    
     15500   0.24838039     0.0011799249   0.0011799249   0              0             -178.58372     -113.00269     -244.34592      0             -457.32095      0              0              9.510802       9.6964091      0.2            92.220627    
     15600   0.20448385     0.00098560912  0.00098560912  0              0             -567.44903     -593.11347     -541.99464      0              987.13386      0              0              9.5098362      9.6992624      0.2            92.238397    
     15700   0.16949722     0.00097223212  0.00097223212  0              0             -395.56204     -338.21923     -453.06058      0             -322.49369      0              0              9.5088704      9.6923368      0.2            92.163175    
     15800   0.207425       0.0010373934   0.0010373934   0              0              359.09573      535.31694      182.69219      0              50.074352      0              0              9.5079046      9.6862858      0.2            92.096282    
     15900   0.16083203     0.00091278471  0.00091278471  0              0              424.32634      343.91063      504.58236      0              307.71783      0              0              9.5069388      9.6860585      0.2            92.084765    
     16000   0.22024017     0.00092427314  0.00092427314  0              0              18.994682     -320.62913      358.46234      0              19.12104       0              0              9.505973       9.6885667      0.2            92.099253    
     16100   0.20076604     0.00091603195  0.00091603195  0              0             -184.9427      -146.05245     -224.00455      0             -1063.2681      0              0              9.5050072      9.684726       0.2            92.05339     
     16200   0.20769996     0.00086908187  0.00086908187  0              0             -327.94779     -130.48103     -525.60371      0             -797.55691      0              0              9.5040414      9.6915259      0.2            92.108663    
     16300   0.20052583     0.0010293457   0.0010293457   0              0             -133.19873     -121.18002     -145.38325      0              150.08414      0              0              9.5030756      9.6819085      0.2            92.007908    
     16400   0.23924033     0.00099380977  0.00099380977  0              0             -47.304041     -401.01422      306.24412      0             -124.95821      0              0              9.5021098      9.674715       0.2            91.930204    
     16500   0.26971622     0.00087991743  0.00087991743  0              0              302.58335      223.55577      381.40847      0             -89.193911      0              0              9.501144       9.6754672      0.2            91.928007    
     16600   0.22900548     0.00093775642  0.00093775642  0              0             -10.297167     -35.246528      14.494274      0              786.83912      0              0              9.5001782      9.6847769      0.2            92.007106    
     16700   0.23983427     0.0007768486   0.0007768486   0              0             -143.91448      43.939231     -331.96012      0             -224.27597      0              0              9.4992124      9.6907205      0.2            92.054212    
     16800   0.21151154     0.00080767172  0.00080767172  0              0             -150.54972     -205.85885     -95.392039      0              14.425134      0              0              9.4982465      9.6833754      0.2            91.975087    
     16900   0.24209273     0.00085325045  0.00085325045  0              0              509.44022      945.63728      73.045985      0             -288.4516       0              0              9.4972807      9.6921122      0.2            92.04871     
     17000   0.241061       0.00089618772  0.00089618772  0              0              327.22327      445.33772      208.92827      0             -450.33738      0              0              9.4963149      9.6891035      0.2            92.010778    
     17100   0.24554278     0.0010052945   0.0010052945   0              0              772.02986      1275.9316      267.97408      0             -560.98633      0              0              9.4953491      9.6907821      0.2            92.01736     
     17200   0.21701097     0.0008579516   0.0008579516   0              0             -102.39768     -216.57745      11.617397      0             -576.75518      0              0              9.4943833      9.692085       0.2            92.02037     
     17300   0.20939632     0.00081032904  0.00081032904  0              0             -600.70193     -1073.8053     -127.75945      0             -298.47266      0              0              9.4934175      9.6892238      0.2            91.983846    
     17400   0.19325159     0.0010335091   0.0010335091   0              0             -46.698495      98.430887     -192.00109      0             -284.08338      0              0              9.4924517      9.6783926      0.2            91.871674    
     17500   0.17972029     0.0012187509   0.0012187509   0              0              102.20129      251.37318     -47.129326      0             -216.185        0              0              9.4914859      9.6823993      0.2            91.900356    
     17600   0.1921318      0.00078120255  0.00078120255  0              0              434.05062      791.53371      76.372256      0              157.11293      0              0              9.4905201      9.6867986      0.2            91.932757    
     17700   0.1950715      0.00069700231  0.00069700231  0              0             -15.921049     -173.50112      141.52844      0             -231.53532      0              0              9.4895543      9.6813821      0.2            91.872001    
     17800   0.20281301     0.0011599434   0.0011599434   0              0             -508.22536     -958.43326     -58.189859      0             -30.648895      0              0              9.4885885      9.6895594      0.2            91.940242    
     17900   0.21686028     0.00097005076  0.00097005076  0              0              8.9566103      174.50017     -156.76051      0             -244.24019      0              0              9.4876227      9.6807001      0.2            91.846829    
     18000   0.18599144     0.0009818286   0.0009818286   0              0              315.53616      512.71491      118.18985      0             -484.87323      0              0              9.4866569      9.6831639      0.2            91.860853    
     18100   0.23506596     0.00091740222  0.00091740222  0              0              268.38322      387.50974      149.10785      0             -652.43108      0              0              9.485691       9.6888154      0.2            91.90511     
     18200   0.16654058     0.0010430303   0.0010430303   0              0             -5.5707149     -115.99979      104.66203      0             -1256.0816      0              0              9.4847252      9.6921946      0.2            91.927803    
     18300   0.16135259     0.00078822643  0.00078822643  0              0             -78.434393      5.3206818     -162.35248      0             -372.46437      0              0              9.4837594      9.6920279      0.2            91.916861    
     18400   0.23368982     0.00099992381  0.00099992381  0              0              283.93728      744.82536     -177.11378      0             -813.15098      0              0              9.4827936      9.6907524      0.2            91.895405    
     18500   0.22534014     0.00089950013  0.00089950013  0              0              177.17104      402.33894     -48.193241      0             -105.15368      0              0              9.4818278      9.6959411      0.2            91.935244    
     18600   0.22516594     0.00086863053  0.00086863053  0              0             -127.13517     -452.96666      198.52207      0             -428.76452      0              0              9.480862       9.6993098      0.2            91.957817    
     18700   0.18350977     0.00091276219  0.00091276219  0              0             -169.19173     -542.82218      204.25058      0             -352.3434       0              0              9.4798962      9.6930923      0.2            91.889509    
     18800   0.20037853     0.00081859439  0.00081859439  0              0              1.3495952     -6.4749038      8.9962926      0             -313.56867      0              0              9.4789304      9.697768       0.2            91.924468    
     18900   0.18097862     0.00084929114  0.00084929114  0              0              514.89564      1185.646      -155.9751       0             -467.38149      0              0              9.4779646      9.6856991      0.2            91.800713    
     19000   0.21196095     0.00094989074  0.00094989074  0              0              28.947072      192.48604     -134.74766      0             -41.480784      0              0              9.4769988      9.6955903      0.2            91.885097    
     19100   0.20279731     0.00090708085  0.00090708085  0              0             -153.20457     -348.94486      42.365941      0             -835.43394      0              0              9.476033       9.6939825      0.2            91.860498    
     19200   0.17375382     0.0010906792   0.0010906792   0              0              475.48113      796.30284      154.47396      0             -66.748439      0              0              9.4750672      9.6848109      0.2            91.764233    
     19300   0.2046939      0.00097551707  0.00097551707  0              0             -244.7423      -584.18422      94.520902      0             -803.8506       0              0              9.4741014      9.692323       0.2            91.826051    
     19400   0.23044268     0.00089313826  0.00089313826  0              0              375.55109      676.77392      74.164086      0              36.976934      0              0              9.4731355      9.6995815      0.2            91.88545     
     19500   0.19550792     0.00079838593  0.00079838593  0              0              153.28352      480.63658     -174.20803      0              34.24939       0              0              9.4721697      9.7020062      0.2            91.899049    
     19600   0.2151111      0.00092836636  0.00092836636  0              0              268.09239      598.58417     -62.595813      0             -44.105871      0              0              9.4712039      9.6940163      0.2            91.814006    
     19700   0.1969063      0.0010257893   0.0010257893   0              0              574.62437      1187.9042     -38.811953      0              465.99933      0              0              9.4702381      9.691857       0.2            91.784193    
     19800   0.20092709     0.0010862965   0.0010862965   0              0             -241.6068      -519.81345      36.45234       0              108.90552      0              0              9.4692723      9.693878       0.2            91.793971    
     19900   0.17430596     0.0010354681   0.0010354681   0              0              6.8923585     -52.480209      66.1217        0             -277.47778      0              0              9.4683065      9.6901543      0.2            91.749351    
     20000   0.24974305     0.00087890093  0.00087890093  0              0              566.26547      982.34456      150.00946      0             -70.39445       0              0              9.4673407      9.6851494      0.2            91.692609    
     20100   0.25132122     0.00077018718  0.00077018718  0              0             -204.87197     -377.58917     -32.322602      0             -645.09425      0              0              9.4663749      9.6934925      0.2            91.762234    
     20200   0.23708093     0.00092454325  0.00092454325  0              0              69.093593      180.33993     -42.301607      0             -541.94926      0              0              9.4654091      9.6944703      0.2            91.762128    
     20300   0.22529063     0.00090072009  0.00090072009  0              0             -8.0255428     -9.6309713     -6.6120028      0             -475.24757      0              0              9.4644433      9.6860169      0.2            91.672758    
     20400   0.2355721      0.00088218277  0.00088218277  0              0             -353.24919     -504.55625     -202.11732      0             -510.75814      0              0              9.4634775      9.6842945      0.2            91.647103    
     20500   0.23084987     0.0010304978   0.0010304978   0              0              195.40193      478.08619     -87.473862      0             -922.74783      0              0              9.4625117      9.6754633      0.2            91.554184    
     20600   0.25993171     0.0010906177   0.0010906177   0              0              167.73379      318.04936      17.270301      0             -533.56751      0              0              9.4615458      9.6751198      0.2            91.54159     
     20700   0.26663315     0.001063819    0.001063819    0              0              451.77074      703.44727      199.93789      0             -365.86524      0              0              9.46058        9.6808381      0.2            91.586344    
     20800   0.30044085     0.0011559731   0.0011559731   0              0             -67.505558     -380.98562      245.83102      0             -266.05848      0              0              9.4596142      9.6799444      0.2            91.56854     
     20900   0.25301007     0.0011019445   0.0011019445   0              0             -438.9631      -860.94664     -17.139773      0             -295.85673      0              0              9.4586484      9.6813532      0.2            91.572517    
     21000   0.21745744     0.00082564764  0.00082564764  0              0             -151.62549     -54.741512     -248.66348      0             -895.03578      0              0              9.4576826      9.6876199      0.2            91.622434    
     21100   0.19599714     0.00076437945  0.00076437945  0              0             -218.25596     -308.84389     -127.84595      0              110.7276       0              0              9.4567168      9.6935238      0.2            91.66891     
     21200   0.19389485     0.0011149411   0.0011149411   0              0             -64.211129     -235.00624      106.41507      0              439.47059      0              0              9.455751       9.6827845      0.2            91.558       
     21300   0.20784291     0.0010035329   0.0010035329   0              0              150.44695      75.729837      225.00769      0             -528.51877      0              0              9.4547852      9.6881595      0.2            91.599467    
     21400   0.2295705      0.0011062172   0.0011062172   0              0              671.89845      1252.9922      90.601073      0             -159.08865      0              0              9.4538194      9.6930079      0.2            91.635946    
     21500   0.17860751     0.00089787012  0.00089787012  0              0              133.46489      466.13184     -199.38828      0              264.56459      0              0              9.4528536      9.6946657      0.2            91.642255    
     21600   0.21046441     0.0009047856   0.0009047856   0              0              110.99883      517.60468     -295.78356      0             -288.60252      0              0              9.4518878      9.6953135      0.2            91.639015    
     21700   0.18449573     0.00098455352  0.00098455352  0              0             -107.54694     -165.73745     -49.549015      0             -117.27264      0              0              9.450922       9.6938371      0.2            91.615698    
     21800   0.20507109     0.0012432289   0.0012432289   0              0              1015.2988      1628.7826      401.63599      0             -191.63494      0              0              9.4499562      9.6879161      0.2            91.550382    
     21900   0.20956833     0.0010669042   0.0010669042   0              0              932.10557      1570.3831      293.68876      0              296.72516      0              0              9.4489903      9.6882465      0.2            91.544148    
     22000   0.25332089     0.0008662064   0.0008662064   0              0              73.152102      219.02968     -72.888537      0             -333.97326      0              0              9.4480245      9.6938264      0.2            91.58751     
     22100   0.21978907     0.00089553183  0.00089553183  0              0              354.30648      1114.6028     -406.14448      0              42.230574      0              0              9.4470587      9.6893128      0.2            91.535507    
     22200   0.17516528     0.00079817113  0.00079817113  0              0              40.569024      351.96409     -270.99757      0              15.433779      0              0              9.4460929      9.6837683      0.2            91.473775    
     22300   0.17682634     0.0011360789   0.0011360789   0              0              897.55764      1431.3311      363.6121       0             -385.63464      0              0              9.4451271      9.6753823      0.2            91.385215    
     22400   0.25185847     0.001041934    0.001041934    0              0              204.07742     -175.66591      583.66625      0             -140.53695      0              0              9.4441613      9.6792768      0.2            91.412651    
     22500   0.16470309     0.00088354795  0.00088354795  0              0              223.57427      398.56541      48.432203      0             -581.32179      0              0              9.4431955      9.6867322      0.2            91.473706    
     22600   0.20487239     0.00087346516  0.00087346516  0              0             -199.38445      107.46151     -506.40632      0             -464.88098      0              0              9.4422297      9.6936039      0.2            91.529235    
     22700   0.23366795     0.0010823745   0.0010823745   0              0              55.031354      600.15742     -490.25111      0             -369.21874      0              0              9.4412639      9.6920431      0.2            91.505137    
     22800   0.22086319     0.0010841577   0.0010841577   0              0              125.20487      118.65632      131.61972      0              42.449572      0              0              9.4402981      9.6871058      0.2            91.449166    
     22900   0.18315299     0.00099488032  0.00099488032  0              0              1033.3088      1289.8909      776.5575       0              206.59101      0              0              9.4393323      9.6745939      0.2            91.321707    
     23000   0.21603498     0.0011156507   0.0011156507   0              0              302.80258      84.878286      520.57393      0              482.06386      0              0              9.4383665      9.6776947      0.2            91.341629    
     23100   0.21927709     0.000893287    0.000893287    0              0             -488.2456      -486.08866     -490.5994       0             -616.59292      0              0              9.4374007      9.6846203      0.2            91.397642    
     23200   0.16630741     0.00098000309  0.00098000309  0              0             -108.17694      695.09007     -911.61131      0             -436.26857      0              0              9.4364348      9.684957       0.2            91.391466    
     23300   0.17255507     0.0010653525   0.0010653525   0              0             -511.61198     -598.754       -424.62705      0              371.81135      0              0              9.435469       9.6849183      0.2            91.381747    
     23400   0.15856122     0.00086382448  0.00086382448  0              0              680.62072      583.72593      777.35339      0              13.513136      0              0              9.4345032      9.6684945      0.2            91.217443    
     23500   0.15594064     0.00098813875  0.00098813875  0              0              429.29328     -134.20126      992.61316      0              22.004936      0              0              9.4335374      9.6768399      0.2            91.286831    
     23600   0.22853376     0.00086643001  0.00086643001  0              0             -160.747       -319.21115     -2.4569972      0              488.29773      0              0              9.4325716      9.6895949      0.2            91.397798    
     23700   0.21174811     0.0009320445   0.0009320445   0              0             -603.32565     -60.096263     -1146.7128      0             -125.265        0              0              9.4316058      9.6915326      0.2            91.406715    
     23800   0.2204081      0.0012296562   0.0012296562   0              0             -355.87044      344.79618     -1056.7238      0              9.2313355      0              0              9.43064        9.6880009      0.2            91.364048    
     23900   0.1774149      0.0012082419   0.0012082419   0              0              410.44525      543.82712      276.87376      0             -32.4243        0              0              9.4296742      9.6837788      0.2            91.314879    
     24000   0.20422164     0.00094332341  0.00094332341  0              0              1345.7489      1030.7558      1660.5905      0             -287.05246      0              0              9.4287084      9.6772444      0.2            91.243915    
     24100   0.21510971     0.00095828519  0.00095828519  0              0              933.44809      776.64991      1090.0891      0             -666.44394      0              0              9.4277426      9.6834657      0.2            91.293222    
     24200   0.23108987     0.00077076589  0.00077076589  0              0             -707.35328     -510.10405     -904.79132      0             -217.46766      0              0              9.4267768      9.6929835      0.2            91.373591    
     24300   0.18386596     0.00083042913  0.00083042913  0              0             -1349.5452     -897.6208      -1801.6224      0             -155.30397      0              0              9.425811       9.6932034      0.2            91.366303    
     24400   0.18682471     0.00090190814  0.00090190814  0              0             -70.709204      449.0127      -590.62344      0             -599.41153      0              0              9.4248452      9.6900204      0.2            91.326942    
     24500   0.18466318     0.00088511232  0.00088511232  0              0              865.39752      499.62129      1231.0396      0             -259.4875       0              0              9.4238793      9.6768339      0.2            91.193315    
     24600   0.15934042     0.0009467995   0.0009467995   0              0              1128.5256      664.26501      1592.6224      0             -167.63354      0              0              9.4229135      9.6659882      0.2            91.081771    
     24700   0.18951126     0.0011516251   0.0011516251   0              0             -36.049427     -49.39148      -22.850509      0              277.93092      0              0              9.4219477      9.6827722      0.2            91.230573    
     24800   0.2045973      0.00097544638  0.00097544638  0              0             -775.58637     -402.54414     -1148.7868      0              329.86756      0              0              9.4209819      9.6901287      0.2            91.290527    
     24900   0.24383676     0.0012036041   0.0012036041   0              0             -410.77288     -110.35709     -711.36735      0              288.78153      0              0              9.4200161      9.6896944      0.2            91.277077    
     25000   0.23410614     0.0013430571   0.0013430571   0              0              305.35653      274.6253       335.94086      0              247.86696      0              0              9.4190503      9.6790729      0.2            91.167674    
     25100   0.21025784     0.0010117847   0.0010117847   0              0              129.29807     -516.76528      775.19538      0              399.56546      0              0              9.4180845      9.6811814      0.2            91.178184    
     25200   0.19638562     0.00092547829  0.00092547829  0              0              136.81465     -35.589829      309.06863      0              547.21341      0              0              9.4171187      9.6891972      0.2            91.24432     
     25300   0.1674742      0.00090724484  0.00090724484  0              0              450.03797      1261.0063     -361.10498      0             -41.822937      0              0              9.4161529      9.6888293      0.2            91.231498    
     25400   0.20588306     0.0010428284   0.0010428284   0              0             -318.63948     -64.196806     -573.25385      0              726.00363      0              0              9.4151871      9.684266       0.2            91.179176    
     25500   0.21935031     0.0010259474   0.0010259474   0              0              411.76275      1013.6842     -190.30442      0              246.97578      0              0              9.4142213      9.6813827      0.2            91.142678    
     25600   0.21595116     0.0011639949   0.0011639949   0              0              58.871101     -276.31149      393.87595      0             -56.605268      0              0              9.4132555      9.6829502      0.2            91.148084    
     25700   0.1723584      0.0011434796   0.0011434796   0              0              563.26677      594.05274      532.30132      0              514.74593      0              0              9.4122897      9.6799104      0.2            91.11012     
     25800   0.2115182      0.0011110146   0.0011110146   0              0             -222.25271     -382.65646     -62.027234      0              126.01715      0              0              9.4113238      9.6688401      0.2            90.996585    
     25900   0.24873669     0.00091454713  0.00091454713  0              0             -207.11431      114.57567     -528.95024      0              1013.0747      0              0              9.410358       9.6796286      0.2            91.088771    
     26000   0.18934411     0.00093993574  0.00093993574  0              0             -355.83725     -505.30516     -206.57368      0              57.510299      0              0              9.4093922      9.6837065      0.2            91.117792    
     26100   0.23120789     0.00095596176  0.00095596176  0              0              119.10203     -143.74537      381.76228      0              324.47298      0              0              9.4084264      9.678824       0.2            91.062503    
     26200   0.2311451      0.00099796367  0.00099796367  0              0              558.40618      655.51796      461.12507      0              14.650611      0              0              9.4074606      9.6802369      0.2            91.066447    
     26300   0.22684963     0.00089797898  0.00089797898  0              0             -260.88975     -516.7845      -5.1619078      0             -84.490164      0              0              9.4064948      9.6857459      0.2            91.108918    
     26400   0.2142883      0.00075512772  0.00075512772  0              0             -505.05493     -647.86729     -362.40437      0              433.13864      0              0              9.405529       9.6896549      0.2            91.13633     
     26500   0.20359859     0.00086395271  0.00086395271  0              0             -558.99085     -739.03862     -379.13053      0             -278.41376      0              0              9.4045632      9.6905387      0.2            91.135284    
     26600   0.25125121     0.00094802844  0.00094802844  0              0              395.04362      709.87266      80.0612        0             -286.10908      0              0              9.4035974      9.6923342      0.2            91.142808    
     26700   0.17498853     0.00090721599  0.00090721599  0              0             -42.795854     -547.17949      461.37745      0              95.45613       0              0              9.4026316      9.6906715      0.2            91.117814    
     26800   0.21607067     0.0009595661   0.0009595661   0              0              351.61433      456.02485      247.00776      0              575.49298      0              0              9.4016658      9.6852816      0.2            91.05778     
     26900   0.18375924     0.0010133475   0.0010133475   0              0             -627.70385     -1126.0693     -129.49199      0              319.54074      0              0              9.4007         9.6925744      0.2            91.116984    
     27000   0.1862861      0.0010516321   0.0010516321   0              0             -231.86379     -67.397367     -396.47518      0             -88.229959      0              0              9.3997341      9.6978244      0.2            91.156971    
     27100   0.22274914     0.0010002211   0.0010002211   0              0             -283.95334     -213.52189     -354.55286      0              124.03674      0              0              9.3987683      9.6957728      0.2            91.128323    
     27200   0.22701347     0.0010235669   0.0010235669   0              0             -119.04432     -376.34869      138.07162      0             -472.83922      0              0              9.3978025      9.6917562      0.2            91.081211    
     27300   0.17860179     0.00099727171  0.00099727171  0              0              35.71697      -336.77674      408.09142      0             -365.26058      0              0              9.3968367      9.6832161      0.2            90.991601    
     27400   0.20048612     0.0010461754   0.0010461754   0              0              444.7609       711.42132      177.93713      0              198.62076      0              0              9.3958709      9.6800651      0.2            90.952642    
     27500   0.24529798     0.00079097882  0.00079097882  0              0              400.62709      962.69388     -161.57711      0             -175.63238      0              0              9.3949051      9.6902738      0.2            91.039203    
     27600   0.18344247     0.00097662761  0.00097662761  0              0              299.14962      944.7273      -346.56026      0             -111.13472      0              0              9.3939393      9.6951442      0.2            91.075596    
     27700   0.17968433     0.0010501604   0.0010501604   0              0              261.46932      686.55084     -163.76444      0              355.00526      0              0              9.3929735      9.6935798      0.2            91.051538    
     27800   0.20128894     0.00092976977  0.00092976977  0              0              1007.5052      1770.0182      244.86207      0              335.55229      0              0              9.3920077      9.698584       0.2            91.089176    
     27900   0.21006535     0.00088872621  0.00088872621  0              0              850.86716      1265.9044      435.63682      0              240.95223      0              0              9.3910419      9.7004585      0.2            91.097412    
     28000   0.18096666     0.00081716325  0.00081716325  0              0              644.34099      1186.9061      101.62622      0             -115.12172      0              0              9.3900761      9.7061428      0.2            91.141419    
[...]
     43000   0.16522401     0.00097929233  0.00097929233  0              0              275.24344     -75.304278      625.62251      0             -191.59723      0              0              9.2452049      9.7007989      0.2            89.685873    
     43100   0.21037954     0.00090424628  0.00090424628  0              0              132.43709     -28.013085      292.73955      0             -492.97242      0              0              9.2442391      9.6972483      0.2            89.643681    
     43200   0.17914897     0.00093510685  0.00093510685  0              0             -85.067904      114.99886     -285.33015      0             -388.57445      0              0              9.2432733      9.7060115      0.2            89.715316    
     43300   0.21004107     0.0010417864   0.0010417864   0              0             -468.43274     -442.94608     -494.11681      0             -449.04546      0              0              9.2423075      9.703296       0.2            89.680845    
     43400   0.20783895     0.0008540951   0.0008540951   0              0              57.312975      363.31638     -248.85496      0              47.782819      0              0              9.2413417      9.6991677      0.2            89.633323    
     43500   0.19113408     0.0011106845   0.0011106845   0              0              533.62746      715.66943      351.3908       0             -918.32663      0              0              9.2403759      9.6969306      0.2            89.603283    
     43600   0.20191137     0.0009603754   0.0009603754   0              0             -152.50315     -745.46225      440.269        0             -659.7909       0              0              9.2394101      9.6954934      0.2            89.580639    
     43700   0.18210813     0.0013857734   0.0013857734   0              0              508.06116      1106.2783     -90.346876      0             -1028.5757      0              0              9.2384442      9.6904195      0.2            89.5244      
     43800   0.22926557     0.00098674228  0.00098674228  0              0             -197.72219      146.81252     -542.45936      0              26.246996      0              0              9.2374784      9.6978834      0.2            89.583989    
     43900   0.18129701     0.0010182307   0.0010182307   0              0              137.48628      567.17309     -292.34748      0              71.652416      0              0              9.2365126      9.7068832      0.2            89.65775     
     44000   0.19048642     0.0010627816   0.0010627816   0              0              500.881        912.88047      88.706394      0             -635.04165      0              0              9.2355468      9.703667       0.2            89.618671    
     44100   0.18093697     0.00100941     0.00100941     0              0              515.29577      704.12885      326.25795      0             -1199.3142      0              0              9.234581       9.6921948      0.2            89.503358    
     44200   0.16298296     0.00093317798  0.00093317798  0              0              354.90649      580.91868      128.73945      0             -779.99501      0              0              9.2336152      9.692874       0.2            89.500269    
     44300   0.19087961     0.00092541656  0.00092541656  0              0              302.10022      876.05944     -272.07909      0              27.222599      0              0              9.2326494      9.6998932      0.2            89.555713    
     44400   0.19672523     0.0011846872   0.0011846872   0              0              415.92324      1169.3949     -337.69327      0             -216.58719      0              0              9.2316836      9.6992741      0.2            89.54063     
     44500   0.1868518      0.0013426199   0.0013426199   0              0              323.65009      576.80998      70.343598      0             -610.36342      0              0              9.2307178      9.6918081      0.2            89.462345    
     44600   0.15350692     0.00094170669  0.00094170669  0              0              461.22103      487.57933      434.69534      0             -807.40643      0              0              9.229752       9.6910609      0.2            89.446088    
     44700   0.17658174     0.00095797317  0.00095797317  0              0              686.92517      1030.2382      343.44593      0             -808.38644      0              0              9.2287862      9.6914546      0.2            89.440362    
     44800   0.19149696     0.0010243671   0.0010243671   0              0             -317.05312     -424.74915     -209.53433      0             -330.88833      0              0              9.2278204      9.6972606      0.2            89.484579    
     44900   0.23207793     0.00096565115  0.00096565115  0              0             -415.97165     -611.92116     -220.20248      0             -439.42131      0              0              9.2268546      9.7046217      0.2            89.543133    
     45000   0.19893868     0.00079963846  0.00079963846  0              0             -40.44191      -123.36952      42.319971      0             -272.00827      0              0              9.2258887      9.7032511      0.2            89.521115    
     45100   0.22517633     0.00089889842  0.00089889842  0              0              240.22371      276.18511      204.07251      0             -509.32488      0              0              9.2249229      9.6961972      0.2            89.446672    
     45200   0.21736835     0.0010933254   0.0010933254   0              0              59.349278     -68.279413      186.80533      0             -823.08722      0              0              9.2239571      9.7007195      0.2            89.479021    
     45300   0.17635338     0.00089964554  0.00089964554  0              0              130.37266      92.686924      167.89857      0             -176.28312      0              0              9.2229913      9.7045783      0.2            89.505242    
     45400   0.15552155     0.00081044632  0.00081044632  0              0             -414.57403     -672.9856      -156.33029      0             -695.13406      0              0              9.2220255      9.7075985      0.2            89.523721    
     45500   0.19400673     0.00097150965  0.00097150965  0              0             -332.30272     -309.35938     -355.46648      0             -279.89077      0              0              9.2210597      9.7040785      0.2            89.481887    
     45600   0.16753506     0.0012596585   0.0012596585   0              0              255.39599      613.67716     -103.07641      0             -663.86395      0              0              9.2200939      9.6971221      0.2            89.408377    
     45700   0.19599591     0.0010575929   0.0010575929   0              0              822.36391      1367.8713      276.68887      0              4.6790206      0              0              9.2191281      9.6989891      0.2            89.416223    
     45800   0.20759706     0.00095842537  0.00095842537  0              0             -153.90821     -512.01844      204.01776      0             -365.38256      0              0              9.2181623      9.7047821      0.2            89.460256    
     45900   0.23586902     0.00098820315  0.00098820315  0              0              348.82472      616.81594      80.688082      0             -138.83777      0              0              9.2171965      9.7090754      0.2            89.490455    
     46000   0.2311153      0.00097943944  0.00097943944  0              0              584.97521      1403.3086     -233.50667      0              363.73065      0              0              9.2162307      9.7087399      0.2            89.477986    
     46100   0.19188208     0.0011407952   0.0011407952   0              0              322.59218      937.48449     -292.5002       0             -1005.4122      0              0              9.2152649      9.7060146      0.2            89.443495    
     46200   0.1670462      0.0010139926   0.0010139926   0              0              353.66161      839.35753     -132.19177      0             -838.67602      0              0              9.2142991      9.7091127      0.2            89.462668    
     46300   0.26678905     0.00098847513  0.00098847513  0              0             -128.31605     -404.45477      147.66712      0             -768.16418      0              0              9.2133332      9.6961211      0.2            89.333595    
     46400   0.25780092     0.001131104    0.001131104    0              0              310.80914      465.831        155.61513      0              13.047434      0              0              9.2123674      9.6988169      0.2            89.349065    
     46500   0.20445758     0.0011912468   0.0011912468   0              0              72.894048      232.40011     -86.840922      0              309.78272      0              0              9.2114016      9.7023734      0.2            89.372458    
     46600   0.25103515     0.0012900536   0.0012900536   0              0             -15.142335      236.10755     -266.61353      0             -350.43971      0              0              9.2104358      9.699117       0.2            89.333095    
     46700   0.25504086     0.0012655683   0.0012655683   0              0              353.11371      829.57522     -123.53059      0              422.54694      0              0              9.20947        9.6839358      0.2            89.183917    
     46800   0.24182205     0.0011774908   0.0011774908   0              0              572.622        1098.3158      46.765336      0             -293.99076      0              0              9.2085042      9.6824483      0.2            89.160866    
     46900   0.17709173     0.0011033609   0.0011033609   0              0              88.462661     -62.648682      239.4165       0             -39.393609      0              0              9.2075384      9.6916204      0.2            89.235967    
     47000   0.23751288     0.0011138586   0.0011138586   0              0              347.90355      598.82726      96.793904      0              289.89319      0              0              9.2065726      9.7007808      0.2            89.310943    
     47100   0.1781769      0.000718217    0.000718217    0              0             -132.09492      4.3969548     -268.78379      0             -248.03621      0              0              9.2056068      9.6994827      0.2            89.289624    
     47200   0.22717621     0.0010324468   0.0010324468   0              0             -473.49656     -610.36924     -336.77713      0             -339.06238      0              0              9.204641       9.6941435      0.2            89.23111     
     47300   0.23657571     0.00088396105  0.00088396105  0              0             -186.36947     -267.28939     -105.62124      0             -375.48207      0              0              9.2036752      9.7005059      0.2            89.280305    
     47400   0.25682721     0.00073553336  0.00073553336  0              0              768.6168       1240.1324      296.88189      0              381.03712      0              0              9.2027094      9.6994244      0.2            89.260984    
     47500   0.20956088     0.00096825846  0.00096825846  0              0              586.91853      841.1835       332.48696      0              9.6992376      0              0              9.2017435      9.6981619      0.2            89.239999    
     47600   0.26650258     0.0008264594   0.0008264594   0              0              418.66329      935.59435     -98.422472      0              402.62183      0              0              9.2007777      9.7012282      0.2            89.258845    
     47700   0.21579501     0.00091592092  0.00091592092  0              0             -725.25776     -826.20396     -624.51276      0              536.85154      0              0              9.1998119      9.6989812      0.2            89.228803    
     47800   0.17228746     0.0011434826   0.0011434826   0              0             -377.18849     -323.03438     -431.48025      0              44.308173      0              0              9.1988461      9.6969536      0.2            89.200784    
     47900   0.22217183     0.0010635656   0.0010635656   0              0              198.56811      192.7614       204.1703       0              720.78273      0              0              9.1978803      9.6997285      0.2            89.216942    
     48000   0.16713007     0.00098805155  0.00098805155  0              0              534.95679      254.43363      815.25771      0              480.81791      0              0              9.1969145      9.6931195      0.2            89.146791    
     48100   0.24541116     0.0010693262   0.0010693262   0              0              732.98734      667.4971       798.32364      0              866.0957       0              0              9.1959487      9.6956203      0.2            89.160427    
     48200   0.25067619     0.0011794095   0.0011794095   0              0              57.230434      428.95641     -314.63146      0              450.52617      0              0              9.1949829      9.7007905      0.2            89.198603    
     48300   0.24466123     0.0010923245   0.0010923245   0              0             -680.2003      -53.384429     -1307.18        0              544.64722      0              0              9.1940171      9.705736       0.2            89.234703    
     48400   0.22648931     0.00099197231  0.00099197231  0              0             -628.71175     -202.89146     -1054.7064      0              184.11502      0              0              9.1930513      9.7080809      0.2            89.246885    
     48500   0.28386007     0.0011731697   0.0011731697   0              0             -61.278541     -487.80607      365.04301      0              521.47744      0              0              9.1920855      9.7048364      0.2            89.207686    
     48600   0.21024553     0.0011007783   0.0011007783   0              0              1134.386       843.93246      1424.6353      0             -295.70155      0              0              9.1911197      9.6982831      0.2            89.13808     
     48700   0.19087156     0.00094055358  0.00094055358  0              0              441.94426     -204.52857      1088.2222      0              1080.5614      0              0              9.1901539      9.688321       0.2            89.03716     
     48800   0.17845512     0.00092899958  0.00092899958  0              0              90.291308      540.64514     -360.25974      0             -35.891679      0              0              9.189188       9.696676       0.2            89.104579    
     48900   0.22143234     0.0010897072   0.0010897072   0              0             -876.30976     -175.7428      -1577.0742      0             -394.61235      0              0              9.1882222      9.7050363      0.2            89.17203     
     49000   0.2139119      0.0011202957   0.0011202957   0              0             -882.13418     -550.97398     -1213.4539      0              212.80557      0              0              9.1872564      9.7020615      0.2            89.135327    
     49100   0.2345099      0.0011822214   0.0011822214   0              0              117.6317      -69.406598      304.45213      0             -621.0823       0              0              9.1862906      9.6979756      0.2            89.088422    
     49200   0.17561843     0.0011927342   0.0011927342   0              0              1483.5421      1641.3328      1325.5743      0             -301.31106      0              0              9.1853248      9.6886791      0.2            88.993664    
     49300   0.21820862     0.0009195078   0.0009195078   0              0              1139.7242      1116.6065      1162.696       0              213.79276      0              0              9.184359       9.6828113      0.2            88.930415    
     49400   0.22102541     0.0012998771   0.0012998771   0              0              888.24447      1870.3843     -94.074276      0              315.93268      0              0              9.1833932      9.6943911      0.2            89.027405    
     49500   0.22412021     0.0010373854   0.0010373854   0              0             -91.386005      800.55676     -983.50382      0             -27.711623      0              0              9.1824274      9.7058695      0.2            89.123442    
     49600   0.18536677     0.0010647288   0.0010647288   0              0             -886.19937     -911.14946     -861.39653      0             -501.03663      0              0              9.1814616      9.707722       0.2            89.131077    
     49700   0.1959656      0.0010695305   0.0010695305   0              0             -427.80275     -892.65012      36.901954      0             -423.29958      0              0              9.1804958      9.6977881      0.2            89.030503    
     49800   0.20726532     0.00091885506  0.00091885506  0              0              678.84502      637.97738      719.52399      0             -276.22238      0              0              9.17953        9.6910224      0.2            88.959031    
     49900   0.211106       0.0010589221   0.0010589221   0              0              1080.3265      1559.0446      601.44597      0             -625.0747       0              0              9.1785642      9.6962077      0.2            88.997264    
     50000   0.19374152     0.00092754298  0.00092754298  0              0             -38.762129      11.116521     -88.815558      0             -160.50338      0              0              9.1775984      9.6997756      0.2            89.020645    
     50100   0.15836688     0.0010690448   0.0010690448   0              0              54.959023      755.51214     -645.73873      0             -962.94762      0              0              9.1766325      9.694738       0.2            88.965049    
     50200   0.16386217     0.00096948085  0.00096948085  0              0             -15.77783       435.54483     -467.27453      0             -1111.024       0              0              9.1756667      9.6951598      0.2            88.959555    
     50251   0.15875724     0.0010910877   0.0010910877   0              0              133.08113     -22.806371      288.82078      0             -1457.373       0              0              9.1751742      9.6864666      0.2            88.875018    
Loop time of 1.04412 on 1 procs for 50000 steps with 56 atoms

Performance: 41374.542 ns/day, 0.001 hours/ns, 47887.202 timesteps/s
99.3% CPU use with 1 MPI tasks x 1 OpenMP threads

MPI task timing breakdown:
Section |  min time  |  avg time  |  max time  |%varavg| %total
---------------------------------------------------------------
Pair    | 0          | 0          | 0          |   0.0 |  0.00
Bond    | 0.1464     | 0.1464     | 0.1464     |   0.0 | 14.02
Neigh   | 0          | 0          | 0          |   0.0 |  0.00
Comm    | 0.34122    | 0.34122    | 0.34122    |   0.0 | 32.68
Output  | 0.0065257  | 0.0065257  | 0.0065257  |   0.0 |  0.62
Modify  | 0.52455    | 0.52455    | 0.52455    |   0.0 | 50.24
Other   |            | 0.02542    |            |       |  2.44

Nlocal:             56 ave          56 max          56 min
Histogram: 1 0 0 0 0 0 0 0 0 0
Nghost:            469 ave         469 max         469 min
Histogram: 1 0 0 0 0 0 0 0 0 0
Neighs:              0 ave           0 max           0 min
Histogram: 1 0 0 0 0 0 0 0 0 0

Total # of neighbors = 0
Ave neighs/atom = 0
Ave special neighs/atom = 21.214286
Neighbor list builds = 0
Dangerous builds = 0


Total wall time: 0:00:01
