LAMMPS data file.

     56 atoms
    115 bonds
      0 angles
      0 dihedrals
      0 impropers
      1 atom types
    115 bond types
      0 angle types
      0 dihedral types
      0 improper types
  -4.829036   4.829036 xlo xhi
  -4.829036   4.829036 ylo yhi
  -0.100000   0.100000 zlo zhi

Masses # ['atom_id', 'mass']

1 10000.0

Atoms # ['atomID', 'moleculeID', 'atomType', 'charge', 'x', 'y', 'z']

     22      1      1   0.000000  -3.862524  -3.904086   0.000000
     65      1      1   0.000000  -3.673353   4.660049   0.000000
     78      1      1   0.000000  -3.212343  -4.604335   0.000000
     58      1      1   0.000000  -2.568177  -4.238496   0.000000
     24      1      1   0.000000  -1.567836  -4.454846   0.000000
     74      1      1   0.000000  -0.624200  -4.201460   0.000000
     41      1      1   0.000000   0.133177  -4.523652   0.000000
     42      1      1   0.000000   0.878810  -3.888617   0.000000
      5      1      1   0.000000   1.563224  -4.781743   0.000000
     80      1      1   0.000000  -3.069187  -3.674201   0.000000
      8      1      1   0.000000  -3.427762  -2.698456   0.000000
     43      1      1   0.000000  -2.379644  -3.351075   0.000000
     55      1      1   0.000000  -1.272793  -3.405926   0.000000
     29      1      1   0.000000  -0.164075  -3.468653   0.000000
     23      1      1   0.000000   0.696098  -2.827114   0.000000
     27      1      1   0.000000   1.958893  -3.546418   0.000000
     62      1      1   0.000000  -2.377671  -2.527745   0.000000
      4      1      1   0.000000  -2.784552  -1.509749   0.000000
     45      1      1   0.000000  -1.742403  -2.568762   0.000000
     11      1      1   0.000000  -0.638065  -2.110462   0.000000
     17      1      1   0.000000   1.862506  -2.189275   0.000000
     50      1      1   0.000000  -3.915207  -1.629928   0.000000
     75      1      1   0.000000  -1.764710  -1.920794   0.000000
      2      1      1   0.000000  -1.226039  -0.653101   0.000000
     69      1      1   0.000000  -0.238233  -1.057153   0.000000
     32      1      1   0.000000   0.548186  -1.566389   0.000000
     21      1      1   0.000000   1.614609  -0.836300   0.000000
      6      1      1   0.000000  -3.959147  -0.492804   0.000000
     25      1      1   0.000000  -2.574763  -0.301334   0.000000
     18      1      1   0.000000  -0.535156   0.659732   0.000000
     28      1      1   0.000000   0.469709  -0.411895   0.000000
     57      1      1   0.000000  -4.234411   0.671978   0.000000
     72      1      1   0.000000  -3.847335   1.289769   0.000000
     44      1      1   0.000000  -3.323985   0.734208   0.000000
     15      1      1   0.000000  -2.011750   0.954699   0.000000
     51      1      1   0.000000  -1.196219   1.689566   0.000000
     33      1      1   0.000000   3.570643   1.908648   0.000000
     39      1      1   0.000000   4.764782   1.462716   0.000000
     40      1      1   0.000000  -3.033673   1.691925   0.000000
     66      1      1   0.000000  -2.554329   2.475607   0.000000
     46      1      1   0.000000  -1.881989   2.145180   0.000000
     34      1      1   0.000000  -0.833531   2.608304   0.000000
     26      1      1   0.000000   0.103290   1.914749   0.000000
     48      1      1   0.000000   0.736814   2.749584   0.000000
     16      1      1   0.000000  -3.677907   2.921352   0.000000
     47      1      1   0.000000  -2.489497   3.275279   0.000000
      7      1      1   0.000000   0.005963   3.556800   0.000000
     37      1      1   0.000000   1.443274   3.586169   0.000000
     12      1      1   0.000000   2.792913   2.830517   0.000000
      1      1      1   0.000000   4.440297   2.811484   0.000000
     13      1      1   0.000000  -4.509222   4.102577   0.000000
     36      1      1   0.000000  -3.048719   4.123481   0.000000
     10      1      1   0.000000  -1.570482   3.811437   0.000000
     52      1      1   0.000000  -0.660932   4.579942   0.000000
     49      1      1   0.000000   2.367561   4.022728   0.000000
      3      1      1   0.000000   3.545564   4.108071   0.000000

Bond Coeffs # ['bondID', 'bondCoeff', 'd']

      1   0.832374   1.096076
      2   1.200844   0.912550
      3   1.474770   0.823451
      4   0.772213   1.137972
      5   0.670728   1.221031
      6   0.773501   1.137024
      7   0.624107   1.265816
      8   0.883349   1.063981
      9   0.761180   1.146189
     10   1.822197   0.740802
     11   0.404922   1.571500
     12   0.883523   1.063876
     13   0.667751   1.223750
     14   0.461049   1.472742
     15   0.461049   1.472742
     16   0.925366   1.039545
     17   1.716614   0.763245
     18   1.120889   0.944537
     19   1.120889   0.944537
     20   0.636371   1.253559
     21   0.479300   1.444429
     22   0.843354   1.088918
     23   0.392154   1.596877
     24   1.042494   0.979407
     25   0.834055   1.094971
     26   0.699496   1.195659
     27   0.957038   1.022199
     28   1.184936   0.918655
     29   1.213923   0.907621
     30   0.547422   1.351571
     31   1.756109   0.754613
     32   0.483244   1.438523
     33   0.698086   1.196866
     34   0.829792   1.097780
     35   1.476172   0.823060
     36   0.724976   1.174460
     37   0.454370   1.483526
     38   0.519625   1.387251
     39   0.623288   1.266647
     40   0.810905   1.110491
     41   1.089871   0.957883
     42   1.024988   0.987735
     43   2.467623   0.636591
     44   0.402952   1.575337
     45   0.502354   1.410896
     46   0.441046   1.505768
     47   0.827106   1.099561
     48   0.608805   1.281624
     49   0.598699   1.292397
     50   0.650372   1.239993
     51   0.664770   1.226490
     52   2.720935   0.606235
     53   2.720935   0.606235
     54   1.475197   0.823332
     55   1.781828   0.749147
     56   0.766106   1.142498
     57   0.825793   1.100435
     58   1.724496   0.761498
     59   0.832039   1.096297
     60   0.825793   1.100435
     61   1.881491   0.729036
     62   0.687424   1.206112
     63   1.335610   0.865287
     64   0.629791   1.260091
     65   0.540212   1.360561
     66   0.543186   1.356831
     67   0.789830   1.125209
     68   0.842259   1.089625
     69   0.670435   1.221298
     70   0.594325   1.297143
     71   0.877950   1.067248
     72   1.085331   0.959884
     73   0.504368   1.408077
     74   1.553571   0.802296
     75   0.910496   1.047999
     76   0.746818   1.157158
     77   0.954664   1.023469
     78   0.736024   1.165612
     79   2.378913   0.648352
     80   1.139243   0.936897
     81   1.047501   0.977063
     82   0.705278   1.190748
     83   0.587128   1.305070
     84   1.465780   0.825973
     85   0.519068   1.387995
     86   0.726958   1.172858
     87   0.514722   1.393842
     88   0.726958   1.172858
     89   0.791152   1.124268
     90   0.527816   1.376445
     91   0.968826   1.015961
     92   1.214977   0.907227
     93   0.868455   1.073066
     94   0.998500   1.000751
     95   0.620614   1.269373
     96   0.454829   1.482777
     97   0.861941   1.077113
     98   0.528542   1.375498
     99   1.095188   0.955555
    100   0.655969   1.234691
    101   1.475221   0.823325
    102   0.697309   1.197532
    103   0.414276   1.553657
    104   0.779011   1.132996
    105   0.511985   1.397563
    106   0.716860   1.181090
    107   1.066036   0.968532
    108   1.066036   0.968532
    109   0.787820   1.126643
    110   0.943940   1.029266
    111   0.943940   1.029266
    112   0.565820   1.329416
    113   0.615452   1.274686
    114   0.990637   1.004715
    115   0.483857   1.437611

Bonds # ['ID', 'type', 'atom1', 'atom2']

         1         1        41        29
         2         2        57        44
         3         3        65        36
         4         4        50         6
         5         5        21        28
         6         6         4        50
         7         7        12        49
         8         8        47        10
         9         9        46        34
        10        10        78        58
        11        11        11         2
        12        12         8        62
        13        13        18        51
        14        14         1        13
        15        15        13         1
        16        16        80         8
        17        17        72        44
        18        18        78        36
        19        19        36        78
        20        20        33         1
        21        21        16        13
        22        22        48         7
        23        23         7        10
        24        24        41        42
        25        25        48        37
        26        26        45        11
        27        27        37        49
        28        28        40        66
        29        29        72        40
        30        30         8         4
        31        31        58        80
        32        32        29        11
        33        33         6        57
        34        34        15        51
        35        35        74        41
        36        36         8        50
        37        37         2        18
        38        38        39         1
        39        39        34         7
        40        40        55        29
        41        41        69        28
        42        42        51        34
        43        43        62        45
        44        44         1         3
        45        45        34        10
        46        46        18        15
        47        47         4        75
        48        48        22         8
        49        49        32        21
        50        50        16        47
        51        51         4        25
        52        52        78        65
        53        53        65        78
        54        54        43        62
        55        55        66        46
        56        56        11        75
        57        57        52        24
        58        58        80        43
        59        59        62         4
        60        60        24        52
        61        61        57        72
        62        62        33        12
        63        63        74        29
        64        64        15        40
        65        65        27        17
        66        66        16        36
        67        67        42         5
        68        68        24        55
        69        69         7        52
        70        70         5        27
        71        71         2        69
        72        72        55        45
        73        73        18        26
        74        74        66        47
        75        75        26        48
        76        76        32        28
        77        77        58        24
        78        78        34        26
        79        79        45        75
        80        80        69        32
        81        81        24        74
        82        82        10        52
        83        83        11        32
        84        84        22        80
        85        85        40        16
        86        86        49         5
        87        87         2        25
        88        88         5        49
        89        89        42        29
        90        90        25        15
        91        91        47        36
        92        92        58        43
        93        93        29        23
        94        94        44        40
        95        95        23        32
        96        96        12         3
        97        97        42        23
        98        98        17        21
        99        99        22        78
       100       100         8        43
       101       101        51        46
       102       102        15        46
       103       103         4         6
       104       104        42        27
       105       105         6        25
       106       106        49         3
       107       107        41        52
       108       108        52        41
       109       109        11        69
       110       110        57        39
       111       111        39        57
       112       112        23        17
       113       113        33        39
       114       114        65        13
       115       115         7        37
