LAMMPS data file via write_data, version 23 Jun 2022, timestep = 10000

80 atoms
4 atom types

-4.807274387295498 4.807274387295498 xlo xhi
-4.807274387295498 4.807274387295498 ylo yhi
-0.1 0.1 zlo zhi

Atoms # sphere

51 3 1 1 -4.252560893307223 -3.907983322044627 0 0 1 0
46 3 1 1 -3.439281285776219 -4.017008737231911 0 0 1 0
54 3 1 1 -2.5002433342054218 -4.641223654236652 0 0 0 0
7 1 1.6 0.2441406249999999 -1.3242132766155654 -4.521656493810776 0 0 0 0
33 2 1.3 0.4551661356395083 -0.20979463966934286 -4.081982859524481 0 0 0 0
34 2 1.3 0.4551661356395083 0.8174095174160678 4.751937626129065 0 0 -1 0
40 2 1.3 0.4551661356395083 3.2698681629691464 -4.332531252291745 0 -1 0 0
68 4 0.7 2.915451895043732 4.038665644267015 -3.454182725569652 0 0 0 0
39 2 1.3 0.4551661356395083 4.42771506043762 -4.219185180479659 0 0 0 0
65 4 0.7 2.915451895043732 -4.783721920659212 -3.4722820483742365 0 0 0 0
25 2 1.3 0.4551661356395083 -3.748001956601258 -2.863604480808655 0 1 0 0
14 1 1.6 0.2441406249999999 -2.262608793621766 -3.350966837647615 0 0 1 0
52 3 1 1 -0.9712926027271647 -3.3598691654743043 0 0 0 0
70 4 0.7 2.915451895043732 -0.26351334904452184 -2.990675495370616 0 0 1 0
15 1 1.6 0.2441406249999999 0.8589755255685185 -3.380340398991171 0 -1 0 0
26 2 1.3 0.4551661356395083 1.9846971712961627 -3.9458338870084355 0 0 0 0
71 4 0.7 2.915451895043732 1.8742452390264468 -2.925639109915199 0 0 0 0
18 1 1.6 0.2441406249999999 2.9774106633489517 -2.9595631078169102 0 0 1 0
4 1 1.6 0.2441406249999999 4.346189115993015 -2.5847033334992857 0 0 0 0
67 4 0.7 2.915451895043732 -4.425390486923527 -1.944280564717186 0 1 1 0
72 4 0.7 2.915451895043732 -3.810983496365132 -1.9599065513130998 0 0 0 0
9 1 1.6 0.2441406249999999 -2.843298818754797 -1.8943568880216315 0 0 0 0
74 4 0.7 2.915451895043732 -1.851558770994295 -2.2278709702113546 0 0 0 0
29 2 1.3 0.4551661356395083 -0.8556044214361811 -2.3258185736778247 0 0 0 0
41 3 1 1 0.28257242127751514 -2.3574207144398445 0 0 0 0
45 3 1 1 2.2756323172218993 -1.9641077832087386 0 0 0 0
13 1 1.6 0.2441406249999999 3.144738054680511 -1.3968466662875616 0 0 0 0
24 2 1.3 0.4551661356395083 -3.9394401538071864 -1.169579508965871 0 1 1 0
77 4 0.7 2.915451895043732 4.774560591595002 -0.5136974804649288 0 0 1 0
79 4 0.7 2.915451895043732 -3.171382958070768 -0.7144739586134294 0 1 0 0
48 3 1 1 -2.4012640814083848 -1.0088093054760576 0 1 0 0
1 1 1.6 0.2441406249999999 -1.1107345266343907 -1.2086119929492791 0 0 0 0
10 1 1.6 0.2441406249999999 0.4102494445061309 -0.9915302511905559 0 0 0 0
38 2 1.3 0.4551661356395083 1.3266719276776966 -2.055875381730488 0 0 0 0
36 2 1.3 0.4551661356395083 4.4662577884726495 -1.2674965431242544 0 0 0 0
32 2 1.3 0.4551661356395083 -4.015549495684569 -0.1182559420439997 0 1 0 0
30 2 1.3 0.4551661356395083 -2.7797882043070983 0.07329571557205572 0 0 0 0
47 3 1 1 -1.8217983120694696 -0.3064971936384566 0 1 0 0
6 1 1.6 0.2441406249999999 1.783355139685126 -0.6270763400591965 0 0 0 0
5 1 1.6 0.2441406249999999 3.740015195254177 -0.10312965211513614 0 -1 0 0
61 4 0.7 2.915451895043732 4.690501212479326 0.15768479374694877 0 -1 0 0
73 4 0.7 2.915451895043732 -3.86590738756522 1.5066488215104306 0 0 0 0
63 4 0.7 2.915451895043732 -3.652299706854791 0.7230550277774057 0 0 0 0
35 2 1.3 0.4551661356395083 -2.9484602259478505 1.3084216339293402 0 0 0 0
42 3 1 1 -1.9402368758493687 0.9065393200593963 0 0 -1 0
11 1 1.6 0.2441406249999999 -0.7223196518522945 0.3138415940202437 0 0 0 0
27 2 1.3 0.4551661356395083 -0.2044921867093752 1.441916420152526 0 0 0 0
17 1 1.6 0.2441406249999999 0.7494635806046857 0.6006701832342207 0 0 0 0
23 2 1.3 0.4551661356395083 2.4066028689704915 0.7053855243505245 0 0 0 0
57 3 1 1 3.3927292105192173 1.141500461390586 0 0 0 0
62 4 0.7 2.915451895043732 4.118185250272974 1.7461466415595899 0 0 0 0
3 1 1.6 0.2441406249999999 -4.7082764757950395 1.1393355720748692 0 0 0 0
69 4 0.7 2.915451895043732 -4.235237180550994 2.066779036220453 0 0 0 0
66 4 0.7 2.915451895043732 -4.410112909189211 2.694418684443197 0 0 0 0
59 3 1 1 -3.5269680343693013 2.2802222615383414 0 1 0 0
12 1 1.6 0.2441406249999999 -2.316515938996185 2.5430594460030322 0 0 0 0
22 2 1.3 0.4551661356395083 -1.2659340363243063 1.7046211695428326 0 0 0 0
76 4 0.7 2.915451895043732 -0.16898574779885145 2.288246546173335 0 0 -1 0
80 4 0.7 2.915451895043732 1.64311736974304 1.3127851585655748 0 0 0 0
8 1 1.6 0.2441406249999999 2.312518314050717 2.1701399012072153 0 0 0 0
58 3 1 1 3.5134097874465997 2.2476168155734255 0 0 -1 0
43 3 1 1 4.493931551076432 2.3687015645852556 0 0 0 0
44 3 1 1 -4.694127408573469 3.695604933552449 0 0 0 0
20 1 1.6 0.2441406249999999 -3.527269105100836 3.5167195080897358 0 0 0 0
21 2 1.3 0.4551661356395083 -1.1184159988543225 2.9119822338375023 0 0 0 0
19 1 1.6 0.2441406249999999 0.9468136402756597 2.1712793194236903 0 0 -1 0
64 4 0.7 2.915451895043732 1.258847455213938 3.2235515153341456 0 0 0 0
60 3 1 1 2.1338896612050107 3.389414542058704 0 0 0 0
49 3 1 1 3.0841539143823997 3.232464176225333 0 0 0 0
56 3 1 1 4.017302576953073 3.2197127542186035 0 0 0 0
31 2 1.3 0.4551661356395083 -4.36954181462935 4.599452137269175 0 0 -1 0
55 3 1 1 -3.290059325179278 4.733629803221858 0 0 0 0
16 1 1.6 0.2441406249999999 -2.032873958522018 3.921720167052719 0 0 0 0
75 4 0.7 2.915451895043732 -0.1450168947195003 4.604796872272042 0 1 -1 0
78 4 0.7 2.915451895043732 -0.7228647508596993 4.138061357714763 0 0 0 0
2 1 1.6 0.2441406249999999 0.12673817658531483 3.427262457474246 0 0 -1 0
50 3 1 1 1.499607474960591 3.986862528856877 0 0 -1 0
28 2 1.3 0.4551661356395083 2.1237586237642603 4.5247641419484825 0 0 -1 0
53 3 1 1 3.029288412978447 4.064767752664558 0 0 0 0
37 2 1.3 0.4551661356395083 4.066246000959742 4.336307407757015 0 0 0 0

Velocities

51 0.07927077427360324 0.18745610083509825 0 0 0 0
46 0.2580370116037124 0.14159281000995022 0 0 0 0
54 0.002417485632733466 0.12244290684637527 0 0 0 0
7 -0.25324343801532984 0.03530029173219175 0 0 0 0
33 -0.009614364861697916 -0.15108289355312024 0 0 0 0
34 0.12875446916521405 -0.061618143512997485 0 0 0 0
40 0.025819557412297123 -0.06506276963621668 0 0 0 0
68 -0.03652665343106861 0.01889008856668444 0 0 0 0
39 0.02576579005225338 0.12408469749697763 0 0 0 0
65 -0.008222250244019775 -0.10994626049623793 0 0 0 0
25 -0.03719869242399117 -0.18924544457258854 0 0 0 0
14 -0.08610636498120053 -0.11019899151177585 0 0 0 0
52 -0.1309743162160363 0.10476892505490135 0 0 0 0
70 0.03901297655198787 -0.10835190861639583 0 0 0 0
15 0.020847920932117098 -0.09805366295277149 0 0 0 0
26 0.11779286312634242 -0.046082627826246274 0 0 0 0
71 0.02956857309248567 0.018829563057711947 0 0 0 0
18 -0.08820970826667134 -0.19890490089833548 0 0 0 0
4 0.01749439350516372 -0.008238706571721153 0 0 0 0
67 -0.2586662344375827 -0.07091376620586674 0 0 0 0
72 0.007635590152921958 -0.020328800073989746 0 0 0 0
9 -0.06186713899558097 -0.09985706733898278 0 0 0 0
74 0.1845926327244906 -0.03807622437097982 0 0 0 0
29 0.024461686784864434 0.014186303504047811 0 0 0 0
41 -0.01580712050536083 -0.04928934724308597 0 0 0 0
45 -0.1280389166981865 -0.02416497659808691 0 0 0 0
13 -0.014149583844084428 0.13620862157819177 0 0 0 0
24 -0.2039809800614722 -0.08985085878660531 0 0 0 0
77 -0.08053787390757114 0.008092315345286993 0 0 0 0
79 0.025134872744020712 -0.08856304986880909 0 0 0 0
48 0.09146344659828083 0.2105786396202097 0 0 0 0
1 -0.013714923184870248 0.026313374920372157 0 0 0 0
10 -0.07991155330184531 -0.0817074311102029 0 0 0 0
38 -0.1751875005579204 0.08685106418763798 0 0 0 0
36 0.019407236005318348 0.011731611569455923 0 0 0 0
32 0.10283467932804721 0.022029992686858853 0 0 0 0
30 -0.027105382576597038 -0.02429243589083021 0 0 0 0
47 -0.12922237825680377 -0.05295577383026625 0 0 0 0
6 0.1919773544622662 -0.046726517089790316 0 0 0 0
5 0.035000789986153726 0.07393117143030536 0 0 0 0
61 0.15181908107949074 0.14815967749362138 0 0 0 0
73 0.042754489543032174 0.24542261139292118 0 0 0 0
63 -0.03488790235084529 0.10703103381021999 0 0 0 0
35 -0.01816680904881034 0.004817065491558992 0 0 0 0
42 -0.06234722311891463 -0.11831092994927599 0 0 0 0
11 -0.11963548584037734 -0.05639306999034294 0 0 0 0
27 -0.15137045960575327 -0.10800489415276733 0 0 0 0
17 0.12599554729308082 -0.10325202388247158 0 0 0 0
23 0.11453529052897388 -0.04391831815573573 0 0 0 0
57 -0.06974475158988984 0.007666179475279997 0 0 0 0
62 -0.03367899168471586 -0.01668870324026653 0 0 0 0
3 0.1755364079305489 0.10173737361973208 0 0 0 0
69 -0.15625426675605375 0.24275100943189729 0 0 0 0
66 0.14426043310832218 0.07179282397729772 0 0 0 0
59 0.10736400718626786 0.02149590910578523 0 0 0 0
12 -0.1754280224602083 -0.10264632528826767 0 0 0 0
22 0.03779870902125239 0.0016327328628558395 0 0 0 0
76 -0.21270719781964453 -0.04736839077739633 0 0 0 0
80 0.07460555210306101 0.12735728031915172 0 0 0 0
8 0.026559827275613193 -0.014143975173458636 0 0 0 0
58 0.08771719855409654 -0.2755226920166333 0 0 0 0
43 0.04414507439707148 0.0816089523300483 0 0 0 0
44 0.2047735340945485 -0.018127011126984213 0 0 0 0
20 0.018171564812518557 -0.19039982654497872 0 0 0 0
21 -0.06411957106283542 -0.14671827245040717 0 0 0 0
19 0.1983622632895005 0.017782388357119587 0 0 0 0
64 -0.082512254501506 -0.02130362883299565 0 0 0 0
60 -0.18180614930674904 -0.04086217582245499 0 0 0 0
49 0.09174380293100708 0.04561907977867178 0 0 0 0
56 -0.18525287813710684 -0.003940891487930393 0 0 0 0
31 0.020639903469628733 0.25616812763566477 0 0 0 0
55 0.06040413304760698 -0.08224225019720088 0 0 0 0
16 0.07503095536556073 -0.00036544733835422867 0 0 0 0
75 0.06489663204854114 0.16127051852111912 0 0 0 0
78 0.12387113953218801 -0.12963403513000232 0 0 0 0
2 0.05509958247272396 0.24928963796279965 0 0 0 0
50 0.002302604057480414 -0.09640096678614095 0 0 0 0
28 0.018062639501107373 -0.06865919532267477 0 0 0 0
53 0.046706648173433556 0.03934923977858231 0 0 0 0
37 -0.15424978689963995 0.24417546243605648 0 0 0 0
