LAMMPS data file.

     62 atoms
    144 bonds
      0 angles
      0 dihedrals
      0 impropers
      1 atom types
    144 bond types
      0 angle types
      0 dihedral types
      0 improper types
  -4.807274   4.807274 xlo xhi
  -4.807274   4.807274 ylo yhi
  -0.100000   0.100000 zlo zhi

Masses # ['atom_id', 'mass']

1 10000.0

Atoms # ['atomID', 'moleculeID', 'atomType', 'charge', 'x', 'y', 'z']

     51      1      1   0.000000  -4.252561  -3.907983   0.000000
     54      1      1   0.000000  -2.500243  -4.641224   0.000000
      7      1      1   0.000000  -1.324213  -4.521656   0.000000
     33      1      1   0.000000  -0.209795  -4.081983   0.000000
     40      1      1   0.000000   3.269868  -4.332531   0.000000
     39      1      1   0.000000   4.427715  -4.219185   0.000000
     65      1      1   0.000000  -4.783722  -3.472282   0.000000
     14      1      1   0.000000  -2.262609  -3.350967   0.000000
     52      1      1   0.000000  -0.971293  -3.359869   0.000000
     70      1      1   0.000000  -0.263513  -2.990675   0.000000
     15      1      1   0.000000   0.858976  -3.380340   0.000000
     26      1      1   0.000000   1.984697  -3.945834   0.000000
     18      1      1   0.000000   2.977411  -2.959563   0.000000
      4      1      1   0.000000   4.346189  -2.584703   0.000000
     67      1      1   0.000000  -4.425390  -1.944281   0.000000
     72      1      1   0.000000  -3.810983  -1.959907   0.000000
      9      1      1   0.000000  -2.843299  -1.894357   0.000000
     29      1      1   0.000000  -0.855604  -2.325819   0.000000
     41      1      1   0.000000   0.282572  -2.357421   0.000000
     45      1      1   0.000000   2.275632  -1.964108   0.000000
     13      1      1   0.000000   3.144738  -1.396847   0.000000
     24      1      1   0.000000  -3.939440  -1.169580   0.000000
     77      1      1   0.000000   4.774561  -0.513697   0.000000
     79      1      1   0.000000  -3.171383  -0.714474   0.000000
     48      1      1   0.000000  -2.401264  -1.008809   0.000000
      1      1      1   0.000000  -1.110735  -1.208612   0.000000
     38      1      1   0.000000   1.326672  -2.055875   0.000000
     36      1      1   0.000000   4.466258  -1.267497   0.000000
     32      1      1   0.000000  -4.015549  -0.118256   0.000000
     30      1      1   0.000000  -2.779788   0.073296   0.000000
     47      1      1   0.000000  -1.821798  -0.306497   0.000000
      5      1      1   0.000000   3.740015  -0.103130   0.000000
     61      1      1   0.000000   4.690501   0.157685   0.000000
     73      1      1   0.000000  -3.865907   1.506649   0.000000
     63      1      1   0.000000  -3.652300   0.723055   0.000000
     35      1      1   0.000000  -2.948460   1.308422   0.000000
     11      1      1   0.000000  -0.722320   0.313842   0.000000
     27      1      1   0.000000  -0.204492   1.441916   0.000000
     17      1      1   0.000000   0.749464   0.600670   0.000000
     62      1      1   0.000000   4.118185   1.746147   0.000000
      3      1      1   0.000000  -4.708276   1.139336   0.000000
     69      1      1   0.000000  -4.235237   2.066779   0.000000
     59      1      1   0.000000  -3.526968   2.280222   0.000000
     12      1      1   0.000000  -2.316516   2.543059   0.000000
     22      1      1   0.000000  -1.265934   1.704621   0.000000
     80      1      1   0.000000   1.643117   1.312785   0.000000
      8      1      1   0.000000   2.312518   2.170140   0.000000
     58      1      1   0.000000   3.513410   2.247617   0.000000
     43      1      1   0.000000   4.493932   2.368702   0.000000
     44      1      1   0.000000  -4.694127   3.695605   0.000000
     20      1      1   0.000000  -3.527269   3.516720   0.000000
     21      1      1   0.000000  -1.118416   2.911982   0.000000
     19      1      1   0.000000   0.946814   2.171279   0.000000
     60      1      1   0.000000   2.133890   3.389415   0.000000
     49      1      1   0.000000   3.084154   3.232464   0.000000
     56      1      1   0.000000   4.017303   3.219713   0.000000
     31      1      1   0.000000  -4.369542   4.599452   0.000000
     55      1      1   0.000000  -3.290059   4.733630   0.000000
     16      1      1   0.000000  -2.032874   3.921720   0.000000
     28      1      1   0.000000   2.123759   4.524764   0.000000
     53      1      1   0.000000   3.029288   4.064768   0.000000
     37      1      1   0.000000   4.066246   4.336307   0.000000

Bond Coeffs # ['bondID', 'bondCoeff', 'd']

      1   2.184264   0.676624
      2   1.467862   0.825387
      3   1.467862   0.825387
      4   0.969386   1.015668
      5   1.084251   0.960362
      6   1.559775   0.800698
      7   0.675912   1.216340
      8   0.845198   1.087729
      9   0.818430   1.105374
     10   0.414261   1.553685
     11   1.109248   0.949480
     12   1.109248   0.949480
     13   0.618151   1.271899
     14   0.798556   1.119044
     15   0.798556   1.119044
     16   0.643506   1.246590
     17   0.571608   1.322668
     18   0.690540   1.203388
     19   1.430162   0.836195
     20   0.836349   1.093468
     21   1.620153   0.785637
     22   0.510670   1.399361
     23   2.118789   0.686999
     24   1.063026   0.969902
     25   0.654200   1.236360
     26   0.654200   1.236360
     27   0.611781   1.278504
     28   1.100174   0.953387
     29   0.755112   1.150785
     30   0.755112   1.150785
     31   0.399081   1.582959
     32   0.807200   1.113036
     33   1.193255   0.915447
     34   0.846687   1.086772
     35   0.639469   1.250519
     36   1.010815   0.994636
     37   0.630107   1.259775
     38   1.010815   0.994636
     39   0.765858   1.142683
     40   0.404845   1.571649
     41   0.536150   1.365705
     42   0.800526   1.117667
     43   1.051088   0.975395
     44   0.654054   1.236497
     45   1.292111   0.879731
     46   1.195730   0.914500
     47   0.928393   1.037849
     48   0.738849   1.163382
     49   0.493082   1.424099
     50   0.650559   1.239814
     51   0.892269   1.058649
     52   1.827475   0.739732
     53   0.892269   1.058649
     54   0.771340   1.138615
     55   0.651773   1.238660
     56   0.989907   1.005085
     57   0.989907   1.005085
     58   0.674116   1.217959
     59   0.870311   1.071921
     60   1.471202   0.824449
     61   0.781819   1.130959
     62   0.696747   1.198016
     63   0.533662   1.368884
     64   0.531017   1.372290
     65   0.444227   1.500367
     66   0.533662   1.368884
     67   0.507467   1.403771
     68   0.761474   1.145968
     69   0.845104   1.087790
     70   1.206239   0.910507
     71   1.031234   0.984740
     72   1.031234   0.984740
     73   0.531425   1.371763
     74   1.507696   0.814410
     75   1.024502   0.987970
     76   2.647323   0.614606
     77   0.519836   1.386969
     78   0.685531   1.207776
     79   0.685531   1.207776
     80   0.757907   1.148661
     81   0.725371   1.174140
     82   0.658528   1.232290
     83   0.977833   1.011271
     84   0.977833   1.011271
     85   0.760901   1.146399
     86   1.078010   0.963138
     87   0.485106   1.435760
     88   0.417146   1.548303
     89   0.877104   1.067762
     90   0.877104   1.067762
     91   0.753034   1.152372
     92   1.184126   0.918969
     93   0.753034   1.152372
     94   0.538365   1.362892
     95   0.444757   1.499472
     96   0.504755   1.407536
     97   0.923664   1.040502
     98   0.496506   1.419181
     99   0.806852   1.113276
    100   1.261660   0.890285
    101   0.678287   1.214209
    102   1.254653   0.892767
    103   0.806852   1.113276
    104   0.776171   1.135067
    105   1.437320   0.834110
    106   0.775722   1.135395
    107   0.900030   1.054075
    108   1.569229   0.798283
    109   1.135070   0.938618
    110   0.567168   1.327835
    111   1.148199   0.933236
    112   0.553495   1.344136
    113   1.196068   0.914370
    114   0.506856   1.404616
    115   1.196068   0.914370
    116   0.406684   1.568092
    117   1.019761   0.990263
    118   1.029391   0.985621
    119   1.019761   0.990263
    120   0.922579   1.041114
    121   0.405066   1.571220
    122   0.717587   1.180491
    123   0.538850   1.362279
    124   0.768379   1.140807
    125   0.768379   1.140807
    126   1.388188   0.848742
    127   0.627481   1.262408
    128   0.636315   1.253614
    129   1.891217   0.727159
    130   2.221480   0.670932
    131   1.388188   0.848742
    132   0.679852   1.212810
    133   0.679852   1.212810
    134   0.715644   1.182093
    135   1.401943   0.844568
    136   0.649056   1.241249
    137   0.594755   1.296675
    138   0.594755   1.296675
    139   1.190824   0.916381
    140   1.020836   0.989742
    141   0.907995   1.049441
    142   0.941631   1.030528
    143   0.599673   1.291347
    144   0.579096   1.314088

Bonds # ['ID', 'type', 'atom1', 'atom2']

         1         1        77        61
         2         2        54        55
         3         3        55        54
         4         4        28        53
         5         5        44        31
         6         6        72        24
         7         7        22        21
         8         8        80         8
         9         9        80        19
        10        10        12        20
        11        11        32        61
        12        12        61        32
        13        13        27        17
        14        14        39        37
        15        15        37        39
        16        16        30        35
        17        17         4        36
        18        18         8        58
        19        19        70        41
        20        20        27        22
        21        21        62        58
        22        22        26        18
        23        23        51        65
        24        24        72         9
        25        25        40        37
        26        26        37        40
        27        27        33        15
        28        28        45        38
        29        29        54        16
        30        30        16        54
        31        31        17        19
        32        32        77         5
        33        33        63        35
        34        34        41        38
        35        35        32        30
        36        36        62         3
        37        37        15        26
        38        38         3        62
        39        39        17        80
        40        40        18        13
        41        41         8        19
        42        42        56        37
        43        43        43        56
        44        44        59        20
        45        45        79        30
        46        46        67        24
        47        47        45        13
        48        48        40        39
        49        49        13         5
        50        50        20        55
        51        51         4        67
        52        52        69        59
        53        53        67         4
        54        54        29        41
        55        55        59        12
        56        56        61         3
        57        57         3        61
        58        58        18        45
        59        59        53        37
        60        60        79        48
        61        61        35        59
        62        62         7        33
        63        63        16         7
        64        64        36         5
        65        65         7        14
        66        66         7        16
        67        67        40        18
        68        68        29         1
        69        69        31        55
        70        70        48        47
        71        71        51        39
        72        72        39        51
        73        73        20        31
        74        74        77        36
        75        75        58        43
        76        76        67        72
        77        77        35        12
        78        78        31        37
        79        79        37        31
        80        80         1        47
        81        81        15        41
        82        82         8        60
        83        83        65         4
        84        84         4        65
        85        85        48        30
        86        86        60        49
        87        87        32         3
        88        88        20        16
        89        89        44        37
        90        90        37        44
        91        91        26        28
        92        92        73         3
        93        93        28        26
        94        94        27        19
        95        95        11        17
        96        96        12        16
        97        97        52        29
        98        98        18         4
        99        99        51        31
       100       100        70        29
       101       101         7        52
       102       102        24        79
       103       103        31        51
       104       104        63         3
       105       105        49        53
       106       106        60        28
       107       107        24        32
       108       108        52        70
       109       109        73        35
       110       110        13        36
       111       111        49        56
       112       112        12        22
       113       113        77        32
       114       114        15        38
       115       115        32        77
       116       116        14         9
       117       117        67        36
       118       118         5        61
       119       119        36        67
       120       120         3        69
       121       121         1        11
       122       122        44        20
       123       123        21        16
       124       124        39        31
       125       125        31        39
       126       126        39        65
       127       127        47        11
       128       128        12        21
       129       129        62        43
       130       130        73        69
       131       131        65        39
       132       132        24        36
       133       133        36        24
       134       134        54         7
       135       135        73        59
       136       136        11        27
       137       137         3        43
       138       138        43         3
       139       139        32        63
       140       140         9        48
       141       141        33        52
       142       142        30        47
       143       143        14        52
       144       144         9        24
