ITEM: TIMESTEP
0
ITEM: NUMBER OF ATOMS
80
ITEM: BOX BOUNDS pp pp pp
-1.0000000000000000e+01 1.0000000000000000e+01
-1.0000000000000000e+01 1.0000000000000000e+01
-1.0000000000000001e-01 1.0000000000000001e-01
ITEM: ATOMS id type xs ys zs
31 2 0.0661654 0.0422574 0.5
40 2 0.353128 0.0228728 0.5
74 4 0.548404 0.0301842 0.5
28 2 0.735469 0.0209137 0.5
79 4 0.693582 0.0328238 0.5
58 3 0.852682 0.028056 0.5
54 3 0.300831 0.0638933 0.5
4 1 0.878688 0.102878 0.5
68 4 0.966627 0.105012 0.5
52 3 0.0577214 0.122869 0.5
63 4 0.0737283 0.151283 0.5
9 1 0.187015 0.15683 0.5
7 1 0.500513 0.117337 0.5
33 2 0.516519 0.141573 0.5
50 3 0.574411 0.131757 0.5
36 2 0.976088 0.111931 0.5
29 2 0.302685 0.225944 0.5
42 3 0.467677 0.249808 0.5
34 2 0.734233 0.246278 0.5
76 4 0.688298 0.222848 0.5
39 2 0.76053 0.230676 0.5
61 4 0.179764 0.290509 0.5
30 2 0.217604 0.27004 0.5
15 1 0.0938492 0.324214 0.5
72 4 0.455603 0.321601 0.5
13 1 0.699551 0.361791 0.5
32 2 0.789038 0.354842 0.5
25 2 0.858472 0.343589 0.5
1 1 0.150614 0.369161 0.5
41 3 0.341786 0.397578 0.5
19 1 0.554077 0.368432 0.5
2 1 0.596798 0.37981 0.5
8 1 0.69628 0.378181 0.5
60 3 0.887748 0.383307 0.5
75 4 0.898161 0.388265 0.5
73 4 0.358924 0.443185 0.5
11 1 0.428003 0.443335 0.5
17 1 0.571277 0.450063 0.5
23 2 0.780237 0.448 0.5
3 1 0.103736 0.488662 0.5
35 2 0.555632 0.511111 0.5
26 2 0.768222 0.515158 0.5
6 1 0.854673 0.48483 0.5
44 3 0.119684 0.534194 0.5
12 1 0.208459 0.578524 0.5
66 4 0.214883 0.536479 0.5
5 1 0.443597 0.538885 0.5
14 1 0.485723 0.553149 0.5
65 4 0.593654 0.54 0.5
64 4 0.766262 0.561377 0.5
22 2 0.601512 0.616618 0.5
49 3 0.678384 0.601622 0.5
69 4 0.0244922 0.640899 0.5
62 4 0.306636 0.63401 0.5
78 4 0.275042 0.635424 0.5
10 1 0.657444 0.666123 0.5
24 2 0.689278 0.698514 0.5
47 3 0.799174 0.714615 0.5
48 3 0.85171 0.692404 0.5
56 3 0.966902 0.717036 0.5
53 3 0.235067 0.77411 0.5
71 4 0.315094 0.777953 0.5
59 3 0.931978 0.758681 0.5
51 3 0.068771 0.834621 0.5
43 3 0.524949 0.810799 0.5
21 2 0.681552 0.840601 0.5
46 3 0.528046 0.86982 0.5
38 2 0.674949 0.870543 0.5
45 3 0.959889 0.854678 0.5
27 2 0.163736 0.913328 0.5
20 1 0.583384 0.940813 0.5
67 4 0.742602 0.90606 0.5
37 2 0.83536 0.896863 0.5
77 4 0.825664 0.93567 0.5
55 3 0.151958 0.964664 0.5
80 4 0.398642 0.984476 0.5
18 1 0.674242 0.991053 0.5
16 1 0.77646 0.955264 0.5
70 4 0.736893 0.965033 0.5
57 3 0.951625 0.95309 0.5
ITEM: TIMESTEP
10
ITEM: NUMBER OF ATOMS
80
ITEM: BOX BOUNDS pp pp pp
-9.2360859699298672e+00 9.2360859699298672e+00
-9.2360859699298672e+00 9.2360859699298672e+00
-1.0000000000000001e-01 1.0000000000000001e-01
ITEM: ATOMS id type xs ys zs
31 2 0.0661654 0.0422574 0.5
40 2 0.353128 0.0228728 0.5
74 4 0.548404 0.0301842 0.5
28 2 0.735511 0.0209152 0.5
79 4 0.693576 0.0328715 0.5
58 3 0.852682 0.028056 0.5
54 3 0.300831 0.0638933 0.5
4 1 0.878688 0.102878 0.5
68 4 0.966513 0.104928 0.5
52 3 0.0577026 0.122835 0.5
63 4 0.073747 0.151316 0.5
9 1 0.187015 0.15683 0.5
7 1 0.500424 0.117202 0.5
33 2 0.516608 0.141708 0.5
50 3 0.574412 0.131757 0.5
36 2 0.976202 0.112015 0.5
29 2 0.302685 0.225944 0.5
42 3 0.467677 0.249808 0.5
34 2 0.734122 0.246344 0.5
76 4 0.688297 0.222848 0.5
39 2 0.760641 0.23061 0.5
61 4 0.179739 0.290522 0.5
30 2 0.217629 0.270027 0.5
15 1 0.0938243 0.324195 0.5
72 4 0.455603 0.321601 0.5
13 1 0.699597 0.361561 0.5
32 2 0.789038 0.354842 0.5
25 2 0.858453 0.343562 0.5
1 1 0.150639 0.369181 0.5
41 3 0.341786 0.397578 0.5
19 1 0.553947 0.368397 0.5
2 1 0.596935 0.379823 0.5
8 1 0.696234 0.378411 0.5
60 3 0.887664 0.383285 0.5
75 4 0.898264 0.388315 0.5
73 4 0.358924 0.443185 0.5
11 1 0.428003 0.443335 0.5
17 1 0.571278 0.450048 0.5
23 2 0.780237 0.447999 0.5
3 1 0.103715 0.488601 0.5
35 2 0.555614 0.511142 0.5
26 2 0.768223 0.515142 0.5
6 1 0.854673 0.48483 0.5
44 3 0.119706 0.534255 0.5
12 1 0.208451 0.578581 0.5
66 4 0.214892 0.536423 0.5
5 1 0.443471 0.538842 0.5
14 1 0.48585 0.553192 0.5
65 4 0.593662 0.540006 0.5
64 4 0.766261 0.561394 0.5
22 2 0.601512 0.616617 0.5
49 3 0.678384 0.601622 0.5
69 4 0.0244922 0.640899 0.5
62 4 0.30665 0.63401 0.5
78 4 0.275028 0.635424 0.5
10 1 0.657373 0.66605 0.5
24 2 0.68935 0.698587 0.5
47 3 0.799174 0.714615 0.5
48 3 0.85171 0.692404 0.5
56 3 0.966902 0.717036 0.5
53 3 0.235067 0.77411 0.5
71 4 0.315094 0.777953 0.5
59 3 0.931978 0.758681 0.5
51 3 0.068771 0.834621 0.5
43 3 0.524949 0.810799 0.5
21 2 0.681579 0.840476 0.5
46 3 0.528046 0.86982 0.5
38 2 0.674922 0.870668 0.5
45 3 0.959889 0.854678 0.5
27 2 0.163741 0.913308 0.5
20 1 0.583384 0.940813 0.5
67 4 0.742601 0.90606 0.5
37 2 0.83537 0.896826 0.5
77 4 0.825673 0.935701 0.5
55 3 0.151954 0.964684 0.5
80 4 0.398642 0.984476 0.5
18 1 0.674206 0.991004 0.5
16 1 0.776504 0.955256 0.5
70 4 0.736831 0.965048 0.5
57 3 0.951625 0.95309 0.5
ITEM: TIMESTEP
20
ITEM: NUMBER OF ATOMS
80
ITEM: BOX BOUNDS pp pp pp
-8.3037580771462522e+00 8.3037580771462522e+00
-8.3037580771462522e+00 8.3037580771462522e+00
-1.0000000000000001e-01 1.0000000000000001e-01
ITEM: ATOMS id type xs ys zs
31 2 0.0661654 0.0422574 0.5
40 2 0.353128 0.0228725 0.5
74 4 0.548404 0.0301842 0.5
28 2 0.735705 0.0209459 0.5
79 4 0.693542 0.0330659 0.5
58 3 0.852682 0.028056 0.5
54 3 0.30083 0.0638937 0.5
4 1 0.878688 0.102878 0.5
68 4 0.966108 0.104632 0.5
52 3 0.0576289 0.122705 0.5
63 4 0.0738207 0.151447 0.5
9 1 0.187015 0.15683 0.5
7 1 0.500104 0.116718 0.5
33 2 0.516898 0.142197 0.5
50 3 0.574442 0.131752 0.5
36 2 0.976607 0.112311 0.5
29 2 0.302685 0.225944 0.5
42 3 0.467677 0.249808 0.5
34 2 0.733742 0.246591 0.5
76 4 0.688278 0.222838 0.5
39 2 0.76104 0.230373 0.5
61 4 0.179634 0.290579 0.5
30 2 0.217734 0.26997 0.5
15 1 0.0937079 0.324102 0.5
72 4 0.455603 0.321601 0.5
13 1 0.699759 0.36075 0.5
32 2 0.789027 0.354844 0.5
25 2 0.85838 0.343448 0.5
1 1 0.150755 0.369273 0.5
41 3 0.341786 0.397577 0.5
19 1 0.553466 0.368244 0.5
2 1 0.597452 0.379836 0.5
8 1 0.696072 0.379222 0.5
60 3 0.887379 0.383223 0.5
75 4 0.898632 0.388489 0.5
73 4 0.358925 0.443186 0.5
11 1 0.428003 0.443335 0.5
17 1 0.571284 0.450026 0.5
23 2 0.78024 0.447979 0.5
3 1 0.103632 0.488366 0.5
35 2 0.555526 0.511263 0.5
26 2 0.768223 0.515082 0.5
6 1 0.854674 0.48483 0.5
44 3 0.119788 0.53449 0.5
12 1 0.208417 0.578801 0.5
66 4 0.214925 0.536203 0.5
5 1 0.443008 0.538686 0.5
14 1 0.486309 0.55335 0.5
65 4 0.593712 0.540044 0.5
64 4 0.766258 0.561474 0.5
22 2 0.601487 0.616596 0.5
49 3 0.678391 0.6016 0.5
69 4 0.0244922 0.640899 0.5
62 4 0.306716 0.634007 0.5
78 4 0.274963 0.635427 0.5
10 1 0.657123 0.665822 0.5
24 2 0.689617 0.698858 0.5
47 3 0.799173 0.714616 0.5
48 3 0.851711 0.692404 0.5
56 3 0.966906 0.717031 0.5
53 3 0.235067 0.77411 0.5
71 4 0.315094 0.777953 0.5
59 3 0.931974 0.758686 0.5
51 3 0.068771 0.834621 0.5
43 3 0.524949 0.810799 0.5
21 2 0.681679 0.840023 0.5
46 3 0.528046 0.86982 0.5
38 2 0.674822 0.871121 0.5
45 3 0.959889 0.854678 0.5
27 2 0.163763 0.913211 0.5
20 1 0.583384 0.940813 0.5
67 4 0.742589 0.906042 0.5
37 2 0.835409 0.896672 0.5
77 4 0.825724 0.935818 0.5
55 3 0.151932 0.964781 0.5
80 4 0.398643 0.984476 0.5
18 1 0.674037 0.990796 0.5
16 1 0.776671 0.955239 0.5
70 4 0.736594 0.965104 0.5
57 3 0.951625 0.95309 0.5
ITEM: TIMESTEP
30
ITEM: NUMBER OF ATOMS
80
ITEM: BOX BOUNDS pp pp pp
-7.6071621363512998e+00 7.6071621363512998e+00
-7.6071621363512998e+00 7.6071621363512998e+00
-1.0000000000000001e-01 1.0000000000000001e-01
ITEM: ATOMS id type xs ys zs
31 2 0.0661654 0.0422574 0.5
40 2 0.353139 0.0228647 0.5
74 4 0.548404 0.0301842 0.5
28 2 0.736143 0.0211048 0.5
79 4 0.693455 0.0334889 0.5
58 3 0.85268 0.0280506 0.5
54 3 0.300813 0.0639076 0.5
4 1 0.878689 0.102883 0.5
68 4 0.965333 0.104065 0.5
52 3 0.0574729 0.122428 0.5
63 4 0.0739768 0.151724 0.5
9 1 0.187015 0.15683 0.5
7 1 0.499462 0.115772 0.5
33 2 0.517406 0.143159 0.5
50 3 0.574575 0.131735 0.5
36 2 0.977383 0.112878 0.5
29 2 0.302685 0.225944 0.5
42 3 0.467677 0.249808 0.5
34 2 0.733041 0.2471 0.5
76 4 0.688196 0.222795 0.5
39 2 0.761824 0.229908 0.5
61 4 0.179395 0.290708 0.5
30 2 0.217973 0.269841 0.5
15 1 0.093429 0.323882 0.5
72 4 0.455603 0.321601 0.5
13 1 0.700065 0.359198 0.5
32 2 0.788961 0.354856 0.5
25 2 0.858258 0.343174 0.5
1 1 0.151034 0.369494 0.5
41 3 0.341779 0.397559 0.5
19 1 0.552495 0.367869 0.5
2 1 0.598497 0.3798 0.5
8 1 0.695768 0.380774 0.5
60 3 0.886859 0.383147 0.5
75 4 0.899345 0.388828 0.5
73 4 0.358923 0.443204 0.5
11 1 0.42801 0.443324 0.5
17 1 0.5713 0.450068 0.5
23 2 0.780227 0.447866 0.5
3 1 0.103459 0.487873 0.5
35 2 0.555341 0.511505 0.5
26 2 0.768213 0.51498 0.5
6 1 0.854705 0.484845 0.5
44 3 0.119961 0.534983 0.5
12 1 0.208347 0.579261 0.5
66 4 0.214995 0.535743 0.5
5 1 0.44209 0.538384 0.5
14 1 0.487185 0.553689 0.5
65 4 0.593846 0.540145 0.5
64 4 0.766249 0.561674 0.5
22 2 0.601386 0.616506 0.5
49 3 0.678425 0.601499 0.5
69 4 0.0244922 0.640899 0.5
62 4 0.306872 0.634 0.5
78 4 0.274806 0.635434 0.5
10 1 0.656653 0.665466 0.5
24 2 0.690155 0.699406 0.5
47 3 0.799149 0.714626 0.5
48 3 0.851734 0.692394 0.5
56 3 0.96694 0.716991 0.5
53 3 0.235067 0.77411 0.5
71 4 0.315094 0.777953 0.5
59 3 0.93194 0.758726 0.5
51 3 0.068771 0.834621 0.5
43 3 0.524948 0.810788 0.5
21 2 0.681875 0.839135 0.5
46 3 0.528047 0.869831 0.5
38 2 0.674626 0.872009 0.5
45 3 0.959889 0.854678 0.5
27 2 0.163817 0.912976 0.5
20 1 0.583384 0.940813 0.5
67 4 0.742535 0.905963 0.5
37 2 0.835515 0.896319 0.5
77 4 0.825866 0.936058 0.5
55 3 0.151878 0.965017 0.5
80 4 0.39865 0.98447 0.5
18 1 0.673623 0.990334 0.5
16 1 0.777017 0.955231 0.5
70 4 0.736118 0.965183 0.5
57 3 0.951625 0.95309 0.5
ITEM: TIMESTEP
40
ITEM: NUMBER OF ATOMS
80
ITEM: BOX BOUNDS pp pp pp
-7.1187512066089038e+00 7.1187512066089038e+00
-7.1187512066089038e+00 7.1187512066089038e+00
-1.0000000000000001e-01 1.0000000000000001e-01
ITEM: ATOMS id type xs ys zs
31 2 0.0661654 0.0422574 0.5
40 2 0.353169 0.0228437 0.5
74 4 0.548404 0.0301842 0.5
28 2 0.736904 0.0215109 0.5
79 4 0.69329 0.0342139 0.5
58 3 0.852663 0.0280023 0.5
54 3 0.30074 0.0639643 0.5
4 1 0.878706 0.102932 0.5
68 4 0.964124 0.103181 0.5
52 3 0.0572106 0.121962 0.5
63 4 0.0742392 0.15219 0.5
9 1 0.187015 0.15683 0.5
7 1 0.4984 0.114269 0.5
33 2 0.518127 0.144694 0.5
50 3 0.574916 0.131704 0.5
36 2 0.978591 0.113762 0.5
29 2 0.302685 0.225944 0.5
42 3 0.467677 0.249808 0.5
34 2 0.731988 0.247941 0.5
76 4 0.688005 0.222693 0.5
39 2 0.763068 0.229168 0.5
61 4 0.178975 0.290936 0.5
30 2 0.218393 0.269614 0.5
15 1 0.0929212 0.32348 0.5
72 4 0.455603 0.321601 0.5
13 1 0.700512 0.356783 0.5
32 2 0.788822 0.354884 0.5
25 2 0.858092 0.342655 0.5
1 1 0.151542 0.369896 0.5
41 3 0.341753 0.397489 0.5
19 1 0.550916 0.367178 0.5
2 1 0.600134 0.379663 0.5
8 1 0.695347 0.38319 0.5
60 3 0.886082 0.383087 0.5
75 4 0.90048 0.389374 0.5
73 4 0.358893 0.443274 0.5
11 1 0.428055 0.443248 0.5
17 1 0.571333 0.450241 0.5
23 2 0.780156 0.44757 0.5
3 1 0.103171 0.487051 0.5
35 2 0.555055 0.511878 0.5
26 2 0.768159 0.514855 0.5
6 1 0.854846 0.484892 0.5
44 3 0.120249 0.535805 0.5
12 1 0.20823 0.580027 0.5
66 4 0.215112 0.534976 0.5
5 1 0.440626 0.537961 0.5
14 1 0.488516 0.554278 0.5
65 4 0.594107 0.540341 0.5
64 4 0.766233 0.562047 0.5
22 2 0.601148 0.616296 0.5
49 3 0.678507 0.601257 0.5
69 4 0.0244922 0.640899 0.5
62 4 0.307157 0.633987 0.5
78 4 0.274521 0.635447 0.5
10 1 0.655934 0.665029 0.5
24 2 0.69103 0.700295 0.5
47 3 0.799065 0.714661 0.5
48 3 0.851819 0.692358 0.5
56 3 0.967031 0.716882 0.5
53 3 0.235067 0.77411 0.5
71 4 0.315094 0.777953 0.5
59 3 0.931849 0.758835 0.5
51 3 0.068771 0.834621 0.5
43 3 0.524945 0.810727 0.5
21 2 0.682186 0.837725 0.5
46 3 0.52805 0.869892 0.5
38 2 0.674315 0.873419 0.5
45 3 0.959889 0.854678 0.5
27 2 0.163916 0.912542 0.5
20 1 0.583367 0.940803 0.5
67 4 0.742406 0.905779 0.5
37 2 0.835744 0.895666 0.5
77 4 0.826146 0.936454 0.5
55 3 0.151778 0.96545 0.5
80 4 0.398692 0.984434 0.5
18 1 0.672847 0.989556 0.5
16 1 0.777574 0.955271 0.5
70 4 0.735378 0.965241 0.5
57 3 0.951625 0.95309 0.5
ITEM: TIMESTEP
50
ITEM: NUMBER OF ATOMS
80
ITEM: BOX BOUNDS pp pp pp
-6.7818332373080414e+00 6.7818332373080414e+00
-6.7818332373080414e+00 6.7818332373080414e+00
-1.0000000000000001e-01 1.0000000000000001e-01
ITEM: ATOMS id type xs ys zs
31 2 0.0661663 0.0422496 0.5
40 2 0.353224 0.0228069 0.5
74 4 0.548404 0.0301842 0.5
28 2 0.738035 0.0222609 0.5
79 4 0.693028 0.0352836 0.5
58 3 0.852617 0.0278675 0.5
54 3 0.30058 0.0640905 0.5
4 1 0.878742 0.103065 0.5
68 4 0.962465 0.101967 0.5
52 3 0.0568422 0.121292 0.5
63 4 0.0746218 0.152869 0.5
9 1 0.187015 0.15683 0.5
7 1 0.496864 0.112167 0.5
33 2 0.519035 0.146847 0.5
50 3 0.575544 0.131653 0.5
36 2 0.980246 0.114975 0.5
29 2 0.302685 0.225944 0.5
42 3 0.467677 0.249808 0.5
34 2 0.73059 0.249159 0.5
76 4 0.687669 0.222509 0.5
39 2 0.764802 0.228134 0.5
61 4 0.178343 0.291277 0.5
30 2 0.219025 0.269272 0.5
15 1 0.0921398 0.322861 0.5
72 4 0.455603 0.321601 0.5
13 1 0.701101 0.353457 0.5
32 2 0.788643 0.354931 0.5
25 2 0.857891 0.341823 0.5
1 1 0.152323 0.370515 0.5
41 3 0.341696 0.397339 0.5
19 1 0.548669 0.366106 0.5
2 1 0.60231 0.379387 0.5
8 1 0.694851 0.386517 0.5
60 3 0.885049 0.38308 0.5
75 4 0.902077 0.390151 0.5
73 4 0.358803 0.443424 0.5
11 1 0.428172 0.443043 0.5
17 1 0.571387 0.450598 0.5
23 2 0.779987 0.44702 0.5
3 1 0.102754 0.48586 0.5
35 2 0.554676 0.512379 0.5
26 2 0.768009 0.514736 0.5
6 1 0.855189 0.484981 0.5
44 3 0.120666 0.536996 0.5
12 1 0.20806 0.581137 0.5
66 4 0.215282 0.533867 0.5
5 1 0.438578 0.537462 0.5
14 1 0.49029 0.555171 0.5
65 4 0.594527 0.540654 0.5
64 4 0.766209 0.562631 0.5
22 2 0.600716 0.615928 0.5
49 3 0.678669 0.600823 0.5
69 4 0.0244922 0.640899 0.5
62 4 0.307595 0.633967 0.5
78 4 0.274083 0.635466 0.5
10 1 0.654958 0.664569 0.5
24 2 0.692276 0.701557 0.5
47 3 0.798884 0.714738 0.5
48 3 0.852 0.692282 0.5
56 3 0.967205 0.716675 0.5
53 3 0.235067 0.77411 0.5
71 4 0.315094 0.777953 0.5
59 3 0.931675 0.759042 0.5
51 3 0.068771 0.834621 0.5
43 3 0.524937 0.81058 0.5
21 2 0.68262 0.835759 0.5
46 3 0.52805 0.870029 0.5
38 2 0.673881 0.875385 0.5
45 3 0.959889 0.854678 0.5
27 2 0.164071 0.91187 0.5
20 1 0.583288 0.940766 0.5
67 4 0.742179 0.905455 0.5
37 2 0.836141 0.89464 0.5
77 4 0.826606 0.937022 0.5
55 3 0.151624 0.966122 0.5
80 4 0.398798 0.984345 0.5
18 1 0.671647 0.988456 0.5
16 1 0.778365 0.955389 0.5
70 4 0.734374 0.965232 0.5
57 3 0.951625 0.95309 0.5
ITEM: TIMESTEP
60
ITEM: NUMBER OF ATOMS
80
ITEM: BOX BOUNDS pp pp pp
-6.5403411302853680e+00 6.5403411302853680e+00
-6.5403411302853680e+00 6.5403411302853680e+00
-1.0000000000000001e-01 1.0000000000000001e-01
ITEM: ATOMS id type xs ys zs
31 2 0.0661716 0.0422048 0.5
40 2 0.353307 0.022753 0.5
74 4 0.548404 0.0301842 0.5
28 2 0.739558 0.0234217 0.5
79 4 0.692657 0.0367171 0.5
58 3 0.852528 0.0276119 0.5
54 3 0.300304 0.0643062 0.5
4 1 0.878776 0.103316 0.5
68 4 0.960372 0.100428 0.5
52 3 0.0564005 0.120439 0.5
63 4 0.0751307 0.153773 0.5
9 1 0.187015 0.15683 0.5
7 1 0.494837 0.109458 0.5
33 2 0.520096 0.149635 0.5
50 3 0.57651 0.131574 0.5
36 2 0.982321 0.116513 0.5
29 2 0.302697 0.225938 0.5
42 3 0.467677 0.249808 0.5
34 2 0.728871 0.250774 0.5
76 4 0.687164 0.222222 0.5
39 2 0.767027 0.2268 0.5
61 4 0.177487 0.291732 0.5
30 2 0.219873 0.268813 0.5
15 1 0.0910593 0.322005 0.5
72 4 0.455603 0.321601 0.5
13 1 0.701822 0.349221 0.5
32 2 0.788462 0.354977 0.5
25 2 0.857671 0.34063 0.5
1 1 0.153401 0.371381 0.5
41 3 0.341601 0.397085 0.5
19 1 0.545733 0.364623 0.5
2 1 0.604941 0.378947 0.5
8 1 0.694309 0.39075 0.5
60 3 0.883772 0.383162 0.5
75 4 0.904147 0.39116 0.5
73 4 0.35863 0.443679 0.5
11 1 0.428393 0.442657 0.5
17 1 0.571468 0.451163 0.5
23 2 0.779707 0.446193 0.5
3 1 0.102202 0.484283 0.5
35 2 0.554215 0.513001 0.5
26 2 0.767719 0.514645 0.5
6 1 0.855806 0.485116 0.5
44 3 0.121217 0.538573 0.5
12 1 0.207834 0.582604 0.5
66 4 0.215506 0.532398 0.5
5 1 0.43594 0.536935 0.5
14 1 0.492472 0.556407 0.5
65 4 0.595129 0.541095 0.5
64 4 0.766176 0.563449 0.5
22 2 0.600027 0.615373 0.5
49 3 0.678952 0.600158 0.5
69 4 0.0244922 0.640899 0.5
62 4 0.3082 0.63394 0.5
78 4 0.273481 0.635496 0.5
10 1 0.653732 0.664143 0.5
24 2 0.693908 0.703204 0.5
47 3 0.798582 0.714865 0.5
48 3 0.852302 0.692154 0.5
56 3 0.967479 0.716348 0.5
53 3 0.235067 0.77411 0.5
71 4 0.315094 0.777953 0.5
59 3 0.931401 0.759369 0.5
51 3 0.068771 0.834621 0.5
43 3 0.524923 0.810319 0.5
21 2 0.683176 0.833234 0.5
46 3 0.528029 0.870246 0.5
38 2 0.673323 0.877909 0.5
45 3 0.959889 0.854678 0.5
27 2 0.164285 0.910936 0.5
20 1 0.58312 0.9407 0.5
67 4 0.741837 0.90497 0.5
37 2 0.836734 0.893194 0.5
77 4 0.82728 0.937766 0.5
55 3 0.15141 0.967056 0.5
80 4 0.39899 0.984183 0.5
18 1 0.669986 0.987054 0.5
16 1 0.779411 0.955603 0.5
70 4 0.733116 0.965123 0.5
57 3 0.951625 0.95309 0.5
ITEM: TIMESTEP
70
ITEM: NUMBER OF ATOMS
80
ITEM: BOX BOUNDS pp pp pp
-6.3775951595169778e+00 6.3775951595169778e+00
-6.3775951595169778e+00 6.3775951595169778e+00
-1.0000000000000001e-01 1.0000000000000001e-01
ITEM: ATOMS id type xs ys zs
31 2 0.0661851 0.0420942 0.5
40 2 0.35342 0.022682 0.5
74 4 0.548404 0.0301842 0.5
28 2 0.741466 0.0250285 0.5
79 4 0.692173 0.0385089 0.5
58 3 0.852389 0.0272122 0.5
54 3 0.299898 0.064625 0.5
4 1 0.878769 0.103707 0.5
68 4 0.957909 0.0985838 0.5
52 3 0.0559267 0.119435 0.5
63 4 0.0757644 0.154898 0.5
9 1 0.187015 0.15683 0.5
7 1 0.492343 0.106171 0.5
33 2 0.521271 0.153041 0.5
50 3 0.57783 0.131455 0.5
36 2 0.984757 0.118356 0.5
29 2 0.302747 0.225912 0.5
42 3 0.467677 0.249808 0.5
34 2 0.726885 0.252739 0.5
76 4 0.686476 0.221812 0.5
39 2 0.769719 0.225177 0.5
61 4 0.176409 0.292279 0.5
30 2 0.220912 0.268249 0.5
15 1 0.0896734 0.320908 0.5
72 4 0.455603 0.321601 0.5
13 1 0.702646 0.344162 0.5
32 2 0.788312 0.354999 0.5
25 2 0.857459 0.339051 0.5
1 1 0.154774 0.372519 0.5
41 3 0.341455 0.396708 0.5
19 1 0.542124 0.362728 0.5
2 1 0.607923 0.378319 0.5
8 1 0.693737 0.395832 0.5
60 3 0.88227 0.383367 0.5
75 4 0.906668 0.392386 0.5
73 4 0.358355 0.444053 0.5
11 1 0.428748 0.442054 0.5
17 1 0.571581 0.451936 0.5
23 2 0.779335 0.445113 0.5
3 1 0.101516 0.482329 0.5
35 2 0.553683 0.513729 0.5
26 2 0.767262 0.514602 0.5
6 1 0.85674 0.485301 0.5
44 3 0.121888 0.540521 0.5
12 1 0.207549 0.584415 0.5
66 4 0.215785 0.530577 0.5
5 1 0.432732 0.536425 0.5
14 1 0.495008 0.558008 0.5
65 4 0.595924 0.541658 0.5
64 4 0.766134 0.564515 0.5
22 2 0.599044 0.614625 0.5
49 3 0.679383 0.599239 0.5
69 4 0.0244922 0.640899 0.5
62 4 0.308976 0.633905 0.5
78 4 0.272727 0.635548 0.5
10 1 0.652271 0.663802 0.5
24 2 0.695921 0.705227 0.5
47 3 0.798144 0.715051 0.5
48 3 0.85274 0.691969 0.5
56 3 0.967862 0.715892 0.5
53 3 0.235067 0.77411 0.5
71 4 0.315094 0.777953 0.5
59 3 0.931018 0.759825 0.5
51 3 0.068771 0.834621 0.5
43 3 0.524903 0.809927 0.5
21 2 0.68385 0.830178 0.5
46 3 0.52797 0.870537 0.5
38 2 0.672638 0.880936 0.5
45 3 0.959889 0.854678 0.5
27 2 0.164561 0.909735 0.5
20 1 0.582827 0.940612 0.5
67 4 0.741386 0.90432 0.5
37 2 0.837533 0.891307 0.5
77 4 0.828196 0.938681 0.5
55 3 0.151134 0.968258 0.5
80 4 0.399283 0.983935 0.5
18 1 0.667871 0.985403 0.5
16 1 0.780714 0.955928 0.5
70 4 0.731624 0.964892 0.5
57 3 0.951625 0.95309 0.5
ITEM: TIMESTEP
80
ITEM: NUMBER OF ATOMS
80
ITEM: BOX BOUNDS pp pp pp
-6.2848899766875546e+00 6.2848899766875546e+00
-6.2848899766875546e+00 6.2848899766875546e+00
-1.0000000000000001e-01 1.0000000000000001e-01
ITEM: ATOMS id type xs ys zs
31 2 0.0662103 0.0418954 0.5
40 2 0.353561 0.0225955 0.5
74 4 0.548404 0.0301842 0.5
28 2 0.743723 0.0270772 0.5
79 4 0.691577 0.0406256 0.5
58 3 0.852202 0.0266633 0.5
54 3 0.299353 0.065052 0.5
4 1 0.878688 0.10425 0.5
68 4 0.955166 0.096472 0.5
52 3 0.0554659 0.118318 0.5
63 4 0.0765127 0.156228 0.5
9 1 0.187015 0.15683 0.5
7 1 0.489447 0.102376 0.5
33 2 0.522516 0.157009 0.5
50 3 0.579481 0.131282 0.5
36 2 0.98746 0.120465 0.5
29 2 0.30286 0.225854 0.5
42 3 0.467677 0.249808 0.5
34 2 0.724705 0.254965 0.5
76 4 0.685608 0.22127 0.5
39 2 0.772821 0.223295 0.5
61 4 0.17513 0.292894 0.5
30 2 0.222105 0.267602 0.5
15 1 0.0879993 0.319582 0.5
72 4 0.455603 0.321601 0.5
13 1 0.70353 0.33844 0.5
32 2 0.788209 0.354988 0.5
25 2 0.857287 0.337089 0.5
1 1 0.156434 0.373913 0.5
41 3 0.341242 0.396198 0.5
19 1 0.537906 0.360453 0.5
2 1 0.611133 0.377494 0.5
8 1 0.693155 0.401656 0.5
60 3 0.880574 0.383722 0.5
75 4 0.909586 0.393789 0.5
73 4 0.357969 0.444554 0.5
11 1 0.429267 0.441218 0.5
17 1 0.571728 0.45289 0.5
23 2 0.778904 0.443818 0.5
3 1 0.100699 0.48005 0.5
35 2 0.553096 0.514542 0.5
26 2 0.766624 0.514616 0.5
6 1 0.858004 0.485536 0.5
44 3 0.122644 0.542797 0.5
12 1 0.207208 0.586532 0.5
66 4 0.216112 0.528436 0.5
5 1 0.429008 0.535973 0.5
14 1 0.497817 0.559981 0.5
65 4 0.596912 0.542314 0.5
64 4 0.766086 0.565823 0.5
22 2 0.597755 0.613699 0.5
49 3 0.679975 0.598068 0.5
69 4 0.0244922 0.640899 0.5
62 4 0.309913 0.633863 0.5
78 4 0.271853 0.63564 0.5
10 1 0.650605 0.66359 0.5
24 2 0.698287 0.707589 0.5
47 3 0.797565 0.715295 0.5
48 3 0.853319 0.691724 0.5
56 3 0.968354 0.715304 0.5
53 3 0.235067 0.77411 0.5
71 4 0.315094 0.777953 0.5
59 3 0.930526 0.760413 0.5
51 3 0.068771 0.834621 0.5
43 3 0.524875 0.809395 0.5
21 2 0.684627 0.826657 0.5
46 3 0.52786 0.870892 0.5
38 2 0.671848 0.884329 0.5
45 3 0.959889 0.854678 0.5
27 2 0.164894 0.908279 0.5
20 1 0.582364 0.940517 0.5
67 4 0.740849 0.903517 0.5
37 2 0.838533 0.888993 0.5
77 4 0.829369 0.939744 0.5
55 3 0.1508 0.969713 0.5
80 4 0.399687 0.983595 0.5
18 1 0.665358 0.983607 0.5
16 1 0.782236 0.956366 0.5
70 4 0.729928 0.964532 0.5
57 3 0.951625 0.95309 0.5
ITEM: TIMESTEP
90
ITEM: NUMBER OF ATOMS
80
ITEM: BOX BOUNDS pp pp pp
-6.2524233649238576e+00 6.2524233649238576e+00
-6.2524233649238576e+00 6.2524233649238576e+00
-1.0000000000000001e-01 1.0000000000000001e-01
ITEM: ATOMS id type xs ys zs
31 2 0.0662498 0.041595 0.5
40 2 0.353728 0.0224962 0.5
74 4 0.548404 0.0301842 0.5
28 2 0.746259 0.0295239 0.5
79 4 0.690881 0.0430099 0.5
58 3 0.851985 0.025984 0.5
54 3 0.298675 0.0655839 0.5
4 1 0.878517 0.104949 0.5
68 4 0.95225 0.0941452 0.5
52 3 0.0550624 0.117123 0.5
63 4 0.0773574 0.157732 0.5
9 1 0.187015 0.15683 0.5
7 1 0.48625 0.0981817 0.5
33 2 0.523788 0.161443 0.5
50 3 0.581405 0.131043 0.5
36 2 0.99031 0.122789 0.5
29 2 0.303051 0.225755 0.5
42 3 0.467677 0.249808 0.5
34 2 0.722412 0.25734 0.5
76 4 0.684576 0.22059 0.5
39 2 0.77625 0.221201 0.5
61 4 0.173681 0.293551 0.5
30 2 0.223405 0.266895 0.5
15 1 0.0860733 0.318059 0.5
72 4 0.455595 0.321597 0.5
13 1 0.704428 0.332256 0.5
32 2 0.788155 0.354945 0.5
25 2 0.857194 0.334777 0.5
1 1 0.158353 0.375517 0.5
41 3 0.340961 0.395557 0.5
19 1 0.533192 0.357868 0.5
2 1 0.614446 0.376465 0.5
8 1 0.692586 0.408079 0.5
60 3 0.878725 0.384243 0.5
75 4 0.912816 0.395317 0.5
73 4 0.357475 0.445179 0.5
11 1 0.429964 0.440149 0.5
17 1 0.571914 0.45397 0.5
23 2 0.778455 0.442354 0.5
3 1 0.0997576 0.47753 0.5
35 2 0.552467 0.515415 0.5
26 2 0.76581 0.514689 0.5
6 1 0.85958 0.485819 0.5
44 3 0.123449 0.545333 0.5
12 1 0.206821 0.588899 0.5
66 4 0.21648 0.526028 0.5
5 1 0.424854 0.535613 0.5
14 1 0.50079 0.562302 0.5
65 4 0.59808 0.543028 0.5
64 4 0.766036 0.567353 0.5
22 2 0.596187 0.612626 0.5
49 3 0.680721 0.596664 0.5
69 4 0.0244922 0.640899 0.5
62 4 0.31099 0.633815 0.5
78 4 0.270896 0.635782 0.5
10 1 0.648773 0.663538 0.5
24 2 0.700958 0.710235 0.5
47 3 0.796854 0.715596 0.5
48 3 0.85403 0.691423 0.5
56 3 0.968949 0.714595 0.5
53 3 0.235067 0.77411 0.5
71 4 0.315094 0.777953 0.5
59 3 0.929931 0.761122 0.5
51 3 0.068771 0.834621 0.5
43 3 0.524841 0.808729 0.5
21 2 0.685486 0.822765 0.5
46 3 0.527689 0.871297 0.5
38 2 0.670988 0.887932 0.5
45 3 0.959889 0.854678 0.5
27 2 0.165279 0.906603 0.5
20 1 0.581691 0.94043 0.5
67 4 0.740249 0.902579 0.5
37 2 0.839709 0.886296 0.5
77 4 0.830801 0.940924 0.5
55 3 0.150416 0.971389 0.5
80 4 0.400199 0.983162 0.5
18 1 0.662548 0.981783 0.5
16 1 0.783907 0.956903 0.5
70 4 0.728072 0.964055 0.5
57 3 0.951625 0.95309 0.5
ITEM: TIMESTEP
100
ITEM: NUMBER OF ATOMS
80
ITEM: BOX BOUNDS pp pp pp
-6.2666417618834345e+00 6.2666417618834345e+00
-6.2666417618834345e+00 6.2666417618834345e+00
-1.0000000000000001e-01 1.0000000000000001e-01
ITEM: ATOMS id type xs ys zs
31 2 0.0663049 0.0411882 0.5
40 2 0.353913 0.022388 0.5
74 4 0.548405 0.0301838 0.5
28 2 0.748985 0.0322929 0.5
79 4 0.6901 0.0455902 0.5
58 3 0.851755 0.0252028 0.5
54 3 0.297875 0.0662104 0.5
4 1 0.878255 0.105799 0.5
68 4 0.949267 0.0916613 0.5
52 3 0.0547547 0.115884 0.5
63 4 0.0782758 0.159369 0.5
9 1 0.187015 0.15683 0.5
7 1 0.482875 0.0937194 0.5
33 2 0.525049 0.166224 0.5
50 3 0.583519 0.130724 0.5
36 2 0.993179 0.125273 0.5
29 2 0.303329 0.225611 0.5
42 3 0.467677 0.249808 0.5
34 2 0.720085 0.259741 0.5
76 4 0.683407 0.219779 0.5
39 2 0.779911 0.218952 0.5
61 4 0.172102 0.294227 0.5
30 2 0.224764 0.266155 0.5
15 1 0.0839451 0.316382 0.5
72 4 0.455549 0.321575 0.5
13 1 0.705297 0.325832 0.5
32 2 0.788133 0.354886 0.5
25 2 0.857206 0.332157 0.5
1 1 0.160493 0.377274 0.5
41 3 0.340618 0.394798 0.5
19 1 0.528144 0.355072 0.5
2 1 0.617751 0.375236 0.5
8 1 0.69205 0.41494 0.5
60 3 0.876765 0.384932 0.5
75 4 0.916264 0.396917 0.5
73 4 0.356881 0.445916 0.5
11 1 0.430832 0.43886 0.5
17 1 0.572139 0.455109 0.5
23 2 0.778034 0.440772 0.5
3 1 0.0987059 0.474855 0.5
35 2 0.551808 0.516318 0.5
26 2 0.764841 0.514818 0.5
6 1 0.86142 0.486147 0.5
44 3 0.12427 0.548053 0.5
12 1 0.206393 0.591444 0.5
66 4 0.216878 0.523421 0.5
5 1 0.420369 0.535365 0.5
14 1 0.503794 0.564924 0.5
65 4 0.59941 0.543769 0.5
64 4 0.765985 0.569075 0.5
22 2 0.594412 0.611449 0.5
49 3 0.681595 0.595064 0.5
69 4 0.0244922 0.640899 0.5
62 4 0.312179 0.633761 0.5
78 4 0.269898 0.63598 0.5
10 1 0.646825 0.663665 0.5
24 2 0.703871 0.713098 0.5
47 3 0.796028 0.715945 0.5
48 3 0.854856 0.691074 0.5
56 3 0.969629 0.713784 0.5
53 3 0.235067 0.77411 0.5
71 4 0.315094 0.777953 0.5
59 3 0.929251 0.761933 0.5
51 3 0.068771 0.834621 0.5
43 3 0.524802 0.807942 0.5
21 2 0.686402 0.818614 0.5
46 3 0.527455 0.871733 0.5
38 2 0.670094 0.891589 0.5
45 3 0.959889 0.854678 0.5
27 2 0.165704 0.904752 0.5
20 1 0.580786 0.940356 0.5
67 4 0.739613 0.901533 0.5
37 2 0.841025 0.883286 0.5
77 4 0.832486 0.942179 0.5
55 3 0.149991 0.97324 0.5
80 4 0.400813 0.982644 0.5
18 1 0.659571 0.980049 0.5
16 1 0.785635 0.957515 0.5
70 4 0.726106 0.963487 0.5
57 3 0.951625 0.95309 0.5
ITEM: TIMESTEP
110
ITEM: NUMBER OF ATOMS
80
ITEM: BOX BOUNDS pp pp pp
-6.3076038441932072e+00 6.3076038441932072e+00
-6.3076038441932072e+00 6.3076038441932072e+00
-1.0000000000000001e-01 1.0000000000000001e-01
ITEM: ATOMS id type xs ys zs
31 2 0.0663765 0.0406761 0.5
40 2 0.354113 0.0222749 0.5
74 4 0.548407 0.0301815 0.5
28 2 0.751805 0.035294 0.5
79 4 0.689253 0.0482964 0.5
58 3 0.85153 0.0243509 0.5
54 3 0.296973 0.0669176 0.5
4 1 0.877904 0.106789 0.5
68 4 0.946308 0.0890729 0.5
52 3 0.0545717 0.114625 0.5
63 4 0.0792454 0.161102 0.5
9 1 0.187014 0.156829 0.5
7 1 0.479419 0.0891125 0.5
33 2 0.526272 0.17123 0.5
50 3 0.585749 0.130327 0.5
36 2 0.995958 0.127866 0.5
29 2 0.303698 0.22542 0.5
42 3 0.467677 0.249808 0.5
34 2 0.717793 0.262049 0.5
76 4 0.682131 0.218848 0.5
39 2 0.783715 0.216603 0.5
61 4 0.17043 0.294906 0.5
30 2 0.226138 0.265405 0.5
15 1 0.0816718 0.314595 0.5
72 4 0.455429 0.32152 0.5
13 1 0.706107 0.31938 0.5
32 2 0.788119 0.35483 0.5
25 2 0.857335 0.329269 0.5
1 1 0.162809 0.379125 0.5
41 3 0.34023 0.393945 0.5
19 1 0.522929 0.352166 0.5
2 1 0.620962 0.373812 0.5
8 1 0.691566 0.422087 0.5
60 3 0.874736 0.385779 0.5
75 4 0.919853 0.398556 0.5
73 4 0.356203 0.44675 0.5
11 1 0.431853 0.437375 0.5
17 1 0.572394 0.456234 0.5
23 2 0.777682 0.439113 0.5
3 1 0.0975606 0.472106 0.5
35 2 0.551124 0.51723 0.5
26 2 0.763745 0.514992 0.5
6 1 0.863463 0.486521 0.5
44 3 0.125076 0.550882 0.5
12 1 0.205931 0.5941 0.5
66 4 0.217297 0.520684 0.5
5 1 0.415652 0.535237 0.5
14 1 0.506712 0.567798 0.5
65 4 0.600881 0.544507 0.5
64 4 0.765939 0.570954 0.5
22 2 0.59251 0.610212 0.5
49 3 0.682565 0.593312 0.5
69 4 0.0244922 0.640899 0.5
62 4 0.313448 0.633703 0.5
78 4 0.268896 0.636237 0.5
10 1 0.644806 0.663974 0.5
24 2 0.706961 0.716114 0.5
47 3 0.795112 0.716334 0.5
48 3 0.855775 0.690686 0.5
56 3 0.970378 0.712891 0.5
53 3 0.235067 0.77411 0.5
71 4 0.315094 0.777953 0.5
59 3 0.928502 0.762826 0.5
51 3 0.068771 0.834621 0.5
43 3 0.524758 0.807054 0.5
21 2 0.687353 0.814309 0.5
46 3 0.527158 0.872184 0.5
38 2 0.669207 0.895171 0.5
45 3 0.959889 0.854678 0.5
27 2 0.166157 0.902776 0.5
20 1 0.579636 0.940299 0.5
67 4 0.738964 0.900404 0.5
37 2 0.842444 0.880041 0.5
77 4 0.834411 0.943469 0.5
55 3 0.149537 0.975217 0.5
80 4 0.401516 0.98205 0.5
18 1 0.656555 0.978508 0.5
16 1 0.787336 0.958173 0.5
70 4 0.72408 0.96286 0.5
57 3 0.951625 0.95309 0.5
ITEM: TIMESTEP
120
ITEM: NUMBER OF ATOMS
80
ITEM: BOX BOUNDS pp pp pp
-6.3517613898696945e+00 6.3517613898696945e+00
-6.3517613898696945e+00 6.3517613898696945e+00
-1.0000000000000001e-01 1.0000000000000001e-01
ITEM: ATOMS id type xs ys zs
31 2 0.0664645 0.0400616 0.5
40 2 0.354321 0.0221606 0.5
74 4 0.548412 0.0301774 0.5
28 2 0.754631 0.038445 0.5
79 4 0.688357 0.051073 0.5
58 3 0.851325 0.023457 0.5
54 3 0.295983 0.0676932 0.5
4 1 0.877457 0.107907 0.5
68 4 0.943438 0.0864175 0.5
52 3 0.0545329 0.113357 0.5
63 4 0.0802486 0.162899 0.5
9 1 0.187014 0.156828 0.5
7 1 0.47594 0.0844516 0.5
33 2 0.52744 0.17636 0.5
50 3 0.588056 0.129862 0.5
36 2 0.998578 0.130537 0.5
29 2 0.304158 0.225183 0.5
42 3 0.467677 0.249808 0.5
34 2 0.715581 0.264158 0.5
76 4 0.680772 0.217807 0.5
39 2 0.787595 0.214199 0.5
61 4 0.16869 0.295583 0.5
30 2 0.227496 0.264664 0.5
15 1 0.0793052 0.312735 0.5
72 4 0.455205 0.321417 0.5
13 1 0.706839 0.313077 0.5
32 2 0.788093 0.35479 0.5
25 2 0.857584 0.326144 0.5
1 1 0.165263 0.381019 0.5
41 3 0.339812 0.393019 0.5
19 1 0.517693 0.349228 0.5
2 1 0.624031 0.3722 0.5
8 1 0.691135 0.429406 0.5
60 3 0.872667 0.386774 0.5
75 4 0.923527 0.40021 0.5
73 4 0.355459 0.447664 0.5
11 1 0.43299 0.435728 0.5
17 1 0.572665 0.457279 0.5
23 2 0.777432 0.437405 0.5
3 1 0.0963356 0.469344 0.5
35 2 0.550413 0.518128 0.5
26 2 0.762554 0.5152 0.5