LAMMPS data file via write_data, version 23 Jun 2022, timestep = 10000

80 atoms
4 atom types

-4.831204597728183 4.831204597728183 xlo xhi
-4.831204597728183 4.831204597728183 ylo yhi
-0.1 0.1 zlo zhi

Atoms # sphere

73 4 0.7 2.915451895043732 -3.9522669640360526 -4.308798515786551 0 0 0 0
75 4 0.7 2.915451895043732 -3.3983576036371836 -4.268560978453721 0 0 0 0
37 2 1.3 0.4551661356395083 -2.515898959687521 -4.066094498948833 0 0 0 0
16 1 1.6 0.2441406249999999 -0.9038824928536444 -3.5603983529416046 0 1 1 0
25 2 1.3 0.4551661356395083 0.15915663223469956 -4.624539822089488 0 0 0 0
51 3 1 1 1.2805447190736459 -4.8127414061991445 0 0 1 0
3 1 1.6 0.2441406249999999 2.31584280662533 -3.8478364244310015 0 0 0 0
52 3 1 1 3.7307759673557914 -3.839936750651442 0 -1 0 0
7 1 1.6 0.2441406249999999 4.557897746056856 -4.652541359728373 0 -1 0 0
34 2 1.3 0.4551661356395083 -4.476521838203043 -3.4532255544962602 0 0 0 0
15 1 1.6 0.2441406249999999 -3.2185083511629022 -2.8469644756926855 0 0 0 0
64 4 0.7 2.915451895043732 -2.091745995333281 -3.108644880428457 0 0 0 0
79 4 0.7 2.915451895043732 -0.18485151090512275 -2.9169924719273403 0 0 0 0
42 3 1 1 0.34664371245416614 -3.5013055590290607 0 0 0 0
57 3 1 1 1.1933415486371501 -3.596589623470429 0 0 0 0
36 2 1.3 0.4551661356395083 3.9992833351374113 -3.0466621669021228 0 0 0 0
17 1 1.6 0.2441406249999999 -4.720397767589486 -2.125539634144932 0 1 0 0
48 3 1 1 -2.1782908269724923 -2.2915290005058595 0 0 0 0
54 3 1 1 -1.405641135005415 -2.5659368345095173 0 0 0 0
44 3 1 1 -0.5252242429523397 -2.3511570758081333 0 0 0 0
13 1 1.6 0.2441406249999999 0.6812978692925844 -2.369563768642356 0 0 0 0
58 3 1 1 1.8969965920597671 -2.761046937739855 0 -1 0 0
30 2 1.3 0.4551661356395083 2.7540132004202214 -2.558890174639954 0 0 0 0
46 3 1 1 3.71973713266104 -2.0388662780323 0 0 0 0
67 4 0.7 2.915451895043732 -4.4551851114482 -0.9942007540717399 0 0 0 0
9 1 1.6 0.2441406249999999 -3.4501329040037954 -1.4591004153882308 0 0 0 0
71 4 0.7 2.915451895043732 -2.43616526491945 -1.4999485853695407 0 0 0 0
29 2 1.3 0.4551661356395083 -2.5604575978347173 -0.47793638456712184 0 0 0 0
10 1 1.6 0.2441406249999999 -1.4057321731271464 -1.273227803615471 0 0 0 0
38 2 1.3 0.4551661356395083 -0.045085091321195314 -1.2277559522114219 0 0 0 0
5 1 1.6 0.2441406249999999 1.8039796056512083 -1.3858753114884306 0 0 0 0
45 3 1 1 3.048092831389865 -1.3999429923401374 0 0 0 0
6 1 1.6 0.2441406249999999 4.1547945231772765 -0.9193520246741089 0 0 0 0
53 3 1 1 -4.110757780419391 -0.44475201280458965 0 1 0 0
61 4 0.7 2.915451895043732 -3.9012878382231317 0.30473894459157336 0 1 0 0
62 4 0.7 2.915451895043732 -3.4324072194958513 -0.2241483346453883 0 1 0 0
26 2 1.3 0.4551661356395083 -3.0676497739301727 0.6240841638918857 0 0 0 0
24 2 1.3 0.4551661356395083 -1.6361561365946047 0.3169051765332931 0 0 0 0
33 2 1.3 0.4551661356395083 -0.543411937252583 -0.22098144499984063 0 0 0 0
43 3 1 1 0.7503101053460615 -0.2862886412236785 0 0 0 0
72 4 0.7 2.915451895043732 0.5175015867627435 0.3719939625108655 0 0 0 0
1 1 1.6 0.2441406249999999 2.9244389201972414 -0.22003469526343622 0 0 0 0
4 1 1.6 0.2441406249999999 4.394620501693513 0.5169895868896033 0 0 0 0
70 4 0.7 2.915451895043732 -4.1969000561252505 0.9280643868656862 0 1 1 0
78 4 0.7 2.915451895043732 -3.9902133661720844 1.94212057425373 0 1 0 0
41 3 1 1 -4.749440599979258 1.492555915401895 0 1 0 0
69 4 0.7 2.915451895043732 -3.657957546250236 1.2658440255048173 0 0 0 0
74 4 0.7 2.915451895043732 -0.5537237021937491 0.8192982082508617 0 0 -1 0
23 2 1.3 0.4551661356395083 0.2696106754340555 1.2918109046012782 0 0 0 0
8 1 1.6 0.2441406249999999 1.5541939415672452 0.5654710063324773 0 -1 0 0
68 4 0.7 2.915451895043732 1.0629004816770777 1.5062993569644938 0 0 0 0
19 1 1.6 0.2441406249999999 3.0809689072889723 1.227875311388721 0 0 0 0
20 1 1.6 0.2441406249999999 -4.623550147919507 2.7062256662639204 0 0 0 0
39 2 1.3 0.4551661356395083 -3.1459372503299265 2.025618590329091 0 0 0 0
76 4 0.7 2.915451895043732 -2.547499819209229 2.5824578418935102 0 1 0 0
2 1 1.6 0.2441406249999999 -2.0045242976743585 1.5833541005712846 0 0 0 0
35 2 1.3 0.4551661356395083 -0.7969379328337673 1.839403027594483 0 0 -1 0
59 3 1 1 -0.3255744751120666 2.8338641602619354 0 0 0 0
14 1 1.6 0.2441406249999999 0.7882758729441015 2.5174246336190134 0 0 0 0
28 2 1.3 0.4551661356395083 1.9702639216207034 1.8862836152062359 0 -1 0 0
27 2 1.3 0.4551661356395083 3.0684815313126883 2.5533025909038667 0 0 -1 0
47 3 1 1 4.017693262694619 2.0116799630930444 0 -1 0 0
56 3 1 1 -4.618384959267574 3.739937205329978 0 1 0 0
31 2 1.3 0.4551661356395083 -3.3958188928205035 3.238953640248658 0 0 0 0
49 3 1 1 -2.2530535421569136 3.4974325671483886 0 0 0 0
80 4 0.7 2.915451895043732 -1.612631767803216 3.753230781345543 0 0 0 0
50 3 1 1 -1.6458188276308636 2.7163270050374706 0 0 0 0
21 2 1.3 0.4551661356395083 -0.905082086496491 3.6299247943811324 0 0 0 0
66 4 0.7 2.915451895043732 1.306133623875314 3.593647609421202 0 0 0 0
55 3 1 1 1.9974556513278428 3.0116728469680165 0 0 0 0
77 4 0.7 2.915451895043732 2.7058377857407843 3.346962463250545 0 0 0 0
12 1 1.6 0.2441406249999999 3.82822680877986 3.6545902575621767 0 0 -1 0
11 1 1.6 0.2441406249999999 -3.659079640291613 4.344454111313377 0 0 -1 0
32 2 1.3 0.4551661356395083 -2.2649774754019383 4.461195348874309 0 0 0 0
65 4 0.7 2.915451895043732 -1.5981415023089225 -4.211589373548352 0 0 1 0
22 2 1.3 0.4551661356395083 -0.9769178586883376 4.762405210172195 0 0 0 0
63 4 0.7 2.915451895043732 1.1574139880668035 4.144935246309707 0 0 0 0
40 2 1.3 0.4551661356395083 0.29079290865094176 3.7837246554665835 0 0 -1 0
18 1 1.6 0.2441406249999999 2.301313481939091 4.213824443951319 0 0 -1 0
60 3 1 1 3.2938076214557466 -4.735112307876111 0 0 1 0

Velocities

73 -0.0023211465029990483 -0.04955437703994776 0 0 0 0
75 -0.06436021317990775 -0.16547589888612946 0 0 0 0
37 -0.16427419584327682 0.26264749190572495 0 0 0 0
16 -0.0009130444332026705 -0.03467369773264391 0 0 0 0
25 -0.08716722159096417 -0.09075249955820398 0 0 0 0
51 -0.0605572775453199 -0.10117472233003451 0 0 0 0
3 0.05735123606704824 0.026761694489106834 0 0 0 0
52 -0.024939589485483766 0.059892310345636295 0 0 0 0
7 0.0630400395581516 0.07570935974395991 0 0 0 0
34 -0.049074736439225226 0.0016869849536433083 0 0 0 0
15 0.15607559739673293 -0.020410930359832335 0 0 0 0
64 0.06693715210947956 0.016451639466716288 0 0 0 0
79 0.23874337394342807 -0.1346312351925916 0 0 0 0
42 -0.14673185055448257 -0.017538153923245998 0 0 0 0
57 -0.09161004653046113 -0.11893639904764636 0 0 0 0
36 -0.017543074130981086 -0.14144964175963173 0 0 0 0
17 -0.16011937863677725 0.07093838490650776 0 0 0 0
48 0.014710150770309198 0.08914879066181566 0 0 0 0
54 0.04445544823364155 0.12174306228617343 0 0 0 0
44 -0.062069421011003066 -0.03460454542145101 0 0 0 0
13 -0.025378643847981157 0.16348361126729136 0 0 0 0
58 0.12108175247913903 -0.12636085522498164 0 0 0 0
30 -0.07704947081151986 -0.0006515096269679359 0 0 0 0
46 -0.0487002047225513 -0.031016174418890312 0 0 0 0
67 0.2286229175240041 -0.011414193350529785 0 0 0 0
9 0.043109009654772074 0.08035268370356671 0 0 0 0
71 0.17992201921173775 0.22569251354463293 0 0 0 0
29 0.10250029334495957 -0.07873297785340479 0 0 0 0
10 -0.20448300642137215 0.11389344001631915 0 0 0 0
38 0.00933227498872554 0.09635895895487485 0 0 0 0
5 0.024814485727659888 -0.030883227556416676 0 0 0 0
45 -0.08738123899078563 0.1064712971142297 0 0 0 0
6 0.030240672027630103 0.06374435544372326 0 0 0 0
53 0.09923152591163215 -0.15489058632184696 0 0 0 0
61 0.1073780626208444 0.035660219732650884 0 0 0 0
62 -0.10327213427427438 0.14611441632693906 0 0 0 0
26 -0.023577767854550794 0.23683712786769615 0 0 0 0
24 0.06196845014283099 -0.04054111881050155 0 0 0 0
33 0.04522172713412161 0.047123597664057736 0 0 0 0
43 -0.021327281359045464 -0.0894449407984817 0 0 0 0
72 -0.07864774534619745 -0.038505278375348305 0 0 0 0
1 -0.07891507794733267 -0.036373488485684315 0 0 0 0
4 0.07011910621162222 -0.15650261246386474 0 0 0 0
70 0.06762571847449916 0.11852085448735197 0 0 0 0
78 -0.05797112493495861 -0.053459406569038116 0 0 0 0
41 -0.06279581659343712 -0.04758749038331222 0 0 0 0
69 -0.1313819538450065 0.16791379403075604 0 0 0 0
74 -0.07472532986862643 0.04015078135387921 0 0 0 0
23 0.01282442995702983 -0.08291470702433959 0 0 0 0
8 0.07108109173937087 -0.05772880768290613 0 0 0 0
68 0.054918573570279905 -0.20192248654621173 0 0 0 0
19 -0.07481632673694602 0.12313286002482646 0 0 0 0
20 -0.11911677148737193 0.08637018359268027 0 0 0 0
39 -0.008693960175278785 -0.05239421020833414 0 0 0 0
76 -0.1550005133514511 -0.02956760221114209 0 0 0 0
2 0.005535171189099058 -0.03301464682870485 0 0 0 0
35 -0.05744306285792565 -0.03882175931793645 0 0 0 0
59 0.11028876192516916 0.024684441332369956 0 0 0 0
14 0.07617613655605332 -0.020642558705155203 0 0 0 0
28 0.163845357703932 0.11937936582055174 0 0 0 0
27 -0.022948614269423382 0.027525310497051123 0 0 0 0
47 -0.17055637085905287 -0.07431362700748048 0 0 0 0
56 0.03206716551659781 -0.14230849005591062 0 0 0 0
31 0.033985707364649724 0.0059800408992143166 0 0 0 0
49 -0.03590343356669947 0.031460184594118756 0 0 0 0
80 -0.04362903114173655 -0.04571541376328245 0 0 0 0
50 0.018027289455556834 -0.11683486386735277 0 0 0 0
21 0.06377486054931437 -0.11453749498553209 0 0 0 0
66 0.08135434166174908 0.00806031817377381 0 0 0 0
55 0.06961115385787417 0.12715602616591604 0 0 0 0
77 0.2349580683603755 -0.01488422933192166 0 0 0 0
12 0.16969689453467685 -0.055205015490316006 0 0 0 0
11 -0.027764297188995476 -0.09311452266937834 0 0 0 0
32 0.08359853015200396 0.07099009805617218 0 0 0 0
65 -0.14210003879976263 0.05628042483542536 0 0 0 0
22 -0.22180879044844856 -0.06385246755304151 0 0 0 0
63 -0.017139411091701237 -0.05008477225675991 0 0 0 0
40 -0.12538334886943753 0.035836376338725634 0 0 0 0
18 0.08610347334980024 0.03948703952246045 0 0 0 0
60 0.029263942569448396 -0.030216403124207612 0 0 0 0
