LAMMPS data file.

     27 atoms
     50 bonds
      0 angles
      0 dihedrals
      0 impropers
      1 atom types
     50 bond types
      0 angle types
      0 dihedral types
      0 improper types
  -4.831205   4.831205 xlo xhi
  -4.831205   4.831205 ylo yhi
  -0.100000   0.100000 zlo zhi

Masses # ['atom_id', 'mass']

1 10000.0

Atoms # ['atomID', 'moleculeID', 'atomType', 'charge', 'x', 'y', 'z']

     16      1      1   0.000000  -0.903882  -3.560398   0.000000
     52      1      1   0.000000   3.730776  -3.839937   0.000000
      7      1      1   0.000000   4.557898  -4.652541   0.000000
     34      1      1   0.000000  -4.476522  -3.453226   0.000000
     15      1      1   0.000000  -3.218508  -2.846964   0.000000
     79      1      1   0.000000  -0.184852  -2.916992   0.000000
     42      1      1   0.000000   0.346644  -3.501306   0.000000
     36      1      1   0.000000   3.999283  -3.046662   0.000000
     17      1      1   0.000000  -4.720398  -2.125540   0.000000
     48      1      1   0.000000  -2.178291  -2.291529   0.000000
     54      1      1   0.000000  -1.405641  -2.565937   0.000000
     44      1      1   0.000000  -0.525224  -2.351157   0.000000
     13      1      1   0.000000   0.681298  -2.369564   0.000000
     46      1      1   0.000000   3.719737  -2.038866   0.000000
      9      1      1   0.000000  -3.450133  -1.459100   0.000000
     71      1      1   0.000000  -2.436165  -1.499949   0.000000
     10      1      1   0.000000  -1.405732  -1.273228   0.000000
     45      1      1   0.000000   3.048093  -1.399943   0.000000
      6      1      1   0.000000   4.154795  -0.919352   0.000000
      1      1      1   0.000000   2.924439  -0.220035   0.000000
     19      1      1   0.000000   3.080969   1.227875   0.000000
     28      1      1   0.000000   1.970264   1.886284   0.000000
     27      1      1   0.000000   3.068482   2.553303   0.000000
     55      1      1   0.000000   1.997456   3.011673   0.000000
     77      1      1   0.000000   2.705838   3.346962   0.000000
     18      1      1   0.000000   2.301313   4.213824   0.000000
     60      1      1   0.000000   3.293808  -4.735112   0.000000

Bond Coeffs # ['bondID', 'bondCoeff', 'd']

      1   0.952478   1.024643
      2   0.650407   1.239959
      3   1.217635   0.906236
      4   1.442796   0.832526
      5   0.717961   1.180183
      6   1.007779   0.996133
      7   0.599820   1.291188
      8   1.628070   0.783725
      9   0.805987   1.113874
     10   1.163699   0.927000
     11   0.898315   1.055080
     12   0.635597   1.254322
     13   0.635597   1.254322
     14   0.499296   1.415210
     15   1.074141   0.964871
     16   0.743795   1.159507
     17   0.569180   1.325486
     18   0.622802   1.267141
     19   1.602798   0.789879
     20   0.471488   1.456346
     21   0.505097   1.407060
     22   0.638037   1.251922
     23   0.719134   1.179221
     24   2.293455   0.660321
     25   0.686797   1.206663
     26   0.598409   1.292709
     27   0.482021   1.440347
     28   0.482021   1.440347
     29   0.485976   1.434473
     30   0.686928   1.206547
     31   0.548780   1.349898
     32   1.487460   0.819931
     33   0.623153   1.266784
     34   0.789116   1.125718
     35   0.971063   1.014790
     36   1.092789   0.956603
     37   0.512781   1.396478
     38   1.313359   0.872586
     39   0.669305   1.222329
     40   0.669305   1.222329
     41   1.425759   0.837485
     42   0.605695   1.284911
     43   0.545634   1.353783
     44   0.545634   1.353783
     45   0.693199   1.201077
     46   0.575638   1.318030
     47   0.575638   1.318030
     48   0.710493   1.186370
     49   0.612076   1.278196
     50   0.914245   1.045848

Bonds # ['ID', 'type', 'atom1', 'atom2']

         1         1        79        13
         2         2        55        18
         3         3        54        44
         4         4        48        71
         5         5        42        13
         6         6        52        60
         7         7        19        28
         8         8        55        77
         9         9        16        54
        10        10        46        45
        11        11        71        10
        12        12        36        34
        13        13        34        36
        14        14         6         1
        15        15        16        79
        16        16        52         7
        17        17        19        27
        18        18        16        44
        19        19        79        42
        20        20         1        19
        21        21        15         9
        22        22        16        42
        23        23        15        48
        24        24        79        44
        25        25        44        13
        26        26        54        10
        27        27         6        17
        28        28        17         6
        29        29        17         9
        30        30        45         6
        31        31        34        17
        32        32        48        54
        33        33         7        60
        34        34        28        55
        35        35         9        71
        36        36        77        18
        37        37        34        15
        38        38        27        77
        39        39        60        18
        40        40        18        60
        41        41        52        36
        42        42        28        27
        43        43        34         7
        44        44         7        34
        45        45        46         6
        46        46        36        17
        47        47        17        36
        48        48        45         1
        49        49        48        10
        50        50        36        46
