ITEM: TIMESTEP
0
ITEM: NUMBER OF ATOMS
80
ITEM: BOX BOUNDS pp pp pp
-1.0000000000000000e+01 1.0000000000000000e+01
-1.0000000000000000e+01 1.0000000000000000e+01
-1.0000000000000001e-01 1.0000000000000001e-01
ITEM: ATOMS id type xs ys zs
58 3 0.109478 0.00396421 0.5
7 1 0.249123 0.00902763 0.5
35 2 0.259595 0.00633772 0.5
15 1 0.414353 0.0271019 0.5
25 2 0.479981 0.0369231 0.5
12 1 0.720297 0.0385781 0.5
57 3 0.524905 0.0822973 0.5
40 2 0.748384 0.0860478 0.5
27 2 0.802171 0.0918977 0.5
11 1 0.123648 0.147373 0.5
3 1 0.731727 0.136444 0.5
41 3 0.686627 0.147009 0.5
30 2 0.833767 0.119387 0.5
74 4 0.470469 0.164117 0.5
72 4 0.717449 0.159645 0.5
37 2 0.147334 0.24564 0.5
67 4 0.321368 0.238498 0.5
5 1 0.541335 0.225077 0.5
79 4 0.689668 0.256542 0.5
6 1 0.768681 0.227403 0.5
78 4 0.834606 0.230902 0.5
34 2 0.157809 0.299042 0.5
54 3 0.401694 0.26316 0.5
18 1 0.589594 0.302833 0.5
48 3 0.583882 0.305191 0.5
17 1 0.739471 0.283032 0.5
4 1 0.830325 0.265746 0.5
76 4 0.876618 0.311184 0.5
53 3 0.910888 0.288533 0.5
49 3 0.138474 0.330792 0.5
64 4 0.549076 0.31627 0.5
14 1 0.603994 0.331189 0.5
13 1 0.710498 0.334241 0.5
66 4 0.753575 0.335062 0.5
52 3 0.301088 0.383869 0.5
62 4 0.936717 0.40235 0.5
9 1 0.208332 0.430077 0.5
29 2 0.401288 0.445172 0.5
42 3 0.384746 0.430066 0.5
22 2 0.580678 0.4602 0.5
26 2 0.229161 0.50571 0.5
10 1 0.460134 0.479476 0.5
73 4 0.100408 0.565231 0.5
24 2 0.412244 0.577531 0.5
33 2 0.420453 0.556906 0.5
75 4 0.512261 0.5751 0.5
19 1 0.838908 0.532905 0.5
20 1 0.0910686 0.589684 0.5
31 2 0.134562 0.587224 0.5
1 1 0.460024 0.617418 0.5
77 4 0.542072 0.603177 0.5
45 3 0.789885 0.590719 0.5
8 1 0.0589417 0.632535 0.5
23 2 0.0800648 0.648916 0.5
28 2 0.303961 0.673828 0.5
47 3 0.392673 0.662522 0.5
43 3 0.446519 0.648937 0.5
2 1 0.749786 0.649336 0.5
80 4 0.782152 0.635133 0.5
16 1 0.809284 0.644071 0.5
71 4 0.0554349 0.694159 0.5
38 2 0.341744 0.695083 0.5
68 4 0.32913 0.691473 0.5
63 4 0.462529 0.728403 0.5
44 3 0.204365 0.754192 0.5
32 2 0.385182 0.757841 0.5
51 3 0.390834 0.752887 0.5
46 3 0.640195 0.761486 0.5
56 3 0.743487 0.786907 0.5
39 2 0.333957 0.813966 0.5
36 2 0.553448 0.798294 0.5
61 4 0.547976 0.830183 0.5
59 3 0.581948 0.800667 0.5
21 2 0.517573 0.842527 0.5
60 3 0.580702 0.850987 0.5
65 4 0.35348 0.938857 0.5
55 3 0.943829 0.933713 0.5
69 4 0.525553 0.963925 0.5
50 3 0.571426 0.949633 0.5
70 4 0.637352 0.974388 0.5
ITEM: TIMESTEP
10
ITEM: NUMBER OF ATOMS
80
ITEM: BOX BOUNDS pp pp pp
-9.2972752437583868e+00 9.2972752437583868e+00
-9.2972752437583868e+00 9.2972752437583868e+00
-1.0000000000000001e-01 1.0000000000000001e-01
ITEM: ATOMS id type xs ys zs
58 3 0.109478 0.00396421 0.5
7 1 0.248904 0.00908395 0.5
35 2 0.259814 0.0062814 0.5
15 1 0.414327 0.0270981 0.5
25 2 0.480006 0.0369269 0.5
12 1 0.720264 0.0385211 0.5
57 3 0.524905 0.0822973 0.5
40 2 0.748398 0.0860301 0.5
27 2 0.802148 0.0918454 0.5
11 1 0.123648 0.147373 0.5
3 1 0.731831 0.136402 0.5
41 3 0.686526 0.147011 0.5
30 2 0.833832 0.119444 0.5
74 4 0.470469 0.164117 0.5
72 4 0.717422 0.159754 0.5
37 2 0.147326 0.245599 0.5
67 4 0.321368 0.238498 0.5
5 1 0.541335 0.225077 0.5
79 4 0.689662 0.256539 0.5
6 1 0.768686 0.227329 0.5
78 4 0.834617 0.230819 0.5
34 2 0.157857 0.299017 0.5
54 3 0.401694 0.26316 0.5
18 1 0.589766 0.302574 0.5
48 3 0.583632 0.305172 0.5
17 1 0.739481 0.283009 0.5
4 1 0.83034 0.265845 0.5
76 4 0.876612 0.311188 0.5
53 3 0.910894 0.288529 0.5
49 3 0.138434 0.330857 0.5
64 4 0.548995 0.316294 0.5
14 1 0.604152 0.331444 0.5
13 1 0.710403 0.33431 0.5
66 4 0.753634 0.335078 0.5
52 3 0.301088 0.383869 0.5
62 4 0.936717 0.40235 0.5
9 1 0.208332 0.430077 0.5
29 2 0.401367 0.44525 0.5
42 3 0.384651 0.429979 0.5
22 2 0.580678 0.4602 0.5
26 2 0.229161 0.50571 0.5
10 1 0.460151 0.479486 0.5
73 4 0.100419 0.565103 0.5
24 2 0.412154 0.577652 0.5
33 2 0.420509 0.556756 0.5
75 4 0.512261 0.5751 0.5
19 1 0.838908 0.532905 0.5
20 1 0.0909877 0.589672 0.5
31 2 0.134701 0.587238 0.5
1 1 0.460102 0.617343 0.5
77 4 0.542072 0.603177 0.5
45 3 0.789873 0.590688 0.5
8 1 0.0587485 0.632511 0.5
23 2 0.0801897 0.649066 0.5
28 2 0.303831 0.673746 0.5
47 3 0.392673 0.662522 0.5
43 3 0.446474 0.649042 0.5
2 1 0.749633 0.649376 0.5
80 4 0.782126 0.635066 0.5
16 1 0.809474 0.644129 0.5
71 4 0.0554347 0.694159 0.5
38 2 0.341945 0.69516 0.5
68 4 0.329059 0.691477 0.5
63 4 0.462529 0.728403 0.5
44 3 0.204365 0.754192 0.5
32 2 0.385044 0.757962 0.5
51 3 0.390972 0.752766 0.5
46 3 0.640195 0.761486 0.5
56 3 0.743487 0.786907 0.5
39 2 0.333957 0.813966 0.5
36 2 0.553372 0.798195 0.5
61 4 0.548011 0.830215 0.5
59 3 0.582055 0.800674 0.5
21 2 0.517493 0.842576 0.5
60 3 0.580715 0.850997 0.5
65 4 0.35348 0.938857 0.5
55 3 0.943829 0.933713 0.5
69 4 0.525553 0.963925 0.5
50 3 0.571426 0.949633 0.5
70 4 0.637352 0.974388 0.5
ITEM: TIMESTEP
20
ITEM: NUMBER OF ATOMS
80
ITEM: BOX BOUNDS pp pp pp
-8.3996507769518427e+00 8.3996507769518427e+00
-8.3996507769518427e+00 8.3996507769518427e+00
-1.0000000000000001e-01 1.0000000000000001e-01
ITEM: ATOMS id type xs ys zs
58 3 0.109478 0.00396421 0.5
7 1 0.248138 0.00928067 0.5
35 2 0.26058 0.00608469 0.5
15 1 0.414208 0.0270803 0.5
25 2 0.480123 0.0369425 0.5
12 1 0.720133 0.0383005 0.5
57 3 0.524907 0.0822995 0.5
40 2 0.748444 0.0859635 0.5
27 2 0.80208 0.091653 0.5
11 1 0.123648 0.147373 0.5
3 1 0.732213 0.136268 0.5
41 3 0.68614 0.14702 0.5
30 2 0.834074 0.119655 0.5
74 4 0.470469 0.164117 0.5
72 4 0.717339 0.160148 0.5
37 2 0.147293 0.245433 0.5
67 4 0.321368 0.238498 0.5
5 1 0.541335 0.225076 0.5
79 4 0.689618 0.256515 0.5
6 1 0.768687 0.227025 0.5
78 4 0.834654 0.230515 0.5
34 2 0.158037 0.298943 0.5
54 3 0.401694 0.26316 0.5
18 1 0.590378 0.301651 0.5
48 3 0.582774 0.305096 0.5
17 1 0.739535 0.282918 0.5
4 1 0.830421 0.266223 0.5
76 4 0.876576 0.311214 0.5
53 3 0.910931 0.288505 0.5
49 3 0.138287 0.331098 0.5
64 4 0.548657 0.316382 0.5
14 1 0.604737 0.332356 0.5
13 1 0.710042 0.334573 0.5
66 4 0.753865 0.335159 0.5
52 3 0.301088 0.383869 0.5
62 4 0.936717 0.40235 0.5
9 1 0.208329 0.430068 0.5
29 2 0.40162 0.44551 0.5
42 3 0.384311 0.429668 0.5
22 2 0.580678 0.4602 0.5
26 2 0.229163 0.505719 0.5
10 1 0.460238 0.479536 0.5
73 4 0.100447 0.564637 0.5
24 2 0.411815 0.578061 0.5
33 2 0.42069 0.556198 0.5
75 4 0.512261 0.5751 0.5
19 1 0.838908 0.532905 0.5
20 1 0.090702 0.589594 0.5
31 2 0.135216 0.587294 0.5
1 1 0.460423 0.617113 0.5
77 4 0.542072 0.603177 0.5
45 3 0.78983 0.590543 0.5
8 1 0.0580521 0.632433 0.5
23 2 0.0806381 0.649605 0.5
28 2 0.303352 0.673447 0.5
47 3 0.392684 0.662514 0.5
43 3 0.446314 0.64942 0.5
2 1 0.749059 0.649529 0.5
80 4 0.782037 0.634831 0.5
16 1 0.810181 0.644355 0.5
71 4 0.0554247 0.694186 0.5
38 2 0.342653 0.695447 0.5
68 4 0.328817 0.691498 0.5
63 4 0.462529 0.728403 0.5
44 3 0.204365 0.754192 0.5
32 2 0.384563 0.758384 0.5
51 3 0.391453 0.752344 0.5
46 3 0.640195 0.761486 0.5
56 3 0.743487 0.786907 0.5
39 2 0.333957 0.813966 0.5
36 2 0.553106 0.797795 0.5
61 4 0.548125 0.830334 0.5
59 3 0.582447 0.800673 0.5
21 2 0.517181 0.842773 0.5
60 3 0.580787 0.851083 0.5
65 4 0.35348 0.938857 0.5
55 3 0.943829 0.933713 0.5
69 4 0.525552 0.963925 0.5
50 3 0.571427 0.949633 0.5
70 4 0.637352 0.974388 0.5
ITEM: TIMESTEP
30
ITEM: NUMBER OF ATOMS
80
ITEM: BOX BOUNDS pp pp pp
-7.7539707429212301e+00 7.7539707429212301e+00
-7.7539707429212301e+00 7.7539707429212301e+00
-1.0000000000000001e-01 1.0000000000000001e-01
ITEM: ATOMS id type xs ys zs
58 3 0.109478 0.00396421 0.5
7 1 0.246694 0.00965166 0.5
35 2 0.262024 0.0057137 0.5
15 1 0.413922 0.0270375 0.5
25 2 0.480382 0.0369581 0.5
12 1 0.71986 0.0378385 0.5
57 3 0.524934 0.0823267 0.5
40 2 0.748519 0.0858259 0.5
27 2 0.801999 0.0912565 0.5
11 1 0.123648 0.147373 0.5
3 1 0.732945 0.136052 0.5
41 3 0.685346 0.147032 0.5
30 2 0.834558 0.120077 0.5
74 4 0.470469 0.164117 0.5
72 4 0.717194 0.160923 0.5
37 2 0.147221 0.245068 0.5
67 4 0.321368 0.238498 0.5
5 1 0.541316 0.225047 0.5
79 4 0.689487 0.256446 0.5
6 1 0.768644 0.226365 0.5
78 4 0.834746 0.229912 0.5
34 2 0.158404 0.298825 0.5
54 3 0.401694 0.26316 0.5
18 1 0.591572 0.29989 0.5
48 3 0.581187 0.304938 0.5
17 1 0.739648 0.282734 0.5
4 1 0.830629 0.266977 0.5
76 4 0.876496 0.311303 0.5
53 3 0.911033 0.288437 0.5
49 3 0.137992 0.33158 0.5
64 4 0.54791 0.316561 0.5
14 1 0.605897 0.334125 0.5
13 1 0.709296 0.335116 0.5
66 4 0.754352 0.33536 0.5
52 3 0.301088 0.383869 0.5
62 4 0.936717 0.40235 0.5
9 1 0.208311 0.430002 0.5
29 2 0.40205 0.445977 0.5
42 3 0.383658 0.429071 0.5
22 2 0.580678 0.4602 0.5
26 2 0.229181 0.505785 0.5
10 1 0.460465 0.479656 0.5
73 4 0.100482 0.563718 0.5
24 2 0.411122 0.57881 0.5
33 2 0.420997 0.555085 0.5
75 4 0.512268 0.575085 0.5
19 1 0.838919 0.532893 0.5
20 1 0.0901558 0.589376 0.5
31 2 0.136255 0.587418 0.5
1 1 0.461112 0.616757 0.5
77 4 0.542077 0.603182 0.5
45 3 0.789746 0.59017 0.5
8 1 0.056692 0.632276 0.5
23 2 0.0815161 0.650643 0.5
28 2 0.302399 0.67285 0.5
47 3 0.392718 0.662477 0.5
43 3 0.446029 0.650151 0.5
2 1 0.74788 0.649864 0.5
80 4 0.78187 0.634401 0.5
16 1 0.811601 0.644835 0.5
71 4 0.0553806 0.694318 0.5
38 2 0.343968 0.69602 0.5
68 4 0.328377 0.691553 0.5
63 4 0.462529 0.728403 0.5
44 3 0.204365 0.754192 0.5
32 2 0.383679 0.759178 0.5
51 3 0.39236 0.751549 0.5
46 3 0.640195 0.761486 0.5
56 3 0.743487 0.786907 0.5
39 2 0.333944 0.813981 0.5
36 2 0.552593 0.796924 0.5
61 4 0.548308 0.830576 0.5
59 3 0.583234 0.800609 0.5
21 2 0.516506 0.843191 0.5
60 3 0.581005 0.851357 0.5
65 4 0.35348 0.938857 0.5
55 3 0.943829 0.933713 0.5
69 4 0.525533 0.963931 0.5
50 3 0.571446 0.949627 0.5
70 4 0.637352 0.974388 0.5
ITEM: TIMESTEP
40
ITEM: NUMBER OF ATOMS
80
ITEM: BOX BOUNDS pp pp pp
-7.3032565864907015e+00 7.3032565864907015e+00
-7.3032565864907015e+00 7.3032565864907015e+00
-1.0000000000000001e-01 1.0000000000000001e-01
ITEM: ATOMS id type xs ys zs
58 3 0.109478 0.00396421 0.5
7 1 0.244478 0.0102208 0.5
35 2 0.264239 0.00514459 0.5
15 1 0.413403 0.0269599 0.5
25 2 0.480817 0.0369499 0.5
12 1 0.7194 0.0370414 0.5
57 3 0.525019 0.0824125 0.5
40 2 0.748616 0.0855954 0.5
27 2 0.801971 0.0905821 0.5
11 1 0.123648 0.147373 0.5
3 1 0.734044 0.135788 0.5
41 3 0.684049 0.147045 0.5
30 2 0.835337 0.120759 0.5
74 4 0.470469 0.164117 0.5
72 4 0.716987 0.16215 0.5
37 2 0.147094 0.244441 0.5
67 4 0.321368 0.238498 0.5
5 1 0.541242 0.224937 0.5
79 4 0.689223 0.256307 0.5
6 1 0.768508 0.225266 0.5
78 4 0.834939 0.228953 0.5
34 2 0.159009 0.298676 0.5
54 3 0.401694 0.26316 0.5
18 1 0.593476 0.29719 0.5
48 3 0.578801 0.304685 0.5
17 1 0.739799 0.282447 0.5
4 1 0.831029 0.268161 0.5
76 4 0.876378 0.311512 0.5
53 3 0.911241 0.288308 0.5
49 3 0.137514 0.332357 0.5
64 4 0.546633 0.316857 0.5
14 1 0.607718 0.336892 0.5
13 1 0.708078 0.336009 0.5
66 4 0.755163 0.335729 0.5
52 3 0.301088 0.383869 0.5
62 4 0.936717 0.40235 0.5
9 1 0.208262 0.429822 0.5
29 2 0.402647 0.446665 0.5
42 3 0.38264 0.42814 0.5
22 2 0.580678 0.4602 0.5
26 2 0.229231 0.505964 0.5
10 1 0.460919 0.479837 0.5
73 4 0.100518 0.562257 0.5
24 2 0.40998 0.57993 0.5
33 2 0.421408 0.553342 0.5
75 4 0.5123 0.57501 0.5
19 1 0.838969 0.532834 0.5
20 1 0.0893043 0.588944 0.5
31 2 0.137945 0.587621 0.5
1 1 0.462272 0.616318 0.5
77 4 0.542105 0.603208 0.5
45 3 0.7896 0.589483 0.5
8 1 0.0545252 0.632023 0.5
23 2 0.0829116 0.65226 0.5
28 2 0.300878 0.671895 0.5
47 3 0.392767 0.662396 0.5
43 3 0.445626 0.651293 0.5
2 1 0.745946 0.650448 0.5
80 4 0.781616 0.633761 0.5
16 1 0.813884 0.645637 0.5
71 4 0.0552772 0.694644 0.5
38 2 0.345924 0.696904 0.5
68 4 0.327722 0.691658 0.5
63 4 0.462529 0.728403 0.5
44 3 0.204365 0.754192 0.5
32 2 0.382399 0.7604 0.5
51 3 0.393756 0.750338 0.5
46 3 0.640195 0.761486 0.5
56 3 0.743487 0.786907 0.5
39 2 0.333881 0.81405 0.5
36 2 0.551784 0.795435 0.5
61 4 0.54855 0.830973 0.5
59 3 0.584508 0.800432 0.5
21 2 0.515345 0.843891 0.5
60 3 0.581459 0.851926 0.5
65 4 0.35348 0.938857 0.5
55 3 0.943829 0.933713 0.5
69 4 0.525464 0.963952 0.5
50 3 0.571514 0.949605 0.5
70 4 0.637352 0.974388 0.5
ITEM: TIMESTEP
50
ITEM: NUMBER OF ATOMS
80
ITEM: BOX BOUNDS pp pp pp
-7.0271691544411485e+00 7.0271691544411485e+00
-7.0271691544411485e+00 7.0271691544411485e+00
-1.0000000000000001e-01 1.0000000000000001e-01
ITEM: ATOMS id type xs ys zs
58 3 0.109478 0.00396421 0.5
7 1 0.241489 0.0109887 0.5
35 2 0.267229 0.00437669 0.5
15 1 0.412611 0.0268418 0.5
25 2 0.48144 0.0368952 0.5
12 1 0.718719 0.0358304 0.5
57 3 0.525188 0.0825853 0.5
40 2 0.748721 0.0852557 0.5
27 2 0.80207 0.0895856 0.5
11 1 0.123647 0.147369 0.5
3 1 0.735481 0.135522 0.5
41 3 0.682214 0.147053 0.5
30 2 0.836428 0.121723 0.5
74 4 0.470469 0.164117 0.5
72 4 0.716716 0.163852 0.5
37 2 0.146904 0.243521 0.5
67 4 0.321368 0.238498 0.5
5 1 0.541072 0.224689 0.5
79 4 0.688795 0.256082 0.5
6 1 0.768256 0.223714 0.5
78 4 0.835265 0.227621 0.5
34 2 0.159876 0.298511 0.5
54 3 0.401694 0.26316 0.5
18 1 0.596144 0.293565 0.5
48 3 0.575653 0.304347 0.5
17 1 0.739964 0.282062 0.5
4 1 0.831635 0.269775 0.5
76 4 0.876232 0.311886 0.5
53 3 0.91161 0.288112 0.5
49 3 0.136839 0.333446 0.5
64 4 0.544787 0.317289 0.5
14 1 0.610139 0.340671 0.5
13 1 0.706402 0.337285 0.5
66 4 0.75633 0.336294 0.5
52 3 0.301088 0.383869 0.5
62 4 0.936717 0.40235 0.5
9 1 0.208169 0.429485 0.5
29 2 0.403375 0.44756 0.5
42 3 0.381248 0.426863 0.5
22 2 0.580678 0.4602 0.5
26 2 0.229324 0.506301 0.5
10 1 0.461673 0.48005 0.5
73 4 0.100558 0.560225 0.5
24 2 0.408342 0.581415 0.5
33 2 0.421884 0.55098 0.5
75 4 0.512376 0.574831 0.5
19 1 0.83909 0.532694 0.5
20 1 0.0881346 0.588253 0.5
31 2 0.140353 0.587891 0.5
1 1 0.463962 0.61584 0.5
77 4 0.542172 0.60327 0.5
45 3 0.78937 0.588445 0.5
8 1 0.0514878 0.631679 0.5
23 2 0.0848515 0.654478 0.5
28 2 0.298764 0.670563 0.5
47 3 0.392806 0.662261 0.5
43 3 0.445128 0.652855 0.5
2 1 0.743208 0.651312 0.5
80 4 0.781276 0.632919 0.5
16 1 0.817072 0.646792 0.5
71 4 0.0550952 0.695223 0.5
38 2 0.348448 0.69806 0.5
68 4 0.326862 0.691824 0.5
63 4 0.462529 0.728403 0.5
44 3 0.204365 0.754192 0.5
32 2 0.380781 0.762059 0.5
51 3 0.395668 0.748738 0.5
46 3 0.640201 0.761482 0.5
56 3 0.743487 0.786907 0.5
39 2 0.333732 0.814214 0.5
36 2 0.550664 0.793256 0.5
61 4 0.548839 0.831537 0.5
59 3 0.586296 0.80012 0.5
21 2 0.51364 0.844899 0.5
60 3 0.582201 0.85285 0.5
65 4 0.35348 0.938857 0.5
55 3 0.943829 0.933713 0.5
69 4 0.525322 0.963996 0.5
50 3 0.571656 0.949561 0.5
70 4 0.637352 0.974388 0.5
ITEM: TIMESTEP
60
ITEM: NUMBER OF ATOMS
80
ITEM: BOX BOUNDS pp pp pp
-6.8730689142169616e+00 6.8730689142169616e+00
-6.8730689142169616e+00 6.8730689142169616e+00
-1.0000000000000001e-01 1.0000000000000001e-01
ITEM: ATOMS id type xs ys zs
58 3 0.109478 0.00396421 0.5
7 1 0.237791 0.0119385 0.5
35 2 0.270927 0.00342682 0.5
15 1 0.411536 0.0266823 0.5
25 2 0.482246 0.0367772 0.5
12 1 0.717794 0.0341696 0.5
57 3 0.525457 0.0828627 0.5
40 2 0.748817 0.0847971 0.5
27 2 0.802366 0.0882564 0.5
11 1 0.123639 0.147337 0.5
3 1 0.737191 0.135298 0.5
41 3 0.679863 0.14705 0.5
30 2 0.837831 0.122964 0.5
74 4 0.470469 0.164117 0.5
72 4 0.716368 0.165993 0.5
37 2 0.146651 0.242325 0.5
67 4 0.321368 0.238498 0.5
5 1 0.540763 0.22425 0.5
79 4 0.688186 0.255766 0.5
6 1 0.767896 0.221748 0.5
78 4 0.835738 0.225935 0.5
34 2 0.16101 0.298347 0.5
54 3 0.401694 0.26316 0.5
18 1 0.599553 0.289118 0.5
48 3 0.571862 0.303962 0.5
17 1 0.740122 0.281595 0.5
4 1 0.83243 0.271779 0.5
76 4 0.876079 0.312452 0.5
53 3 0.912176 0.287849 0.5
49 3 0.135966 0.334839 0.5
64 4 0.542408 0.317867 0.5
14 1 0.613004 0.345371 0.5
13 1 0.704341 0.338936 0.5
66 4 0.757844 0.337059 0.5
52 3 0.301088 0.383869 0.5
62 4 0.936717 0.40235 0.5
9 1 0.208027 0.428969 0.5
29 2 0.40419 0.448634 0.5
42 3 0.379505 0.425258 0.5
22 2 0.580678 0.4602 0.5
26 2 0.229466 0.506818 0.5
10 1 0.462773 0.480268 0.5
73 4 0.100617 0.557647 0.5
24 2 0.406205 0.583221 0.5
33 2 0.422385 0.548072 0.5
75 4 0.512511 0.574516 0.5
19 1 0.839301 0.532454 0.5
20 1 0.0866593 0.587286 0.5
31 2 0.143451 0.588224 0.5
1 1 0.466172 0.615361 0.5
77 4 0.542305 0.603375 0.5
45 3 0.789039 0.587072 0.5
8 1 0.0476063 0.631256 0.5
23 2 0.087324 0.657255 0.5
28 2 0.296098 0.668874 0.5
47 3 0.392815 0.662063 0.5
43 3 0.444566 0.654821 0.5
2 1 0.739709 0.65245 0.5
80 4 0.780861 0.631899 0.5
16 1 0.821106 0.648289 0.5
71 4 0.0548233 0.696082 0.5
38 2 0.351418 0.69942 0.5
68 4 0.325821 0.692057 0.5
63 4 0.462529 0.728403 0.5
44 3 0.204365 0.754192 0.5
32 2 0.378908 0.764125 0.5
51 3 0.398084 0.746811 0.5
46 3 0.640235 0.761458 0.5
56 3 0.743487 0.786907 0.5
39 2 0.33347 0.814504 0.5
36 2 0.549243 0.790397 0.5
61 4 0.54917 0.832255 0.5
59 3 0.588555 0.79969 0.5
21 2 0.511402 0.846208 0.5
60 3 0.583238 0.854136 0.5
65 4 0.35348 0.938857 0.5
55 3 0.943829 0.933713 0.5
69 4 0.525091 0.964069 0.5
50 3 0.571888 0.949489 0.5
70 4 0.637352 0.974388 0.5
ITEM: TIMESTEP
70
ITEM: NUMBER OF ATOMS
80
ITEM: BOX BOUNDS pp pp pp
-6.8185531253603822e+00 6.8185531253603822e+00
-6.8185531253603822e+00 6.8185531253603822e+00
-1.0000000000000001e-01 1.0000000000000001e-01
ITEM: ATOMS id type xs ys zs
58 3 0.109478 0.00396421 0.5
7 1 0.233502 0.0130404 0.5
35 2 0.275216 0.00232499 0.5
15 1 0.410195 0.0264847 0.5
25 2 0.483212 0.0365856 0.5
12 1 0.716627 0.0320768 0.5
57 3 0.525831 0.083252 0.5
40 2 0.748884 0.0842162 0.5
27 2 0.8029 0.0866039 0.5
11 1 0.123618 0.147252 0.5
3 1 0.739089 0.135147 0.5
41 3 0.67707 0.147031 0.5
30 2 0.839526 0.124457 0.5
74 4 0.470469 0.164117 0.5
72 4 0.71592 0.168494 0.5
37 2 0.146339 0.240898 0.5
67 4 0.321368 0.238498 0.5
5 1 0.540288 0.223593 0.5
79 4 0.6874 0.255361 0.5
6 1 0.767467 0.219451 0.5
78 4 0.836353 0.223944 0.5
34 2 0.162396 0.298199 0.5
54 3 0.401694 0.26316 0.5
18 1 0.603608 0.284017 0.5
48 3 0.567599 0.303563 0.5
17 1 0.740261 0.281073 0.5
4 1 0.83337 0.274102 0.5
76 4 0.875938 0.313218 0.5
53 3 0.912953 0.287527 0.5
49 3 0.134912 0.336498 0.5
64 4 0.539603 0.31859 0.5
14 1 0.616107 0.350819 0.5
13 1 0.702005 0.340922 0.5
66 4 0.759666 0.338007 0.5
52 3 0.301088 0.383869 0.5
62 4 0.936717 0.40235 0.5
9 1 0.207835 0.428272 0.5
29 2 0.405042 0.449849 0.5
42 3 0.377458 0.423367 0.5
22 2 0.580678 0.4602 0.5
26 2 0.229658 0.507515 0.5
10 1 0.464237 0.480463 0.5
73 4 0.100714 0.554589 0.5
24 2 0.403608 0.585274 0.5
33 2 0.422874 0.544735 0.5
75 4 0.512716 0.574046 0.5
19 1 0.839614 0.532102 0.5
20 1 0.0849143 0.586059 0.5
31 2 0.147123 0.588622 0.5
1 1 0.468823 0.614915 0.5
77 4 0.542533 0.603522 0.5
45 3 0.788592 0.585424 0.5
8 1 0.042985 0.630774 0.5
23 2 0.0902846 0.660495 0.5
28 2 0.292968 0.66688 0.5
47 3 0.392779 0.661801 0.5
43 3 0.443969 0.657143 0.5
2 1 0.735577 0.653821 0.5
80 4 0.780389 0.630737 0.5
16 1 0.825843 0.650079 0.5
71 4 0.0544591 0.69721 0.5
38 2 0.354684 0.700906 0.5
68 4 0.324632 0.692359 0.5
63 4 0.462529 0.728403 0.5
44 3 0.204365 0.754192 0.5
32 2 0.376869 0.766541 0.5
51 3 0.400955 0.744642 0.5
46 3 0.640316 0.761399 0.5
56 3 0.743487 0.786907 0.5
39 2 0.333075 0.814941 0.5
36 2 0.547555 0.786944 0.5
61 4 0.54954 0.833098 0.5
59 3 0.591196 0.799179 0.5
21 2 0.508702 0.847781 0.5
60 3 0.584533 0.855743 0.5
65 4 0.35348 0.938857 0.5
55 3 0.943829 0.933713 0.5
69 4 0.524768 0.964169 0.5
50 3 0.57221 0.949388 0.5
70 4 0.637352 0.974388 0.5
ITEM: TIMESTEP
80
ITEM: NUMBER OF ATOMS
80
ITEM: BOX BOUNDS pp pp pp
-6.8467622020511367e+00 6.8467622020511367e+00
-6.8467622020511367e+00 6.8467622020511367e+00
-1.0000000000000001e-01 1.0000000000000001e-01
ITEM: ATOMS id type xs ys zs
58 3 0.109478 0.00396421 0.5
7 1 0.228778 0.0142537 0.5
35 2 0.279939 0.00111169 0.5
15 1 0.408629 0.0262558 0.5
25 2 0.484305 0.0363172 0.5
12 1 0.715253 0.0296216 0.5
57 3 0.526304 0.0837492 0.5
40 2 0.7489 0.0835167 0.5
27 2 0.803681 0.0846555 0.5
11 1 0.123582 0.147101 0.5
3 1 0.741087 0.135081 0.5
41 3 0.673943 0.146995 0.5
30 2 0.841465 0.126161 0.5
74 4 0.470469 0.164117 0.5
72 4 0.715349 0.171252 0.5
37 2 0.145976 0.239296 0.5
67 4 0.321368 0.238498 0.5
5 1 0.539641 0.222724 0.5
79 4 0.686454 0.254878 0.5
6 1 0.767024 0.216929 0.5
78 4 0.837087 0.22172 0.5
34 2 0.164001 0.29808 0.5
54 3 0.401694 0.26316 0.5
18 1 0.608135 0.278482 0.5
48 3 0.563067 0.30318 0.5
17 1 0.740373 0.280527 0.5
4 1 0.834398 0.276653 0.5
76 4 0.875834 0.314178 0.5
53 3 0.913928 0.287152 0.5
49 3 0.133706 0.33837 0.5
64 4 0.536522 0.319446 0.5
14 1 0.619222 0.356778 0.5
13 1 0.69954 0.343178 0.5
66 4 0.76173 0.339106 0.5
52 3 0.301088 0.383869 0.5
62 4 0.936717 0.40235 0.5
9 1 0.207598 0.427414 0.5
29 2 0.405884 0.451161 0.5
42 3 0.375176 0.421252 0.5
22 2 0.580678 0.4602 0.5
26 2 0.229894 0.508373 0.5
10 1 0.466058 0.480612 0.5
73 4 0.100877 0.551157 0.5
24 2 0.40064 0.587489 0.5
33 2 0.423319 0.54112 0.5
75 4 0.512999 0.573415 0.5
19 1 0.840029 0.531643 0.5
20 1 0.0829585 0.584621 0.5
31 2 0.151211 0.589076 0.5
1 1 0.471789 0.614522 0.5
77 4 0.542874 0.603703 0.5
45 3 0.788029 0.583598 0.5
8 1 0.0377743 0.630274 0.5
23 2 0.0936521 0.664057 0.5
28 2 0.289506 0.664656 0.5
47 3 0.392694 0.661474 0.5
43 3 0.443365 0.659743 0.5
2 1 0.731005 0.655357 0.5
80 4 0.779882 0.629482 0.5
16 1 0.83107 0.652084 0.5
71 4 0.0540081 0.698564 0.5
38 2 0.358086 0.702438 0.5
68 4 0.323336 0.692723 0.5
63 4 0.46253 0.728403 0.5
44 3 0.204365 0.754192 0.5
32 2 0.374756 0.769218 0.5
51 3 0.404199 0.742323 0.5
46 3 0.640459 0.761292 0.5
56 3 0.743487 0.786907 0.5
39 2 0.332541 0.815531 0.5
36 2 0.545662 0.783053 0.5
61 4 0.549947 0.83402 0.5
59 3 0.594101 0.798637 0.5
21 2 0.50566 0.849557 0.5
60 3 0.586013 0.857586 0.5
65 4 0.35348 0.938857 0.5
55 3 0.943829 0.933713 0.5
69 4 0.524362 0.964296 0.5
50 3 0.572617 0.949262 0.5
70 4 0.637352 0.974388 0.5
ITEM: TIMESTEP
90
ITEM: NUMBER OF ATOMS
80
ITEM: BOX BOUNDS pp pp pp
-6.9306804170131064e+00 6.9306804170131064e+00
-6.9306804170131064e+00 6.9306804170131064e+00
-1.0000000000000001e-01 1.0000000000000001e-01
ITEM: ATOMS id type xs ys zs
58 3 0.109478 0.00396421 0.5
7 1 0.223788 0.0155357 0.5
35 2 0.28493 -0.000170301 0.5
15 1 0.406892 0.0260045 0.5
25 2 0.485485 0.0359753 0.5
12 1 0.713727 0.0269049 0.5
57 3 0.526862 0.0843425 0.5
40 2 0.748851 0.0827068 0.5
27 2 0.804688 0.0824495 0.5
11 1 0.123528 0.14688 0.5
3 1 0.743112 0.13509 0.5
41 3 0.67061 0.146943 0.5
30 2 0.843582 0.128027 0.5
74 4 0.470469 0.164117 0.5
72 4 0.714638 0.174163 0.5
37 2 0.14557 0.237577 0.5
67 4 0.321368 0.238498 0.5
5 1 0.538835 0.221676 0.5
79 4 0.685392 0.254328 0.5
6 1 0.766624 0.214292 0.5
78 4 0.837912 0.219344 0.5
34 2 0.165782 0.297998 0.5
54 3 0.401694 0.26316 0.5
18 1 0.61293 0.272746 0.5
48 3 0.55847 0.302827 0.5
17 1 0.740458 0.279991 0.5
4 1 0.835448 0.279329 0.5
76 4 0.875788 0.315308 0.5
53 3 0.915069 0.286736 0.5
49 3 0.132385 0.340392 0.5
64 4 0.5333 0.320406 0.5
14 1 0.622167 0.36301 0.5
13 1 0.697078 0.345622 0.5
66 4 0.763954 0.340315 0.5
52 3 0.301088 0.383869 0.5
62 4 0.936717 0.40235 0.5
9 1 0.207327 0.426427 0.5
29 2 0.40667 0.452507 0.5
42 3 0.372734 0.418979 0.5
22 2 0.580678 0.4602 0.5
26 2 0.230166 0.50936 0.5
10 1 0.46821 0.480698 0.5
73 4 0.101129 0.547468 0.5
24 2 0.397412 0.589791 0.5
33 2 0.423698 0.5374 0.5
75 4 0.51336 0.572631 0.5
19 1 0.84054 0.531089 0.5
20 1 0.0808636 0.58304 0.5
31 2 0.15554 0.589576 0.5
1 1 0.474922 0.614196 0.5
77 4 0.54333 0.603911 0.5
45 3 0.787355 0.581705 0.5
8 1 0.0321458 0.629803 0.5
23 2 0.0973205 0.667786 0.5
28 2 0.285852 0.662291 0.5
47 3 0.392568 0.661075 0.5
43 3 0.442773 0.662535 0.5
2 1 0.726213 0.656979 0.5
80 4 0.779363 0.628183 0.5
16 1 0.836543 0.654207 0.5
71 4 0.0534819 0.700075 0.5
38 2 0.361476 0.70395 0.5
68 4 0.321972 0.69314 0.5
63 4 0.462545 0.7284 0.5
44 3 0.204365 0.754192 0.5
32 2 0.372648 0.772061 0.5
51 3 0.407713 0.739948 0.5
46 3 0.640671 0.761129 0.5
56 3 0.743487 0.786907 0.5
39 2 0.331869 0.816273 0.5
36 2 0.543633 0.778907 0.5
61 4 0.55039 0.834968 0.5
59 3 0.597139 0.798117 0.5
21 2 0.502422 0.851458 0.5
60 3 0.587586 0.859565 0.5
65 4 0.35348 0.938857 0.5
55 3 0.943829 0.933713 0.5
69 4 0.523888 0.964443 0.5
50 3 0.57309 0.949114 0.5
70 4 0.637352 0.974388 0.5
ITEM: TIMESTEP
100
ITEM: NUMBER OF ATOMS
80
ITEM: BOX BOUNDS pp pp pp
-7.0300365597468470e+00 7.0300365597468470e+00
-7.0300365597468470e+00 7.0300365597468470e+00
-1.0000000000000001e-01 1.0000000000000001e-01
ITEM: ATOMS id type xs ys zs
58 3 0.109478 0.00396421 0.5
7 1 0.218663 0.0168521 0.5
35 2 0.290055 0.998513 0.5
15 1 0.405032 0.0257385 0.5
25 2 0.486718 0.0355651 0.5
12 1 0.712098 0.0240195 0.5
57 3 0.527489 0.0850187 0.5
40 2 0.748725 0.0817926 0.5
27 2 0.805897 0.0800258 0.5
11 1 0.123458 0.146591 0.5
3 1 0.745111 0.135151 0.5
41 3 0.667177 0.14688 0.5
30 2 0.845816 0.130015 0.5
74 4 0.470469 0.164117 0.5
72 4 0.713771 0.177145 0.5
37 2 0.14513 0.235786 0.5
67 4 0.321368 0.238498 0.5
5 1 0.537893 0.220492 0.5
79 4 0.684278 0.253717 0.5
6 1 0.766324 0.211628 0.5
78 4 0.838798 0.216885 0.5
34 2 0.167699 0.297957 0.5
54 3 0.401694 0.26316 0.5
18 1 0.617828 0.266993 0.5
48 3 0.553967 0.302505 0.5
17 1 0.740519 0.279492 0.5
4 1 0.836465 0.282043 0.5
76 4 0.875819 0.316589 0.5
53 3 0.916342 0.28629 0.5
49 3 0.130978 0.342513 0.5
64 4 0.529997 0.321459 0.5
14 1 0.624827 0.369323 0.5
13 1 0.694713 0.348173 0.5
66 4 0.766269 0.341596 0.5
52 3 0.301088 0.383869 0.5
62 4 0.936717 0.40235 0.5
9 1 0.207029 0.425347 0.5
29 2 0.407367 0.453831 0.5
42 3 0.370189 0.4166 0.5
22 2 0.580678 0.460201 0.5
26 2 0.230463 0.51044 0.5
10 1 0.470665 0.480713 0.5
73 4 0.101497 0.54362 0.5
24 2 0.39402 0.592117 0.5
33 2 0.424001 0.533722 0.5
75 4 0.513798 0.571702 0.5
19 1 0.841137 0.530456 0.5
20 1 0.0786968 0.581387 0.5
31 2 0.159967 0.590093 0.5
1 1 0.478086 0.613938 0.5
77 4 0.543899 0.604134 0.5
45 3 0.786593 0.579829 0.5
8 1 0.0262502 0.629408 0.5
23 2 0.101177 0.671562 0.5
28 2 0.282129 0.659859 0.5
47 3 0.392411 0.660597 0.5
43 3 0.442213 0.665455 0.5
2 1 0.721382 0.658631 0.5
80 4 0.778853 0.626886 0.5
16 1 0.84205 0.656361 0.5
71 4 0.0528926 0.701678 0.5
38 2 0.364744 0.705399 0.5
68 4 0.320569 0.693597 0.5
63 4 0.462595 0.728389 0.5
44 3 0.204365 0.754192 0.5
32 2 0.370604 0.774986 0.5
51 3 0.411402 0.737585 0.5
46 3 0.640954 0.760905 0.5
56 3 0.743487 0.786907 0.5
39 2 0.331061 0.817162 0.5
36 2 0.541517 0.77465 0.5
61 4 0.550866 0.835893 0.5
59 3 0.600202 0.797661 0.5
21 2 0.4991 0.853414 0.5
60 3 0.589202 0.861619 0.5
65 4 0.35348 0.938857 0.5
55 3 0.943829 0.933713 0.5
69 4 0.523364 0.964606 0.5
50 3 0.573614 0.948951 0.5
70 4 0.637352 0.974388 0.5
ITEM: TIMESTEP
110
ITEM: NUMBER OF ATOMS
80
ITEM: BOX BOUNDS pp pp pp
-7.1028334977071230e+00 7.1028334977071230e+00
-7.1028334977071230e+00 7.1028334977071230e+00
-1.0000000000000001e-01 1.0000000000000001e-01
ITEM: ATOMS id type xs ys zs
58 3 0.109478 0.00396421 0.5
7 1 0.213476 0.0181844 0.5
35 2 0.295242 0.997181 0.5
15 1 0.403078 0.0254623 0.5
25 2 0.487984 0.0350896 0.5
12 1 0.710384 0.0210075 0.5
57 3 0.528176 0.0857704 0.5
40 2 0.748511 0.0807721 0.5
27 2 0.807299 0.0774097 0.5
11 1 0.123371 0.146234 0.5
3 1 0.747063 0.135245 0.5
41 3 0.663714 0.146815 0.5
30 2 0.848129 0.132101 0.5
74 4 0.470469 0.164117 0.5
72 4 0.712727 0.180159 0.5
37 2 0.144657 0.233948 0.5
67 4 0.321368 0.238498 0.5
5 1 0.536839 0.219206 0.5
79 4 0.683162 0.253046 0.5
6 1 0.76617 0.208994 0.5
78 4 0.839727 0.21438 0.5
34 2 0.169732 0.29796 0.5
54 3 0.401694 0.26316 0.5
18 1 0.622733 0.261329 0.5
48 3 0.549635 0.302189 0.5
17 1 0.74056 0.279053 0.5
4 1 0.837407 0.284735 0.5
76 4 0.875947 0.318009 0.5
53 3 0.91772 0.28582 0.5
49 3 0.129504 0.344705 0.5
64 4 0.526619 0.32261 0.5
14 1 0.627168 0.375619 0.5
13 1 0.692498 0.35077 0.5
66 4 0.768629 0.34293 0.5
52 3 0.301088 0.383869 0.5
62 4 0.936717 0.40235 0.5
9 1 0.206712 0.424197 0.5
29 2 0.407957 0.455099 0.5
42 3 0.36757 0.414142 0.5
22 2 0.580671 0.460215 0.5
26 2 0.23078 0.51159 0.5
10 1 0.473417 0.480653 0.5
73 4 0.101987 0.53965 0.5
24 2 0.390528 0.594427 0.5
33 2 0.424224 0.530177 0.5
75 4 0.514316 0.570632 0.5
19 1 0.841814 0.529753 0.5
20 1 0.0765064 0.579717 0.5
31 2 0.164426 0.590613 0.5
1 1 0.481197 0.613738 0.5
77 4 0.544582 0.604364 0.5
45 3 0.785768 0.577998 0.5
8 1 0.0201799 0.629132 0.5
23 2 0.105134 0.675314 0.5
28 2 0.278394 0.657397 0.5
47 3 0.392216 0.66004 0.5
43 3 0.441694 0.66848 0.5
2 1 0.716578 0.660293 0.5
80 4 0.778363 0.62562 0.5
16 1 0.847492 0.658498 0.5
71 4 0.0522478 0.703321 0.5
38 2 0.367841 0.706776 0.5
68 4 0.319138 0.694087 0.5
63 4 0.4627 0.728368 0.5
44 3 0.204365 0.754192 0.5
32 2 0.368653 0.777937 0.5
51 3 0.415212 0.735268 0.5
46 3 0.641312 0.760613 0.5
56 3 0.743487 0.786907 0.5
39 2 0.330113 0.8182 0.5
36 2 0.539337 0.770376 0.5
61 4 0.551364 0.836766 0.5
59 3 0.603231 0.797296 0.5
21 2 0.495747 0.855376 0.5
60 3 0.59085 0.863716 0.5
65 4 0.35348 0.938857 0.5
55 3 0.943829 0.933713 0.5
69 4 0.522803 0.964781 0.5
50 3 0.574175 0.948776 0.5
70 4 0.637352 0.974388 0.5
ITEM: TIMESTEP
120
ITEM: NUMBER OF ATOMS
80
ITEM: BOX BOUNDS pp pp pp
-7.1209198866789789e+00 7.1209198866789789e+00
-7.1209198866789789e+00 7.1209198866789789e+00
-1.0000000000000001e-01 1.0000000000000001e-01
ITEM: ATOMS id type xs ys zs
58 3 0.109478 0.00396421 0.5
7 1 0.208245 0.0195283 0.5
35 2 0.300473 0.995837 0.5
15 1 0.401039 0.0251772 0.5
25 2 0.489276 0.0345462 0.5
12 1 0.708579 0.0178574 0.5
57 3 0.528924 0.086599 0.5
40 2 0.748201 0.079633 0.5
27 2 0.808901 0.0746019 0.5
11 1 0.123267 0.145804 0.5
3 1 0.748969 0.13537 0.5
41 3 0.660242 0.146754 0.5
30 2 0.850513 0.134286 0.5
74 4 0.470469 0.164117 0.5
72 4 0.711481 0.183202 0.5
37 2 0.144154 0.23207 0.5
67 4 0.321368 0.238498 0.5
5 1 0.535688 0.217835 0.5
79 4 0.682085 0.252316 0.5
6 1 0.766201 0.206411 0.5
78 4 0.840695 0.211842 0.5
34 2 0.17188 0.298007 0.5
54 3 0.401694 0.26316 0.5
18 1 0.627583 0.255777 0.5
48 3 0.545473 0.301822 0.5
17 1 0.740587 0.278689 0.5
4 1 0.838248 0.287377 0.5
76 4 0.876189 0.319573 0.5
53 3 0.919194 0.285328 0.5
49 3 0.127964 0.346966 0.5
64 4 0.52314 0.323877 0.5
14 1 0.629221 0.381907 0.5
13 1 0.690457 0.353381 0.5
66 4 0.771018 0.344313 0.5
52 3 0.301088 0.383869 0.5
62 4 0.936717 0.40235 0.5
9 1 0.206379 0.422987 0.5
29 2 0.408427 0.456285 0.5
42 3 0.364874 0.411604 0.5
22 2 0.580645 0.460263 0.5
26 2 0.231113 0.5128 0.5
10 1 0.47649 0.480516 0.5