ITEM: TIMESTEP
250
ITEM: NUMBER OF ATOMS
50
ITEM: BOX BOUNDS pp pp pp
-4.8094825164787469e+00 4.8094825164787469e+00
-4.8108009836645191e+00 4.8108009836645191e+00
-1.0000000000000001e-01 1.0000000000000001e-01
ITEM: ATOMS id type xs ys zs
9 1 0.402779 0.093838 0.49956
72 1 0.506808 0.109792 0.499584
47 1 0.592387 0.0736394 0.500051
69 1 0.672065 0.0630251 0.499806
73 1 0.743605 0.0838376 0.499663
3 1 0.835511 0.030228 0.499567
61 1 0.410467 0.182671 0.500077
70 1 0.56259 0.153615 0.499249
54 1 0.483823 0.178603 0.500082
14 1 0.668665 0.167489 0.498595
38 1 0.797346 0.162635 0.499844
11 1 0.943435 0.149651 0.500022
40 1 0.400873 0.259013 0.500106
46 1 0.564991 0.221979 0.500057
45 1 0.625022 0.291331 0.499737
25 1 0.755155 0.286677 0.500197
39 1 0.869791 0.273896 0.501106
44 1 0.425832 0.373353 0.499977
48 1 0.327464 0.441284 0.499077
27 1 0.518438 0.319975 0.500402
50 1 0.423171 0.464964 0.500286
76 1 0.477305 0.413495 0.500427
30 1 0.671182 0.389171 0.500733
8 1 0.815647 0.413736 0.500119
2 1 0.965156 0.354425 0.50042
59 1 0.0153667 0.475325 0.49971
7 1 0.226321 0.51493 0.500851
12 1 0.511635 0.532533 0.500029
43 1 0.61699 0.472635 0.500312
1 1 0.726337 0.530361 0.500518
58 1 0.986303 0.566654 0.500765
21 1 0.0993939 0.539602 0.500238
56 1 0.292598 0.628114 0.499609
22 1 0.369162 0.552079 0.50035
60 1 0.623949 0.59708 0.500727
67 1 0.763812 0.65042 0.499473
10 1 0.858037 0.584487 0.499799
18 1 0.0523888 0.677275 0.49955
33 1 0.178706 0.645782 0.50019
49 1 0.358073 0.699933 0.499689
29 1 0.460379 0.658179 0.499758
37 1 0.569275 0.702622 0.499658
28 1 0.686113 0.681177 0.499298
79 1 0.755571 0.743413 0.499478
55 1 0.822731 0.706197 0.500341
26 1 0.935132 0.711451 0.500176
13 1 0.262541 0.754166 0.498992
19 1 0.838958 0.819297 0.500393
17 1 0.636343 0.960848 0.500031
65 1 0.72489 0.0134969 0.500355
ITEM: TIMESTEP
500
ITEM: NUMBER OF ATOMS
50
ITEM: BOX BOUNDS pp pp pp
-4.8082801013602676e+00 4.8082801013602676e+00
-4.8219929771051468e+00 4.8219929771051468e+00
-1.0000000000000001e-01 1.0000000000000001e-01
ITEM: ATOMS id type xs ys zs
9 1 0.402017 0.0946842 0.499746
72 1 0.506559 0.110284 0.498496
47 1 0.592355 0.0743868 0.49976
69 1 0.671972 0.0632616 0.501004
73 1 0.743655 0.0855591 0.500699
3 1 0.83469 0.0322169 0.501477
61 1 0.410054 0.18305 0.498773
70 1 0.56242 0.154038 0.498554
54 1 0.483715 0.178685 0.500605
14 1 0.668609 0.167725 0.49818
38 1 0.797314 0.164226 0.50083
11 1 0.943772 0.15104 0.499809
40 1 0.401376 0.259244 0.501943
46 1 0.56481 0.222319 0.500639
45 1 0.625213 0.29108 0.50005
25 1 0.754964 0.287349 0.501053
39 1 0.869378 0.274685 0.500531
44 1 0.426588 0.373208 0.499595
48 1 0.327088 0.440528 0.49815
27 1 0.518908 0.32044 0.501569
50 1 0.423338 0.465243 0.501114
76 1 0.478041 0.414083 0.501853
30 1 0.670825 0.389261 0.501267
8 1 0.81513 0.414129 0.499778
2 1 0.964904 0.354999 0.500616
59 1 0.0153391 0.475878 0.498809
7 1 0.226931 0.514726 0.501301
12 1 0.511724 0.532167 0.499815
43 1 0.617365 0.472978 0.50226
1 1 0.726886 0.53123 0.501669
58 1 0.986083 0.56707 0.499871
21 1 0.0994075 0.539507 0.500955
56 1 0.292981 0.628215 0.500536
22 1 0.36931 0.551525 0.502011
60 1 0.623918 0.597043 0.500675
67 1 0.764852 0.651407 0.500928
10 1 0.858665 0.585072 0.498378
18 1 0.0523104 0.677132 0.498204
33 1 0.178889 0.645538 0.500623
49 1 0.357503 0.700318 0.49814
29 1 0.459949 0.657965 0.499596
37 1 0.568606 0.701694 0.499235
28 1 0.686538 0.680904 0.501657
79 1 0.756034 0.743385 0.499127
55 1 0.823332 0.706784 0.498511
26 1 0.935309 0.712188 0.499169
13 1 0.261861 0.753633 0.497992
19 1 0.838976 0.820018 0.499774
17 1 0.635624 0.961781 0.501142
65 1 0.724708 0.0137179 0.500964
ITEM: TIMESTEP
750
ITEM: NUMBER OF ATOMS
50
ITEM: BOX BOUNDS pp pp pp
-4.8070776862417883e+00 4.8070776862417883e+00
-4.8209339249607206e+00 4.8209339249607206e+00
-1.0000000000000001e-01 1.0000000000000001e-01
ITEM: ATOMS id type xs ys zs
9 1 0.403013 0.0946842 0.500005
72 1 0.507019 0.1112 0.499362
47 1 0.593602 0.0745939 0.500072
69 1 0.673172 0.0632409 0.500385
73 1 0.744254 0.085632 0.501402
3 1 0.83593 0.0322466 0.502524
61 1 0.411146 0.183122 0.498107
70 1 0.563051 0.154121 0.500481
54 1 0.484305 0.17964 0.502293
14 1 0.669127 0.168143 0.499229
38 1 0.797668 0.164371 0.501979
11 1 0.944627 0.151767 0.500115
40 1 0.40021 0.259309 0.501852
46 1 0.565799 0.222527 0.501748
45 1 0.624891 0.292258 0.501338
25 1 0.754816 0.287451 0.500383
39 1 0.869428 0.274692 0.49959
44 1 0.425808 0.373601 0.499665
48 1 0.327977 0.440799 0.497344
27 1 0.518234 0.320493 0.501082
50 1 0.423871 0.465318 0.499327
76 1 0.4777 0.41356 0.50274
30 1 0.670536 0.389852 0.502423
8 1 0.815336 0.413974 0.500683
2 1 0.964683 0.354647 0.50013
59 1 0.0150847 0.475619 0.499515
7 1 0.226547 0.514042 0.501254
12 1 0.512216 0.532789 0.499364
43 1 0.618272 0.473955 0.502253
1 1 0.72749 0.531446 0.500804
58 1 0.986139 0.567053 0.499246
21 1 0.09931 0.539001 0.499997
56 1 0.292895 0.627095 0.499481
22 1 0.36962 0.551432 0.503983
60 1 0.6245 0.597329 0.501888
67 1 0.764515 0.652066 0.501736
10 1 0.858866 0.585556 0.498001
18 1 0.0524272 0.676758 0.499291
33 1 0.179171 0.644864 0.499216
49 1 0.357972 0.698512 0.497726
29 1 0.460082 0.657452 0.499997
37 1 0.568496 0.701596 0.502001
28 1 0.686476 0.681515 0.500485
79 1 0.755615 0.744469 0.500097
55 1 0.82309 0.707228 0.498457
26 1 0.935587 0.712567 0.500034
13 1 0.262341 0.752435 0.495957
19 1 0.839312 0.820373 0.500471
17 1 0.636582 0.961394 0.498518
65 1 0.725208 0.0136409 0.50163
ITEM: TIMESTEP
1000
ITEM: NUMBER OF ATOMS
50
ITEM: BOX BOUNDS pp pp pp
-4.8058752711233090e+00 4.8058752711233090e+00
-4.8318822572508404e+00 4.8318822572508404e+00
-1.0000000000000001e-01 1.0000000000000001e-01
ITEM: ATOMS id type xs ys zs
9 1 0.402817 0.0954316 0.499514
72 1 0.507411 0.110422 0.499699
47 1 0.593714 0.0752269 0.498817
69 1 0.673912 0.0638385 0.503847
73 1 0.744494 0.0857651 0.500245
3 1 0.836169 0.0330281 0.503127
61 1 0.411096 0.183321 0.49918
70 1 0.56332 0.154311 0.500013
54 1 0.484638 0.179224 0.502212
14 1 0.669447 0.168045 0.499807
38 1 0.797994 0.164411 0.502887
11 1 0.944725 0.152062 0.501806
40 1 0.402062 0.259725 0.501637
46 1 0.5655 0.222476 0.501786
45 1 0.62549 0.291704 0.502296
25 1 0.75505 0.28769 0.502025
39 1 0.87016 0.274609 0.499566
44 1 0.426282 0.373514 0.499002
48 1 0.328446 0.441216 0.495887
27 1 0.519448 0.320773 0.499768
50 1 0.424194 0.465123 0.5
76 1 0.477963 0.413076 0.502807
30 1 0.670735 0.389689 0.502905
8 1 0.816377 0.413847 0.501896
2 1 0.966149 0.354506 0.498405
59 1 0.015177 0.475501 0.498936
7 1 0.227169 0.513503 0.500689
12 1 0.512097 0.533075 0.498483
43 1 0.617893 0.473897 0.500872
1 1 0.727768 0.530564 0.499417
58 1 0.98676 0.566637 0.498226
21 1 0.0998617 0.538684 0.498794
56 1 0.292994 0.627572 0.497428
22 1 0.370011 0.551575 0.502471
60 1 0.625182 0.59719 0.503161
67 1 0.764281 0.651786 0.501647
10 1 0.858968 0.586604 0.498009
18 1 0.0527882 0.676722 0.498594
33 1 0.178815 0.644233 0.499211
49 1 0.358366 0.69871 0.497449
29 1 0.460508 0.657379 0.500552
37 1 0.568588 0.701197 0.500743
28 1 0.686053 0.681557 0.501833
79 1 0.75562 0.74397 0.499074
55 1 0.823103 0.70732 0.497799
26 1 0.935751 0.713557 0.499866
13 1 0.261463 0.752325 0.497174
19 1 0.837135 0.820178 0.502734
17 1 0.636468 0.962519 0.499817
65 1 0.725486 0.0137892 0.501629
ITEM: TIMESTEP
1250
ITEM: NUMBER OF ATOMS
50
ITEM: BOX BOUNDS pp pp pp
-4.8046728560048306e+00 4.8046728560048306e+00
-4.8307104183115310e+00 4.8307104183115310e+00
-1.0000000000000001e-01 1.0000000000000001e-01
ITEM: ATOMS id type xs ys zs
9 1 0.402763 0.094638 0.498535
72 1 0.507295 0.110531 0.498378
47 1 0.593235 0.074623 0.499093
69 1 0.673089 0.0637599 0.504421
73 1 0.744653 0.0860628 0.500927
3 1 0.836108 0.0330262 0.501721
61 1 0.410678 0.183113 0.500348
70 1 0.562972 0.154038 0.502198
54 1 0.484043 0.178786 0.500811
14 1 0.66923 0.168236 0.500166
38 1 0.798078 0.164757 0.501522
11 1 0.944535 0.151541 0.500999
40 1 0.40133 0.25918 0.500392
46 1 0.565286 0.222202 0.502807
45 1 0.625619 0.291239 0.502556
25 1 0.755402 0.28775 0.502339
39 1 0.870164 0.274864 0.498515
44 1 0.4268 0.372998 0.499071
48 1 0.329135 0.440453 0.494711
27 1 0.519104 0.320012 0.500203
50 1 0.424675 0.464625 0.500353
76 1 0.47856 0.413082 0.503989
30 1 0.670927 0.389732 0.503753
8 1 0.815586 0.414452 0.502545
2 1 0.965249 0.354565 0.499572
59 1 0.016643 0.474834 0.499468
7 1 0.227868 0.514058 0.501449
12 1 0.512698 0.531896 0.500747
43 1 0.61805 0.473626 0.502544
1 1 0.728026 0.53174 0.497596
58 1 0.987182 0.566175 0.49778
21 1 0.100156 0.538954 0.498836
56 1 0.293513 0.627296 0.497957
22 1 0.3702 0.551195 0.502157
60 1 0.624846 0.597804 0.502082
67 1 0.764728 0.651024 0.50054
10 1 0.859602 0.586038 0.498596
18 1 0.0524255 0.676224 0.497076
33 1 0.179478 0.644275 0.499246
49 1 0.358745 0.699338 0.496014
29 1 0.460635 0.656806 0.50005
37 1 0.568948 0.701868 0.500849
28 1 0.686154 0.681985 0.503466
79 1 0.755929 0.743577 0.499574
55 1 0.823382 0.70674 0.499045
26 1 0.93581 0.713405 0.499701
13 1 0.262368 0.752291 0.496895
19 1 0.838553 0.819541 0.503791
17 1 0.637426 0.961817 0.497581
65 1 0.725758 0.0146328 0.501469
ITEM: TIMESTEP
1500
ITEM: NUMBER OF ATOMS
50
ITEM: BOX BOUNDS pp pp pp
-4.8034704408863513e+00 4.8034704408863513e+00
-4.8339279651401048e+00 4.8339279651401048e+00
-1.0000000000000001e-01 1.0000000000000001e-01
ITEM: ATOMS id type xs ys zs
9 1 0.401944 0.0959564 0.498709
72 1 0.506702 0.111208 0.497311
47 1 0.59249 0.0747767 0.499955
69 1 0.672371 0.063479 0.5053
73 1 0.744098 0.0851772 0.500597
3 1 0.836373 0.0324547 0.502127
61 1 0.410528 0.184302 0.500935
70 1 0.562995 0.154347 0.501188
54 1 0.483979 0.179574 0.500412
14 1 0.669089 0.16775 0.497795
38 1 0.797507 0.164174 0.500967
11 1 0.944762 0.151796 0.501762
40 1 0.400729 0.260189 0.502321
46 1 0.566068 0.222438 0.503085
45 1 0.625735 0.291364 0.502874
25 1 0.755503 0.287172 0.502278
39 1 0.870189 0.274362 0.49844
44 1 0.426663 0.373459 0.500038
48 1 0.328096 0.441227 0.493789
27 1 0.519006 0.31995 0.499294
50 1 0.423988 0.464482 0.499926
76 1 0.47845 0.413016 0.504223
30 1 0.670891 0.388945 0.503954
8 1 0.815201 0.414304 0.50385
2 1 0.964936 0.354601 0.500195
59 1 0.016634 0.475029 0.499125
7 1 0.22732 0.51519 0.501746
12 1 0.512135 0.531808 0.500405
43 1 0.618632 0.473292 0.505588
1 1 0.727489 0.53234 0.497446
58 1 0.986839 0.565894 0.499714
21 1 0.100325 0.539439 0.498573
56 1 0.293036 0.627606 0.496917
22 1 0.370322 0.551841 0.502971
60 1 0.623716 0.596829 0.50092
67 1 0.765185 0.650637 0.501325
10 1 0.85939 0.585474 0.499958
18 1 0.052261 0.676443 0.498673
33 1 0.179159 0.645902 0.499165
49 1 0.358419 0.698742 0.497569
29 1 0.460907 0.65702 0.498505
37 1 0.569749 0.701815 0.50249
28 1 0.686859 0.680247 0.503493
79 1 0.755577 0.742435 0.499697
55 1 0.823629 0.70609 0.498578
26 1 0.935529 0.712737 0.498928
13 1 0.262955 0.75323 0.496079
19 1 0.838307 0.818758 0.502883
17 1 0.636833 0.962157 0.496691
65 1 0.725318 0.0144808 0.501324
ITEM: TIMESTEP
1750
ITEM: NUMBER OF ATOMS
50
ITEM: BOX BOUNDS pp pp pp
-4.8022680257678720e+00 4.8022680257678720e+00
-4.8408157354298504e+00 4.8408157354298504e+00
-1.0000000000000001e-01 1.0000000000000001e-01
ITEM: ATOMS id type xs ys zs
9 1 0.402149 0.0955018 0.498836
72 1 0.506262 0.111587 0.495809
47 1 0.592444 0.0753934 0.500183
69 1 0.672186 0.0633866 0.506118
73 1 0.743794 0.085418 0.499431
3 1 0.834991 0.0318483 0.50206
61 1 0.410266 0.183797 0.50095
70 1 0.562443 0.154431 0.503305
54 1 0.483939 0.180238 0.499526
14 1 0.668471 0.167748 0.500032
38 1 0.797191 0.163799 0.50226
11 1 0.943023 0.151245 0.503089
40 1 0.401239 0.25974 0.501729
46 1 0.565124 0.222439 0.501854
45 1 0.625261 0.291821 0.501549
25 1 0.754464 0.286341 0.502718
39 1 0.868776 0.274132 0.49711
44 1 0.426118 0.373468 0.500914
48 1 0.327384 0.441465 0.494842
27 1 0.518761 0.320453 0.497795
50 1 0.423344 0.46462 0.501107
76 1 0.477221 0.413171 0.505304
30 1 0.670637 0.38893 0.504507
8 1 0.814614 0.413431 0.504527
2 1 0.963959 0.354507 0.499787
59 1 0.0164001 0.474422 0.499696
7 1 0.227084 0.515592 0.501758
12 1 0.512433 0.53093 0.499052
43 1 0.619025 0.473705 0.508809
1 1 0.728312 0.531464 0.498812
58 1 0.987292 0.565601 0.499922
21 1 0.100552 0.53862 0.498292
56 1 0.294161 0.628687 0.497716
22 1 0.370139 0.551945 0.505188
60 1 0.624756 0.596959 0.501297
67 1 0.764989 0.650516 0.501431
10 1 0.859521 0.584926 0.500784
18 1 0.0525096 0.675969 0.498607
33 1 0.180124 0.645309 0.49907
49 1 0.359647 0.699917 0.497443
29 1 0.461423 0.656254 0.498277
37 1 0.569436 0.700625 0.50438
28 1 0.686948 0.680668 0.504531
79 1 0.756364 0.74202 0.498843
55 1 0.823975 0.705727 0.499926
26 1 0.935887 0.711428 0.498327
13 1 0.263018 0.752627 0.49695
19 1 0.838464 0.818641 0.503314
17 1 0.634481 0.962237 0.496524
65 1 0.724063 0.0137155 0.49902
ITEM: TIMESTEP
2000
ITEM: NUMBER OF ATOMS
50
ITEM: BOX BOUNDS pp pp pp
-4.8010656106493927e+00 4.8010656106493927e+00
-4.8282904194805436e+00 4.8282904194805436e+00
-1.0000000000000001e-01 1.0000000000000001e-01
ITEM: ATOMS id type xs ys zs
9 1 0.402074 0.0948464 0.499933
72 1 0.506567 0.111206 0.497724
47 1 0.592037 0.0744229 0.500586
69 1 0.672017 0.0635539 0.506596
73 1 0.743298 0.0847128 0.499429
3 1 0.83485 0.0315745 0.501918
61 1 0.409356 0.183716 0.500605
70 1 0.562162 0.154275 0.503722
54 1 0.483062 0.179666 0.500216
14 1 0.668276 0.167696 0.502444
38 1 0.79723 0.163968 0.500932
11 1 0.943446 0.151458 0.502363
40 1 0.399525 0.259854 0.499088
46 1 0.564828 0.222535 0.500693
45 1 0.625202 0.291346 0.501691
25 1 0.754372 0.287226 0.501395
39 1 0.869237 0.275014 0.498408
44 1 0.425518 0.373596 0.501225
48 1 0.328524 0.441271 0.495818
27 1 0.518092 0.319681 0.499598
50 1 0.424139 0.465156 0.500712
76 1 0.477427 0.413183 0.505564
30 1 0.669446 0.389132 0.504382
8 1 0.813908 0.414294 0.50337
2 1 0.964079 0.355898 0.498907
59 1 0.0174272 0.474943 0.499898
7 1 0.227562 0.515659 0.500085
12 1 0.512379 0.531609 0.499255
43 1 0.618376 0.474473 0.508423
1 1 0.72752 0.53223 0.49844
58 1 0.987449 0.565868 0.501928
21 1 0.100778 0.539633 0.498843
56 1 0.293968 0.62898 0.497203
22 1 0.370207 0.55242 0.505971
60 1 0.624355 0.596834 0.502811
67 1 0.765597 0.651136 0.502261
10 1 0.859674 0.58477 0.501856
18 1 0.052774 0.676516 0.499465
33 1 0.179805 0.64588 0.49811
49 1 0.359525 0.700233 0.49743
29 1 0.461824 0.657053 0.497221
37 1 0.570104 0.701852 0.504107
28 1 0.686877 0.680643 0.503867
79 1 0.756224 0.742611 0.497633
55 1 0.824058 0.705964 0.498143
26 1 0.936027 0.711936 0.497399
13 1 0.263182 0.753953 0.498135
19 1 0.839361 0.818919 0.502928
17 1 0.635497 0.961553 0.496129
65 1 0.724339 0.0139647 0.499081
ITEM: TIMESTEP
2250
ITEM: NUMBER OF ATOMS
50
ITEM: BOX BOUNDS pp pp pp
-4.7998631955309143e+00 4.7998631955309143e+00
-4.8315331390852352e+00 4.8315331390852352e+00
-1.0000000000000001e-01 1.0000000000000001e-01
ITEM: ATOMS id type xs ys zs
9 1 0.401847 0.094607 0.49983
72 1 0.506144 0.110841 0.497656
47 1 0.591864 0.0748844 0.500239
69 1 0.67155 0.0636696 0.506566
73 1 0.743134 0.0850865 0.501415
3 1 0.834738 0.0314219 0.500991
61 1 0.409727 0.183033 0.501782
70 1 0.562007 0.154123 0.50432
54 1 0.483344 0.179322 0.501065
14 1 0.668098 0.168496 0.504184
38 1 0.79702 0.16376 0.500432
11 1 0.943225 0.150254 0.503621
40 1 0.40086 0.259422 0.500285
46 1 0.564643 0.222517 0.499966
45 1 0.624537 0.291621 0.500978
25 1 0.755108 0.287136 0.5013
39 1 0.869526 0.274365 0.498961
44 1 0.425581 0.373799 0.502243
48 1 0.32807 0.440969 0.496593
27 1 0.518255 0.320584 0.499251
50 1 0.423972 0.464878 0.500525
76 1 0.477711 0.413347 0.504849
30 1 0.670241 0.389319 0.503963
8 1 0.814615 0.413855 0.503772
2 1 0.964637 0.354761 0.500696
59 1 0.0170041 0.474605 0.497489
7 1 0.228009 0.515911 0.500242
12 1 0.512808 0.532211 0.497393
43 1 0.618941 0.473773 0.508905
1 1 0.727556 0.532736 0.498274
58 1 0.987781 0.565782 0.500673
21 1 0.100913 0.53886 0.496746
56 1 0.294859 0.628908 0.496375
22 1 0.370716 0.551519 0.505051
60 1 0.624216 0.598999 0.503357
67 1 0.764568 0.65073 0.501522
10 1 0.85996 0.584806 0.5014
18 1 0.0534114 0.675777 0.498817
33 1 0.180206 0.645384 0.499059
49 1 0.360488 0.699904 0.496794
29 1 0.462343 0.657495 0.497644
37 1 0.569835 0.703401 0.504421
28 1 0.687127 0.682236 0.502894
79 1 0.756771 0.743038 0.498171
55 1 0.823968 0.70565 0.497868
26 1 0.936242 0.711634 0.497221
13 1 0.264341 0.753633 0.496481
19 1 0.839826 0.818658 0.502489
17 1 0.634861 0.962085 0.494265
65 1 0.723718 0.0142511 0.497693
ITEM: TIMESTEP
2500
ITEM: NUMBER OF ATOMS
50
ITEM: BOX BOUNDS pp pp pp
-4.7986607804124350e+00 4.7986607804124350e+00
-4.8248931126097512e+00 4.8248931126097512e+00
-1.0000000000000001e-01 1.0000000000000001e-01
ITEM: ATOMS id type xs ys zs
9 1 0.401339 0.095684 0.498806
72 1 0.505536 0.110883 0.496364
47 1 0.591361 0.0744055 0.499853
69 1 0.671755 0.0631944 0.503687
73 1 0.743683 0.0850696 0.500679
3 1 0.835479 0.0321447 0.502688
61 1 0.409269 0.183977 0.502036
70 1 0.561481 0.153808 0.505214
54 1 0.483002 0.179731 0.501523
14 1 0.667873 0.167625 0.503362
38 1 0.796738 0.163932 0.500599
11 1 0.943428 0.15057 0.502623
40 1 0.39923 0.259778 0.500295
46 1 0.564403 0.222094 0.499638
45 1 0.624059 0.291826 0.501965
25 1 0.753725 0.287221 0.499939
39 1 0.869107 0.274596 0.498914
44 1 0.425545 0.373641 0.502358
48 1 0.327842 0.440739 0.495697
27 1 0.517374 0.319385 0.49882
50 1 0.423897 0.465266 0.499861
76 1 0.477898 0.412961 0.504249
30 1 0.669418 0.389669 0.504094
8 1 0.814129 0.414353 0.504952
2 1 0.964593 0.356023 0.499902
59 1 0.0172513 0.475449 0.496782
7 1 0.22741 0.515212 0.499433
12 1 0.512473 0.531932 0.499167
43 1 0.618287 0.47494 0.507814
1 1 0.726862 0.533201 0.496681
58 1 0.987357 0.566497 0.499089
21 1 0.100688 0.540029 0.495783
56 1 0.293799 0.628697 0.49617
22 1 0.370054 0.551817 0.504907
60 1 0.623752 0.598544 0.500823
67 1 0.764922 0.649981 0.503099
10 1 0.859503 0.584385 0.500239
18 1 0.0530627 0.676871 0.498645
33 1 0.179734 0.646131 0.500732
49 1 0.359758 0.699238 0.497449
29 1 0.462136 0.65805 0.497865
37 1 0.570057 0.703574 0.504559
28 1 0.687926 0.681467 0.503247
79 1 0.756725 0.744575 0.499788
55 1 0.823342 0.705556 0.498788
26 1 0.935736 0.711633 0.497931
13 1 0.26408 0.754072 0.495772
19 1 0.840547 0.818448 0.503113
17 1 0.63519 0.961779 0.493991
65 1 0.724189 0.0137831 0.497134
ITEM: TIMESTEP
2750
ITEM: NUMBER OF ATOMS
50
ITEM: BOX BOUNDS pp pp pp
-4.7974583652939558e+00 4.7974583652939558e+00
-4.8207142056087013e+00 4.8207142056087013e+00
-1.0000000000000001e-01 1.0000000000000001e-01
ITEM: ATOMS id type xs ys zs
9 1 0.400669 0.0946738 0.496905
72 1 0.505426 0.110257 0.494547
47 1 0.59133 0.0734987 0.500305
69 1 0.671242 0.0626958 0.504844
73 1 0.743983 0.0850479 0.501115
3 1 0.835721 0.0311893 0.50268
61 1 0.408889 0.183265 0.500951
70 1 0.561409 0.153301 0.506523
54 1 0.482566 0.17899 0.501475
14 1 0.668068 0.166999 0.503347
38 1 0.797379 0.163695 0.498435
11 1 0.944132 0.150475 0.502172
40 1 0.39939 0.258957 0.500438
46 1 0.564363 0.221596 0.501772
45 1 0.624296 0.290431 0.501197
25 1 0.754448 0.286248 0.501219
39 1 0.869085 0.274592 0.498748
44 1 0.425663 0.373207 0.503459
48 1 0.327552 0.441056 0.49737
27 1 0.517492 0.318805 0.499889
50 1 0.424115 0.464487 0.501136
76 1 0.477954 0.412185 0.504189
30 1 0.669208 0.388159 0.501889
8 1 0.813342 0.41363 0.50571
2 1 0.96466 0.355188 0.498836
59 1 0.0156658 0.475815 0.495928
7 1 0.227135 0.51526 0.499301
12 1 0.512398 0.531282 0.498733
43 1 0.6185 0.472861 0.506471
1 1 0.726855 0.532159 0.49572
58 1 0.987135 0.567265 0.497609
21 1 0.100394 0.540149 0.496864
56 1 0.294697 0.628395 0.496759
22 1 0.370637 0.55154 0.502691
60 1 0.624211 0.598596 0.499522
67 1 0.764574 0.650628 0.504979
10 1 0.858315 0.584285 0.499237
18 1 0.0535248 0.677248 0.496675
33 1 0.180174 0.646231 0.500886
49 1 0.35978 0.699672 0.497996
29 1 0.461893 0.657708 0.496679
37 1 0.56971 0.704223 0.50561
28 1 0.68694 0.681697 0.503927
79 1 0.756464 0.744036 0.499743
55 1 0.823513 0.706363 0.498661
26 1 0.935812 0.710891 0.499253
13 1 0.264272 0.754424 0.496505
19 1 0.840533 0.818982 0.505019
17 1 0.635971 0.960988 0.49253
65 1 0.724862 0.0136121 0.498839
ITEM: TIMESTEP
3000
ITEM: NUMBER OF ATOMS
50
ITEM: BOX BOUNDS pp pp pp
-4.7962559501754765e+00 4.7962559501754765e+00
-4.8292362268438112e+00 4.8292362268438112e+00
-1.0000000000000001e-01 1.0000000000000001e-01
ITEM: ATOMS id type xs ys zs
9 1 0.399388 0.0956274 0.498144
72 1 0.504375 0.109869 0.495028
47 1 0.591943 0.0737706 0.502375
69 1 0.671689 0.0631859 0.504899
73 1 0.743366 0.0844421 0.502009
3 1 0.835529 0.0313412 0.503355
61 1 0.408473 0.183884 0.499107
70 1 0.560906 0.152713 0.505423
54 1 0.482127 0.178944 0.503317
14 1 0.667981 0.167073 0.501898
38 1 0.797079 0.163554 0.499845
11 1 0.943533 0.151077 0.503297
40 1 0.399753 0.260006 0.500707
46 1 0.563883 0.220994 0.500805
45 1 0.623753 0.290045 0.503163
25 1 0.754727 0.28615 0.500925
39 1 0.869954 0.274154 0.499454
44 1 0.424889 0.37316 0.503059
48 1 0.32814 0.441459 0.497106
27 1 0.517781 0.319515 0.498221
50 1 0.424304 0.464764 0.502678
76 1 0.477254 0.412002 0.505227
30 1 0.669814 0.387243 0.501983
8 1 0.813763 0.413294 0.506469
2 1 0.964531 0.355791 0.498954
59 1 0.0145659 0.476763 0.497399
7 1 0.227162 0.514981 0.499627
12 1 0.512928 0.531778 0.499256
43 1 0.617802 0.472146 0.50729
1 1 0.726624 0.530926 0.495485
58 1 0.986297 0.568049 0.498438
21 1 0.099514 0.539686 0.496565
56 1 0.293757 0.627066 0.495987
22 1 0.370552 0.551541 0.500233
60 1 0.624741 0.598935 0.5019
67 1 0.764471 0.650634 0.502673
10 1 0.858111 0.5844 0.499516
18 1 0.0531024 0.678144 0.495796
33 1 0.179707 0.645302 0.499245
49 1 0.359539 0.697789 0.4984
29 1 0.462677 0.657396 0.495676
37 1 0.570118 0.703855 0.505055
28 1 0.686967 0.682402 0.502721
79 1 0.756333 0.744064 0.500595
55 1 0.823358 0.705965 0.499238
26 1 0.935124 0.710542 0.498594
13 1 0.263259 0.752064 0.49693
19 1 0.840038 0.818924 0.507556
17 1 0.636284 0.961369 0.491967
65 1 0.724842 0.0142564 0.49821
ITEM: TIMESTEP
3250
ITEM: NUMBER OF ATOMS
50
ITEM: BOX BOUNDS pp pp pp
-4.7950535350569972e+00 4.7950535350569972e+00
-4.8257903393450858e+00 4.8257903393450858e+00
-1.0000000000000001e-01 1.0000000000000001e-01
ITEM: ATOMS id type xs ys zs
9 1 0.399117 0.0959649 0.500849
72 1 0.5039 0.110465 0.493
47 1 0.590658 0.073066 0.502802
69 1 0.670795 0.0622785 0.505349
73 1 0.742839 0.0840259 0.500194
3 1 0.834423 0.0309083 0.503105
61 1 0.407642 0.184219 0.496465
70 1 0.560391 0.152723 0.505002
54 1 0.481444 0.179538 0.503761
14 1 0.667274 0.166453 0.501541
38 1 0.796669 0.163086 0.499397
11 1 0.943197 0.149752 0.503478
40 1 0.398351 0.260009 0.500791
46 1 0.563795 0.221038 0.502618
45 1 0.623953 0.290221 0.50236
25 1 0.753935 0.285325 0.497954
39 1 0.869286 0.273814 0.499855
44 1 0.424788 0.373643 0.501978
48 1 0.32786 0.440899 0.495615
27 1 0.517411 0.318773 0.498025
50 1 0.424267 0.46467 0.499669
76 1 0.477763 0.412214 0.503615
30 1 0.669825 0.387408 0.502137
8 1 0.813693 0.413417 0.507888
2 1 0.963985 0.355731 0.499258
59 1 0.0146864 0.476994 0.497066
7 1 0.226241 0.514453 0.49944
12 1 0.512687 0.531658 0.499969
43 1 0.618282 0.472402 0.506062
1 1 0.726541 0.530999 0.495685
58 1 0.986321 0.568177 0.497923
21 1 0.0995096 0.540214 0.497624
56 1 0.293643 0.627195 0.496176
22 1 0.369897 0.551065 0.501007
60 1 0.624001 0.598219 0.502658
67 1 0.764638 0.650522 0.503457
10 1 0.858312 0.584177 0.498804
18 1 0.0535834 0.677926 0.494356
33 1 0.18012 0.645344 0.498157
49 1 0.358889 0.698311 0.496305
29 1 0.461525 0.657325 0.494583
37 1 0.56958 0.703727 0.506756
28 1 0.686766 0.681774 0.50242
79 1 0.756416 0.743104 0.501794
55 1 0.82383 0.70552 0.500621
26 1 0.935225 0.710319 0.498037
13 1 0.264143 0.753007 0.497388
19 1 0.840054 0.818811 0.507193
17 1 0.635149 0.960706 0.490844
65 1 0.723594 0.0137951 0.498533
ITEM: TIMESTEP
3500
ITEM: NUMBER OF ATOMS
50
ITEM: BOX BOUNDS pp pp pp
-4.7938511199385188e+00 4.7938511199385188e+00
-4.8286654314513253e+00 4.8286654314513253e+00
-1.0000000000000001e-01 1.0000000000000001e-01
ITEM: ATOMS id type xs ys zs
9 1 0.399387 0.0939344 0.499308
72 1 0.50395 0.110144 0.49337
47 1 0.591238 0.0736417 0.504186
69 1 0.670917 0.0624549 0.505665
73 1 0.743006 0.0840852 0.500473
3 1 0.835187 0.0310619 0.504315
61 1 0.407525 0.182344 0.496907
70 1 0.560235 0.152864 0.502716
54 1 0.481344 0.178553 0.503639
14 1 0.667555 0.166596 0.501778
38 1 0.79661 0.163184 0.498661
11 1 0.943192 0.150942 0.503712
40 1 0.398378 0.258977 0.502362
46 1 0.563684 0.221081 0.502521
45 1 0.623795 0.289672 0.502973
25 1 0.753505 0.285634 0.498066
39 1 0.868548 0.274424 0.502855
44 1 0.425315 0.372811 0.502119
48 1 0.327078 0.440934 0.496181
27 1 0.517245 0.319049 0.498299
50 1 0.423425 0.464213 0.499996
76 1 0.477376 0.41247 0.504226
30 1 0.668106 0.387297 0.503139
8 1 0.811568 0.413287 0.509405
2 1 0.962746 0.356397 0.49755
59 1 0.0137691 0.47692 0.496927
7 1 0.226145 0.514648 0.497672
12 1 0.51218 0.531179 0.500138
43 1 0.617363 0.471987 0.505433
1 1 0.725799 0.532234 0.49745
58 1 0.986196 0.568564 0.497412
21 1 0.0988971 0.540028 0.497462
56 1 0.293125 0.626996 0.495127
22 1 0.370154 0.551591 0.503194
60 1 0.623182 0.599845 0.503149
67 1 0.763516 0.650341 0.500838
10 1 0.857701 0.584351 0.497704
18 1 0.0526589 0.678722 0.493081
33 1 0.179083 0.645325 0.499986
49 1 0.360046 0.697658 0.496182
29 1 0.462685 0.656972 0.493706
37 1 0.569381 0.705313 0.504311
28 1 0.686431 0.682684 0.501018
79 1 0.755867 0.744264 0.504587
55 1 0.822425 0.705836 0.499242
26 1 0.934563 0.710403 0.499241
13 1 0.264081 0.752289 0.49861
19 1 0.83994 0.819141 0.50727
17 1 0.634911 0.961052 0.490465
65 1 0.72409 0.0130708 0.497838
ITEM: TIMESTEP
3750
ITEM: NUMBER OF ATOMS
50
ITEM: BOX BOUNDS pp pp pp
-4.7926487048200395e+00 4.7926487048200395e+00
-4.8390164233174975e+00 4.8390164233174975e+00
-1.0000000000000001e-01 1.0000000000000001e-01
ITEM: ATOMS id type xs ys zs
9 1 0.398986 0.0948699 0.499902
72 1 0.504025 0.110367 0.494293
47 1 0.59095 0.0737931 0.504979
69 1 0.671162 0.0632405 0.50485
73 1 0.743186 0.0850522 0.502851
3 1 0.835737 0.0318985 0.50409
61 1 0.407449 0.183201 0.497674
70 1 0.560275 0.153212 0.502172
54 1 0.481018 0.178622 0.5041
14 1 0.667348 0.166752 0.502455
38 1 0.796327 0.163883 0.499591
11 1 0.942696 0.151151 0.502721
40 1 0.398346 0.259025 0.501449
46 1 0.563072 0.221228 0.501888
45 1 0.623668 0.289742 0.502251
25 1 0.7535 0.286895 0.499493
39 1 0.868379 0.274907 0.50206
44 1 0.424787 0.372487 0.50167
48 1 0.327852 0.441529 0.494129
27 1 0.517059 0.318899 0.499414
50 1 0.423557 0.464359 0.500883
76 1 0.476858 0.412006 0.503991
30 1 0.667513 0.387874 0.503205
8 1 0.811896 0.414074 0.510991
2 1 0.962348 0.357087 0.495573
59 1 0.0143333 0.477123 0.495414
7 1 0.22631 0.513874 0.498172
12 1 0.511664 0.532473 0.500783
43 1 0.615943 0.472276 0.504155
1 1 0.724783 0.532562 0.495664
58 1 0.986007 0.568147 0.498036
21 1 0.0991786 0.539975 0.49779
56 1 0.292655 0.627392 0.495959
22 1 0.36978 0.551769 0.505239
60 1 0.622958 0.599964 0.502524
67 1 0.763063 0.650645 0.502166
10 1 0.857175 0.584342 0.498593
18 1 0.0527157 0.677338 0.492263
33 1 0.178929 0.645434 0.501397
49 1 0.358434 0.698206 0.496246
29 1 0.461553 0.657662 0.493516
37 1 0.568752 0.704993 0.503114
28 1 0.685865 0.683278 0.50104
79 1 0.755479 0.744464 0.505225
55 1 0.822162 0.705957 0.499575
26 1 0.93486 0.710481 0.498851
13 1 0.262963 0.753043 0.499275
19 1 0.840207 0.818796 0.506428
17 1 0.635477 0.961884 0.489763
65 1 0.724131 0.0145183 0.497593
ITEM: TIMESTEP
4000
ITEM: NUMBER OF ATOMS
50
ITEM: BOX BOUNDS pp pp pp
-4.7914462897015602e+00 4.7914462897015602e+00
-4.8489612465667626e+00 4.8489612465667626e+00
-1.0000000000000001e-01 1.0000000000000001e-01
ITEM: ATOMS id type xs ys zs
9 1 0.39952 0.0944229 0.499179
72 1 0.504868 0.109626 0.494872
47 1 0.591643 0.0737401 0.504304
69 1 0.671907 0.0629632 0.505594
73 1 0.744357 0.0852873 0.500578
3 1 0.836464 0.0326142 0.504072
61 1 0.408132 0.182667 0.498475
70 1 0.560957 0.152797 0.502101
54 1 0.481805 0.177972 0.504897
14 1 0.667714 0.167003 0.500938
38 1 0.797366 0.16405 0.499516
11 1 0.943655 0.151998 0.503434
40 1 0.399206 0.25859 0.501714
46 1 0.563539 0.220636 0.500715
45 1 0.623567 0.289554 0.501567
25 1 0.753577 0.286267 0.497978
39 1 0.868724 0.275089 0.502234
44 1 0.424321 0.372329 0.500243
48 1 0.326617 0.440707 0.493705
27 1 0.517486 0.319086 0.499527
50 1 0.423566 0.463619 0.501701
76 1 0.476646 0.411548 0.505559
30 1 0.66774 0.387029 0.505148
8 1 0.812154 0.413988 0.509768
2 1 0.962685 0.357312 0.49588
59 1 0.0135809 0.477023 0.494899
7 1 0.226185 0.514559 0.499282
12 1 0.512183 0.530892 0.500411
43 1 0.616936 0.471494 0.503739
1 1 0.724456 0.532568 0.49444
58 1 0.985992 0.568401 0.499238
21 1 0.098957 0.539502 0.498733
56 1 0.293191 0.627013 0.49732
22 1 0.369831 0.550665 0.503128
60 1 0.622819 0.599794 0.503794
67 1 0.763459 0.65111 0.502825
10 1 0.857118 0.584676 0.501017
18 1 0.0529771 0.677256 0.492052
33 1 0.17945 0.644671 0.500176
49 1 0.358744 0.698628 0.495541
29 1 0.461505 0.656664 0.494971
37 1 0.568423 0.703912 0.501749
28 1 0.685951 0.682227 0.502626
79 1 0.755814 0.743777 0.50572
55 1 0.822626 0.70576 0.498784
26 1 0.935147 0.710599 0.499332
13 1 0.262256 0.751764 0.498569
19 1 0.840191 0.817931 0.506679
17 1 0.635706 0.961836 0.488302
65 1 0.725024 0.0141678 0.495865
ITEM: TIMESTEP
4250
ITEM: NUMBER OF ATOMS
50
ITEM: BOX BOUNDS pp pp pp
-4.7902438745830818e+00 4.7902438745830818e+00
-4.8477770593205518e+00 4.8477770593205518e+00
-1.0000000000000001e-01 1.0000000000000001e-01
ITEM: ATOMS id type xs ys zs
9 1 0.400252 0.094937 0.498404
72 1 0.504801 0.110225 0.496391
47 1 0.590971 0.0734968 0.504628
69 1 0.671354 0.0636262 0.507904
73 1 0.743841 0.0845599 0.501404
3 1 0.836409 0.0330786 0.504557
61 1 0.408634 0.182719 0.499425
70 1 0.561447 0.152801 0.502605
54 1 0.482204 0.178519 0.504133
14 1 0.667535 0.166706 0.500644
38 1 0.797192 0.164128 0.499423
11 1 0.944091 0.151883 0.50429
40 1 0.399209 0.25883 0.50243
46 1 0.563836 0.220952 0.500927
45 1 0.623657 0.290137 0.503044
25 1 0.753598 0.286598 0.497494