LAMMPS (23 Jun 2022 - Update 4)
  using 1 OpenMP thread(s) per MPI task
# Compute elastic constant tensor for a crystal
#
# Written by Aidan Thompson (Sandia, athomps@sandia.gov)
#
#  This script uses the following three include files.
#
#   init.mod      (must be modified for different crystal structures)
# 	       	  Define units, deformation parameters and initial
#		  configuration of the atoms and simulation cell.
#
#
#   potential.mod    (must be modified for different pair styles)
# 		     Define pair style and other attributes
#		     not stored in restart file
#
#
#   displace.mod    (displace.mod should not need to be modified)
# 		    Perform positive and negative box displacements
# 		    in direction ${dir} and size ${up}.
# 		    It uses the resultant changes
#		    in stress to compute one
# 		    row of the elastic stiffness tensor
#
#		    Inputs variables:
#		    	   dir = the Voigt deformation component
#		    		    (1,2,3,4,5,6)
#		    Global constants:
#       	    	   up = the deformation magnitude (strain units)
#       		   cfac = conversion from LAMMPS pressure units to
#               	   output units for elastic constants
#
#
#  To run this on a different system, it should only be necessary to
#  modify the files init.mod and potential.mod. In order to calculate
#  the elastic constants correctly, care must be taken to specify
#  the correct units in init.mod (units, cfac and cunits). It is also
#  important to verify that the minimization of energy w.r.t atom
#  positions in the deformed cell is fully converged.
#  One indication of this is that the elastic constants are insensitive
#  to the choice of the variable ${up} in init.mod. Another is to check
#  the final max and two-norm forces reported in the log file. If you know
#  that minimization is not required, you can set maxiter = 0.0 in
#  init.mod.
#



variable dt equal 0.01
variable strain equal 0.05
variable srate equal 1e-4
variable M equal 1000 # averaging time for properties
variable strainsteps equal ${strain}/${dt}/${srate}
variable strainsteps equal 0.05/${dt}/${srate}
variable strainsteps equal 0.05/0.01/${srate}
variable strainsteps equal 0.05/0.01/0.0001


dimension 2
include init.mod
# NOTE: This script can be modified for different atomic structures,
# units, etc. See in.elastic for more info.
#

# Define the finite deformation size. Try several values of this
# variable to verify that results do not depend on it.
variable up equal 1.0e-1

# Define the amount of random jiggle for atoms
# This prevents atoms from staying on saddle points
variable atomjiggle equal 1.0e-6

# Uncomment one of these blocks, depending on what units
# you are using in LAMMPS and for output

# metal units, elastic constants in eV/A^3
#units		metal
#variable cfac equal 6.2414e-7
#variable cunits string eV/A^3

# Choose potential
# metal units, elastic constants in GPa
units		metal
atom_style	full
#pair_style      lj/cut 1.0
#pair_style      yukawa 1.0 2.0
#pair_modify     mix arithmetic
bond_style      harmonic
angle_style     harmonic
dihedral_style  zero
special_bonds   amber
variable cfac equal 1.0e-4
variable cunits string GPa
boundary	p p p

# Need to set mass to something, just to satisfy LAMMPS
#mass 1 1.0e-20
read_data network.lmp
Reading data file ...
  orthogonal box = (-4.80966 -4.80966 -0.1) to (4.80966 4.80966 0.1)
  1 by 1 by 1 MPI processor grid
WARNING: Atom style in data file differs from currently defined atom style (src/read_data.cpp:538)
  reading atoms ...
  50 atoms
WARNING: Bond style in data file differs from currently defined bond style (src/read_data.cpp:630)
  scanning bonds ...
  4 = max bonds/atom
  reading bonds ...
  110 bonds
Finding 1-2 1-3 1-4 neighbors ...
  special bond factors lj:    0        0        0.5     
  special bond factors coul:  0        0        0.8333333333333334
     8 = max # of 1-2 neighbors
    32 = max # of 1-3 neighbors
   171 = max # of 1-4 neighbors
    29 = max # of special neighbors
  special bonds CPU = 0.000 seconds
  read_data CPU = 0.003 seconds

# real units, elastic constants in GPa
#units		real
#variable cfac equal 1.01325e-4
#variable cunits string GPa

# Define minimization parameters
variable etol equal 0.0
variable ftol equal 5.0e-10
variable maxiter equal 100000
variable maxeval equal 20000
variable dmax equal 1.0e-2


include potential.mod
# NOTE: This script can be modified for different pair styles
# See in.elastic for more info.

# Setup neighbor style
neighbor 3.0 nsq
neigh_modify once no every 1 delay 0 check yes
comm_modify cutoff 2.0

# Setup minimization style
min_style	     cg
min_modify	     dmax ${dmax} line quadratic
min_modify	     dmax 0.01 line quadratic

timestep	0.001


# Setup output
thermo		500
thermo_style custom step temp pe ebond eangle edihed press pxx pyy pzz pxy pxz pyz lx ly lz vol
thermo_modify norm no


#change_box all triclinic
comm_modify mode single cutoff 10.0 vel yes
atom_modify sort 0 0



# Compute initial state

#dump rela all atom 1 traj_relax.lmpstrj
fix 3 all box/relax x 0 y 0 # xy 0  #MS comment: relax if the network is periodic
minimize ${etol} ${ftol} ${maxiter} ${maxeval}
minimize 0 ${ftol} ${maxiter} ${maxeval}
minimize 0 5e-10 ${maxiter} ${maxeval}
minimize 0 5e-10 100000 ${maxeval}
minimize 0 5e-10 100000 20000
Neighbor list info ...
  update every 1 steps, delay 0 steps, check yes
  max neighbors/atom: 2000, page size: 100000
  master list distance cutoff = 0
  ghost atom cutoff = 10
  0 neighbor lists, perpetual/occasional/extra = 0 0 0
WARNING: Inconsistent image flags (src/domain.cpp:819)
Per MPI rank memory allocation (min/avg/max) = 8.646 | 8.646 | 8.646 Mbytes
   Step          Temp          PotEng         E_bond        E_angle        E_dihed         Press           Pxx            Pyy            Pzz            Pxy            Pxz            Pyz             Lx             Ly             Lz           Volume    
         0   0              2.7256864e-11  2.7256864e-11  0              0             -0.15284097    -0.13994485    -0.16573709     0              0.10080395     0              0              9.61932        9.61932        0.2            92.531317    
       213   0              7.4695948e-14  7.4695948e-14  0              0              2.7365014e-07  3.3100623e-07  2.1629405e-07  0              3.0633198e-06  0              0              9.6193209      9.6193153      0.2            92.531281    
Loop time of 0.0116241 on 1 procs for 213 steps with 50 atoms

99.9% CPU use with 1 MPI tasks x 1 OpenMP threads

Minimization stats:
  Stopping criterion = force tolerance
  Energy initial, next-to-last, final = 
    2.72568643206744e-11 7.46959914992592e-14 7.46959481489984e-14
  Force two-norm initial, final = 2.0898664e-05 4.5641497e-10
  Force max component initial, final = 9.5718987e-06 1.3538938e-10
  Final line search alpha, max atom move = 1 1.3538938e-10
  Iterations, force evaluations = 213 426

MPI task timing breakdown:
Section |  min time  |  avg time  |  max time  |%varavg| %total
---------------------------------------------------------------
Pair    | 0          | 0          | 0          |   0.0 |  0.00
Bond    | 0.0015949  | 0.0015949  | 0.0015949  |   0.0 | 13.72
Neigh   | 0          | 0          | 0          |   0.0 |  0.00
Comm    | 0.0034286  | 0.0034286  | 0.0034286  |   0.0 | 29.50
Output  | 0          | 0          | 0          |   0.0 |  0.00
Modify  | 0          | 0          | 0          |   0.0 |  0.00
Other   |            | 0.006601   |            |       | 56.78

Nlocal:             50 ave          50 max          50 min
Histogram: 1 0 0 0 0 0 0 0 0 0
Nghost:            418 ave         418 max         418 min
Histogram: 1 0 0 0 0 0 0 0 0 0
Neighs:              0 ave           0 max           0 min
Histogram: 1 0 0 0 0 0 0 0 0 0

Total # of neighbors = 0
Ave neighs/atom = 0
Ave special neighs/atom = 20
Neighbor list builds = 0
Dangerous builds = 0
#dump rela all atom 1 traj_relax.lmpstrj
thermo 100
unfix 3

fix 2d all enforce2d



#dump dump0 all xyz 1000000 cfg0.xyz
#dump_modify dump0 format line "%d %20.10g %20.10g %20.10g"
#minimize ${etol} ${ftol} ${maxiter} ${maxeval}

#undump rela

#write_restart restart.equil

# These formulas define the derivatives w.r.t. strain components
# Constants uses $, variables use v_


timestep        ${dt}
timestep        0.01
variable nsteps equal round(${strainsteps})
variable nsteps equal round(50000)

fix             4 all nve
fix             5 all langevin 0.1 0.1 1 904297
#fix		6 all press/berendsen y  0.0 0.0 1 x 0.0 0.0 10
fix             6 all nph y 0.0 0.0 10 ptemp 0.1 # x 0.0 0.0 10

# For PLUMED2
# fix 22 all plumed plumedfile plumed.dat outfile plumed.out

#fix             6 all nph x 0.0 0.0 10
fix     	9 all deform 1 x erate -${srate} units box remap x
fix     	9 all deform 1 x erate -0.0001 units box remap x

#fix     8 all deform 1 xy erate ${srate} units box remap x



#fix    10 all ave/time

dump 1 all atom 250 deform_dump.lammpstrj


#To avoid flying ice cube phenomenon:
#fix 21 all momentum 100 linear 1 1 1 angular


run  ${nsteps}
run  50000
WARNING: One or more atoms are time integrated more than once (src/modify.cpp:292)
WARNING: Inconsistent image flags (src/domain.cpp:819)
Per MPI rank memory allocation (min/avg/max) = 7.521 | 7.521 | 7.521 Mbytes
   Step          Temp          PotEng         E_bond        E_angle        E_dihed         Press           Pxx            Pyy            Pzz            Pxy            Pxz            Pyz             Lx             Ly             Lz           Volume    
       213   0              7.4695948e-14  7.4695948e-14  0              0              2.7365014e-07  3.3100623e-07  2.1629405e-07  0              3.0633198e-06  0              0              9.6193209      9.6193153      0.2            92.531281    
       300   0.21169173     0.00048208269  0.00048208269  0              0              33.222547      182.51428     -116.19928      0              102.16533      0              0              9.6184841      9.6277712      0.2            92.604564    
       400   0.20677692     0.0005150112   0.0005150112   0              0              224.32832      385.09098      63.431373      0             -345.15409      0              0              9.6175221      9.6356776      0.2            92.671343    
       500   0.19250825     0.00073185531  0.00073185531  0              0             -115.28701     -199.26314     -31.491806      0             -757.59801      0              0              9.6165602      9.643986       0.2            92.741972    
       600   0.22562556     0.0007944933   0.0007944933   0              0             -48.373262     -286.11389      189.21271      0              39.618144      0              0              9.6155983      9.6513142      0.2            92.803161    
       700   0.20710355     0.00072532668  0.00072532668  0              0             -50.132082      165.06327     -265.4708       0              71.72656       0              0              9.6146363      9.6449156      0.2            92.732356    
       800   0.19924032     0.00066985792  0.00066985792  0              0             -76.997188      6.5370467     -160.68232      0             -350.15729      0              0              9.6136744      9.6518575      0.2            92.789815    
       900   0.19030961     0.00089708541  0.00089708541  0              0             -103.47542     -469.78529      262.70184      0              121.59497      0              0              9.6127125      9.6588178      0.2            92.847438    
      1000   0.21487489     0.001000681    0.001000681    0              0             -308.22303     -790.20948      173.59119      0              161.43387      0              0              9.6117505      9.6637645      0.2            92.885694    
      1100   0.27321186     0.00086819792  0.00086819792  0              0             -290.75759     -295.60069     -286.06089      0             -180.07513      0              0              9.6107886      9.6613623      0.2            92.853311    
      1200   0.24782123     0.0010304211   0.0010304211   0              0             -447.47202     -683.26062     -211.83341      0              103.09327      0              0              9.6098267      9.6623809      0.2            92.853806    
      1300   0.17402124     0.00079835413  0.00079835413  0              0              108.53387     -207.45469      424.38683      0             -496.35335      0              0              9.6088647      9.6558878      0.2            92.78212     
      1400   0.21501157     0.00069165037  0.00069165037  0              0              336.6282       389.20021      283.91043      0              464.83566      0              0              9.6079028      9.6652104      0.2            92.862402    
      1500   0.18898157     0.0006836512   0.0006836512   0              0             -197.25291     -24.599888     -370.04924      0              312.59512      0              0              9.6069409      9.6678559      0.2            92.87852     
      1600   0.19350401     0.00069331684  0.00069331684  0              0              85.383333      540.80409     -370.21184      0              65.264814      0              0              9.6059789      9.6662303      0.2            92.853605    
      1700   0.22131944     0.0011285501   0.0011285501   0              0              594.83346      680.18593      509.29537      0              205.13251      0              0              9.605017       9.6788082      0.2            92.965117    
      1800   0.223369       0.00088623387  0.00088623387  0              0              1035.8967      1563.9593      507.70018      0             -584.39584      0              0              9.6040551      9.6638044      0.2            92.81171     
      1900   0.14664318     0.00092555646  0.00092555646  0              0             -382.81415     -89.798295     -675.99064      0              216.77275      0              0              9.6030932      9.6676437      0.2            92.839283    
      2000   0.23317421     0.00082414409  0.00082414409  0              0              269.99159      1116.2278     -576.36537      0              1.9756507      0              0              9.6021312      9.6565808      0.2            92.723756    
      2100   0.18398154     0.0010213763   0.0010213763   0              0              1093.7122      1523.8276      663.48979      0             -110.7684       0              0              9.6011693      9.6516215      0.2            92.666852    
      2200   0.16110547     0.00092371516  0.00092371516  0              0              1373.0155      1962.4402      783.41611      0             -609.44312      0              0              9.6002074      9.652884       0.2            92.669688    
      2300   0.22484078     0.00074940681  0.00074940681  0              0             -9.9928233      620.61404     -640.74573      0             -388.69274      0              0              9.5992454      9.6602473      0.2            92.731084    
      2400   0.21490274     0.00073961616  0.00073961616  0              0              286.62874      1386.1866     -813.06916      0              307.68692      0              0              9.5982835      9.6581151      0.2            92.701327    
      2500   0.24901406     0.001094174    0.001094174    0              0              1015.7236      1523.1461      508.17725      0              89.410849      0              0              9.5973216      9.6497862      0.2            92.612101    
      2600   0.15447974     0.0010389972   0.0010389972   0              0              1125.812       1202.901       1048.6041      0             -434.38492      0              0              9.5963596      9.6417046      0.2            92.525265    
      2700   0.24389395     0.00080744451  0.00080744451  0              0              181.79668      782.22629     -418.7583       0             -345.74053      0              0              9.5953977      9.6472592      0.2            92.569289    
      2800   0.21212642     0.00075334535  0.00075334535  0              0             -596.33988     -79.808388     -1112.9871      0              200.23604      0              0              9.5944358      9.6662561      0.2            92.742273    
      2900   0.20291891     0.00081826224  0.00081826224  0              0              715.04336      1120.3085      309.64697      0             -224.31831      0              0              9.5934738      9.6644182      0.2            92.715343    
      3000   0.18925996     0.0007946884   0.0007946884   0              0              1240.2653      1373.6989      1106.6971      0              85.281376      0              0              9.5925119      9.6584725      0.2            92.649012    
      3100   0.21541871     0.00093434332  0.00093434332  0              0              298.404        753.81577     -157.13511      0             -691.82166      0              0              9.59155        9.6662858      0.2            92.714663    
      3200   0.17225887     0.00084350131  0.00084350131  0              0             -209.64729      756.90712     -1176.3271      0             -88.630318      0              0              9.590588       9.668775       0.2            92.729238    
      3300   0.21671405     0.00088924226  0.00088924226  0              0              685.0533       1452.7746     -82.788409      0             -149.9383       0              0              9.5896261      9.6580987      0.2            92.617555    
      3400   0.23317624     0.0010206338   0.0010206338   0              0              1173.7476      1262.4757      1084.8309      0             -160.01872      0              0              9.5886642      9.6519003      0.2            92.548831    
      3500   0.24089222     0.0009075086   0.0009075086   0              0              546.05805      1026.1123      65.837777      0             -557.91622      0              0              9.5877022      9.6573309      0.2            92.591613    
      3600   0.18956031     0.0010068978   0.0010068978   0              0             -386.25532      153.91078     -926.53794      0             -224.46295      0              0              9.5867403      9.6696893      0.2            92.7008      
      3700   0.16981808     0.001091559    0.001091559    0              0              467.0649       1012.3514     -78.38342       0             -23.318337      0              0              9.5857784      9.6678071      0.2            92.673456    
      3800   0.19173406     0.00084076209  0.00084076209  0              0              1493.5968      2050.8735      936.19331      0              333.70868      0              0              9.5848164      9.6678045      0.2            92.664132    
      3900   0.21661347     0.00098613604  0.00098613604  0              0              872.42442      1564.5819      180.12407      0             -65.303587      0              0              9.5838545      9.6770929      0.2            92.743851    
      4000   0.19614416     0.00094187748  0.00094187748  0              0             -422.31894     -51.192571     -793.59023      0             -401.76805      0              0              9.5828926      9.6979225      0.2            92.934149    
      4100   0.18502575     0.0010289929   0.0010289929   0              0              499.27795      1376.621      -378.21583      0             -221.84767      0              0              9.5819306      9.6797887      0.2            92.751064    
      4200   0.22763326     0.00089773903  0.00089773903  0              0              1107.0028      1599.0878      614.78841      0              269.53987      0              0              9.5809687      9.6819324      0.2            92.762292    
      4300   0.22244299     0.0010307047   0.0010307047   0              0              720.80588      1126.0689      315.36709      0              332.28653      0              0              9.5800068      9.6954311      0.2            92.882296    
      4400   0.20083195     0.00081798456  0.00081798456  0              0              176.72567      725.48766     -372.18094      0              713.23542      0              0              9.5790449      9.7084883      0.2            92.998045    
      4500   0.1890292      0.001109611    0.001109611    0              0              384.15845      1099.8784     -331.71625      0              192.04522      0              0              9.5780829      9.6992588      0.2            92.900305    
      4600   0.22491541     0.00089407898  0.00089407898  0              0              1138.6969      2135.1305      142.0878       0              512.73029      0              0              9.577121       9.695051       0.2            92.850677    
      4700   0.19786475     0.0010605748   0.0010605748   0              0              1008.3975      1522.6958      493.97295      0              51.421778      0              0              9.5761591      9.6997161      0.2            92.886024    
      4800   0.23025244     0.0010696546   0.0010696546   0              0              1125.4638      2306.9485     -56.158271      0              69.373232      0              0              9.5751971      9.7043118      0.2            92.920698    
      4900   0.13596231     0.00099401909  0.00099401909  0              0              291.2625       1083.82       -501.42269      0             -223.94344      0              0              9.5742352      9.702438       0.2            92.893423    
      5000   0.2498832      0.0010141267   0.0010141267   0              0              590.15511      1196.7189     -16.573593      0             -148.05948      0              0              9.5732733      9.7102802      0.2            92.959166    
      5100   0.18962819     0.001115219    0.001115219    0              0              943.2045       1510.8869      375.36207      0             -74.337935      0              0              9.5723113      9.7058505      0.2            92.907423    
      5200   0.23026561     0.001098909    0.001098909    0              0              631.94221      1233.4723      30.238611      0             -797.92828      0              0              9.5713494      9.7052458      0.2            92.892298    
      5300   0.19026548     0.0010840957   0.0010840957   0              0              255.44156      1107.8764     -597.15299      0             -657.84428      0              0              9.5703875      9.7107049      0.2            92.935208    
      5400   0.20601152     0.00094656461  0.00094656461  0              0              599.17964      1313.4332     -115.22217      0              334.21403      0              0              9.5694255      9.7166412      0.2            92.982674    
      5500   0.21466757     0.0010647611   0.0010647611   0              0              1581.2601      2492.674       669.69527      0             -479.27318      0              0              9.5684636      9.7285471      0.2            93.087249    
      5600   0.26513662     0.00098046409  0.00098046409  0              0              1125.5728      1963.3393      287.64207      0             -437.03259      0              0              9.5675017      9.7256437      0.2            93.050113    
      5700   0.20322018     0.00098447425  0.00098447425  0              0              436.56012      1435.4691     -562.4818       0             -358.77211      0              0              9.5665397      9.7302897      0.2            93.085203    
      5800   0.16032322     0.0010803743   0.0010803743   0              0              691.18435      1779.4897     -397.25145      0             -532.76761      0              0              9.5655778      9.739558       0.2            93.164499    
      5900   0.20910462     0.001110851    0.001110851    0              0              914.51804      1273.1296      555.74767      0             -5.0286794      0              0              9.5646159      9.7322942      0.2            93.085656    
      6000   0.19198879     0.001192079    0.001192079    0              0              1098.2413      1587.7104      608.61148      0              362.01228      0              0              9.5636539      9.7147561      0.2            92.908565    
      6100   0.20350552     0.0010466997   0.0010466997   0              0              631.24507      1602.5166     -340.17226      0              673.5279       0              0              9.562692       9.7291117      0.2            93.036499    
      6200   0.20983218     0.0011114374   0.0011114374   0              0              603.0943       1812.1296     -606.05257      0              162.23767      0              0              9.5617301      9.7249904      0.2            92.987733    
      6300   0.22538429     0.00099241897  0.00099241897  0              0              908.81063      1504.4194      313.06886      0              61.91265       0              0              9.5607681      9.7138878      0.2            92.872229    
      6400   0.23532832     0.0011515086   0.0011515086   0              0              630.02596      629.91841      629.98055      0              30.23385       0              0              9.5598062      9.7113658      0.2            92.838775    
      6500   0.2310514      0.0013571372   0.0013571372   0              0              368.4828       780.40862     -43.586118      0              472.87723      0              0              9.5588443      9.7254481      0.2            92.964044    
      6600   0.19141602     0.0012857234   0.0012857234   0              0             -104.67241      442.33528     -651.81114      0              459.11601      0              0              9.5578823      9.7255449      0.2            92.955614    
      6700   0.22678491     0.0011238912   0.0011238912   0              0              260.27293      469.28502      51.109758      0              680.20678      0              0              9.5569204      9.7215626      0.2            92.9082      
      6800   0.17981327     0.0011915413   0.0011915413   0              0              1075.3343      1695.2008      455.32241      0              341.69773      0              0              9.5559585      9.7265802      0.2            92.946796    
      6900   0.20574837     0.0011328762   0.0011328762   0              0              371.83275      721.18506      22.319384      0              218.98411      0              0              9.5549965      9.7152675      0.2            92.829348    
      7000   0.17036084     0.0011464335   0.0011464335   0              0              658.91673      1888.8639     -571.18445      0             -51.965529      0              0              9.5540346      9.7159081      0.2            92.826122    
      7100   0.21639239     0.001009753    0.001009753    0              0              961.38856      2051.3039     -128.67938      0             -78.471955      0              0              9.5530727      9.7101853      0.2            92.762106    
      7200   0.20289895     0.0013382783   0.0013382783   0              0              902.47261      1214.1254      590.66603      0             -259.36987      0              0              9.5521108      9.7093659      0.2            92.744938    
      7300   0.16265002     0.0010781229   0.0010781229   0              0              543.65579      926.97319      160.21223      0             -155.66529      0              0              9.5511488      9.7182442      0.2            92.820397    
      7400   0.21339292     0.00094354618  0.00094354618  0              0              438.74455      1345.9644     -468.61757      0              55.663515      0              0              9.5501869      9.7287782      0.2            92.91165     
      7500   0.16762881     0.0012257251   0.0012257251   0              0              354.21098      1016.6614     -308.36982      0             -615.28215      0              0              9.549225       9.7167241      0.2            92.787184    
      7600   0.19816564     0.0010799232   0.0010799232   0              0              1095.2887      1858.4386      332.00518      0             -322.12571      0              0              9.548263       9.7158236      0.2            92.769239    
      7700   0.20997937     0.0013733783   0.0013733783   0              0              1135.7195      1830.5916      440.71735      0             -316.44042      0              0              9.5473011      9.711376       0.2            92.71743     
      7800   0.20390463     0.0011856676   0.0011856676   0              0              264.63132      910.80745     -381.73283      0             -395.20076      0              0              9.5463392      9.7204973      0.2            92.795164    
      7900   0.20158955     0.0012402033   0.0012402033   0              0              1059.3618      2451.1921     -332.64648      0             -444.23086      0              0              9.5453772      9.7113181      0.2            92.698194    
      8000   0.22537921     0.0012238874   0.0012238874   0              0              1146.0245      1924.3754      367.51839      0             -859.50531      0              0              9.5444153      9.7157138      0.2            92.730808    
      8100   0.16653298     0.0011955962   0.0011955962   0              0              1427.9022      2463.8468      391.84635      0             -267.75653      0              0              9.5434534      9.711377       0.2            92.680073    
      8200   0.21904565     0.0012917083   0.0012917083   0              0              484.33703      1254.5272     -286.02473      0             -441.36316      0              0              9.5424914      9.725679       0.2            92.807208    
      8300   0.24059907     0.0012850908   0.0012850908   0              0              596.29245      1687.2615     -494.81245      0              103.40882      0              0              9.5415295      9.7209894      0.2            92.753107    
      8400   0.20911144     0.0010651923   0.0010651923   0              0              1043.1657      1859.1647      227.04826      0             -176.61724      0              0              9.5405676      9.7235947      0.2            92.768612    
      8500   0.1983245      0.0011695173   0.0011695173   0              0              1130.8219      1752.1881      509.28261      0             -239.31393      0              0              9.5396056      9.7252389      0.2            92.774944    
      8600   0.18183478     0.0011347344   0.0011347344   0              0              1000.6213      2210.6958     -209.60188      0             -417.1537       0              0              9.5386437      9.7323351      0.2            92.833277    
      8700   0.21782843     0.0013727773   0.0013727773   0              0              201.48115      963.99711     -561.17113      0              227.86111      0              0              9.5376818      9.7369694      0.2            92.868115    
      8800   0.22652304     0.0011815946   0.0011815946   0              0              1165.7002      2203.6001      127.64815      0             -289.02795      0              0              9.5367198      9.7307409      0.2            92.79935     
      8900   0.18054799     0.0012180134   0.0012180134   0              0              1106.6914      1564.8146      648.40493      0             -306.63702      0              0              9.5357579      9.7279945      0.2            92.763801    
      9000   0.17660767     0.0011956309   0.0011956309   0              0              894.78609      1669.2598      120.14943      0              331.33473      0              0              9.534796       9.7304822      0.2            92.778163    
      9100   0.18836153     0.0013290946   0.0013290946   0              0             -64.334404      480.79757     -609.58985      0             -271.8001       0              0              9.533834       9.7350219      0.2            92.812084    
      9200   0.22019197     0.0012408389   0.0012408389   0              0              788.16798      1831.3209     -255.10153      0             -260.57652      0              0              9.5328721      9.7265641      0.2            92.722092    
      9300   0.20775196     0.0013019591   0.0013019591   0              0              1460.1995      2464.8814      455.38015      0             -496.14652      0              0              9.5319102      9.7264715      0.2            92.711852    
      9400   0.20098193     0.0013721669   0.0013721669   0              0              1475.7838      2571.7832      379.66241      0             -183.54983      0              0              9.5309482      9.7229339      0.2            92.66878     
      9500   0.24567325     0.0012295568   0.0012295568   0              0              866.47033      2200.0722     -467.28277      0             -77.510493      0              0              9.5299863      9.7307414      0.2            92.733833    
      9600   0.24892164     0.0014134101   0.0014134101   0              0              349.81601      1069.9879     -370.5486       0             -121.80545      0              0              9.5290244      9.7322105      0.2            92.738471    
      9700   0.20721012     0.0013909216   0.0013909216   0              0              1012.1313      1785.7934      238.34163      0              235.511        0              0              9.5280625      9.7288827      0.2            92.697402    
      9800   0.24533492     0.0012437236   0.0012437236   0              0              1186.945       1974.8124      398.91323      0             -279.0379       0              0              9.5271005      9.73334        0.2            92.730509    
      9900   0.27397343     0.0011522421   0.0011522421   0              0              413.64554      828.04443     -0.91880147     0             -753.41621      0              0              9.5261386      9.7517438      0.2            92.896463    
     10000   0.2072019      0.00140082     0.00140082     0              0              31.550915      526.28178     -463.33637      0             -531.80866      0              0              9.5251767      9.7636015      0.2            93.000029    
     10100   0.1973997      0.0012224653   0.0012224653   0              0              269.07412      529.87633      8.1132103      0             -524.42769      0              0              9.5242147      9.7566319      0.2            92.924257    
     10200   0.21301042     0.0012383639   0.0012383639   0              0              533.38807      752.22448      314.39981      0             -267.87623      0              0              9.5232528      9.757106       0.2            92.919387    
     10300   0.20875769     0.0013946799   0.0013946799   0              0              1008.5526      1825.9356      191.03895      0              125.56947      0              0              9.5222909      9.7501107      0.2            92.84339     
     10400   0.24083378     0.0014235686   0.0014235686   0              0              170.71791      561.23332     -219.97315      0             -69.980937      0              0              9.5213289      9.7662674      0.2            92.987844    
     10500   0.1802666      0.0012281668   0.0012281668   0              0              373.74274      915.14703     -167.82619      0             -172.51642      0              0              9.520367       9.7473331      0.2            92.798188    
     10600   0.17299534     0.0011578972   0.0011578972   0              0              276.2942       493.56543      58.885873      0             -142.34595      0              0              9.5194051      9.7555634      0.2            92.867159    
     10700   0.22257225     0.0013951317   0.0013951317   0              0              993.05528      1941.2185      44.701112      0             -62.107154      0              0              9.5184431      9.7490476      0.2            92.795755    
     10800   0.2613334      0.0013688961   0.0013688961   0              0              904.6777       1814.1371     -4.9664282      0              420.41278      0              0              9.5174812      9.7479003      0.2            92.775458    
     10900   0.20485777     0.0014369194   0.0014369194   0              0              1301.061       2457.9409      144.05161      0              378.21325      0              0              9.5165193      9.7476811      0.2            92.763995    
     11000   0.14979877     0.0013562336   0.0013562336   0              0              706.75488      1285.1248      128.21759      0              16.449028      0              0              9.5155573      9.7529411      0.2            92.80467     
     11100   0.18589811     0.0014412053   0.0014412053   0              0              929.73976      2031.2916     -171.98131      0             -444.88094      0              0              9.5145954      9.7506337      0.2            92.773335    
     11200   0.19270411     0.0010573333   0.0010573333   0              0              522.92293      1346.75       -301.02059      0              263.30062      0              0              9.5136335      9.7647719      0.2            92.898461    
     11300   0.19345393     0.0012508092   0.0012508092   0              0              1345.9768      2689.5458      2.2200367      0             -255.22389      0              0              9.5126715      9.7640547      0.2            92.882245    
     11400   0.21381177     0.001488392    0.001488392    0              0              1295.8336      2236.7689      354.73026      0              278.00456      0              0              9.5117096      9.7499739      0.2            92.73892     
     11500   0.16567777     0.0014181028   0.0014181028   0              0              1227.7255      2238.1119      217.18912      0             -72.344929      0              0              9.5107477      9.7441895      0.2            92.674527    
     11600   0.19701697     0.0014420085   0.0014420085   0              0              634.36415      1760.9572     -492.3769       0              768.24449      0              0              9.5097857      9.7477748      0.2            92.69925     
     11700   0.23499545     0.0014608519   0.0014608519   0              0              865.73386      2307.3754     -576.04435      0              586.24801      0              0              9.5088238      9.7565418      0.2            92.773237    
     11800   0.18789379     0.0013671645   0.0013671645   0              0              1378.9252      2407.889       349.80999      0              444.31592      0              0              9.5078619      9.7547008      0.2            92.746348    
     11900   0.20896177     0.001309131    0.001309131    0              0              1538.8677      2355.3935      722.1904       0              130.86369      0              0              9.5068999      9.7554994      0.2            92.744557    
     12000   0.13977795     0.0014070624   0.0014070624   0              0              961.23244      1896.9734      25.300816      0              211.61167      0              0              9.505938       9.7639621      0.2            92.815618    
     12100   0.18809818     0.0014388668   0.0014388668   0              0              542.50628      1865.4861     -780.62004      0              19.527114      0              0              9.5049761      9.7662114      0.2            92.827606    
     12200   0.22058888     0.0013868585   0.0013868585   0              0              285.32813      1066.9506     -496.41475      0              399.35522      0              0              9.5040141      9.7606608      0.2            92.765458    
     12300   0.2270649      0.0013450781   0.0013450781   0              0              2068.2263      3395.0499      741.24764      0              992.19775      0              0              9.5030522      9.7538527      0.2            92.691372    
     12400   0.1768261      0.0013591477   0.0013591477   0              0              1468.7265      2090.0544      847.26106      0              645.87354      0              0              9.5020903      9.7658304      0.2            92.795802    
     12500   0.255067       0.0014831907   0.0014831907   0              0              697.12443      1776.8696     -382.7712       0              494.9389       0              0              9.5011284      9.7866994      0.2            92.984687    
     12600   0.187964       0.0013850965   0.0013850965   0              0              367.54416      1755.9893     -1021.0632      0             -3.3531266      0              0              9.5001664      9.7924849      0.2            93.030236    
     12700   0.14421995     0.0014409513   0.0014409513   0              0              1273.942       2592.6308     -44.907492      0             -372.59597      0              0              9.4992045      9.7669142      0.2            92.777916    
     12800   0.21910245     0.0013118432   0.0013118432   0              0              1456.7863      1908.2538      1005.1741      0             -286.40694      0              0              9.4982426      9.7671653      0.2            92.770905    
     12900   0.20895012     0.0016422562   0.0016422562   0              0              1379.0193      2401.6227      356.26869      0              409.08929      0              0              9.4972806      9.7767889      0.2            92.852908    
     13000   0.20992195     0.0013817725   0.0013817725   0              0              673.63736      2216.9235     -869.77309      0             -170.95338      0              0              9.4963187      9.776934       0.2            92.844881    
     13100   0.19630694     0.0013240885   0.0013240885   0              0              568.40519      1859.8608     -723.18628      0             -103.31123      0              0              9.4953568      9.7735259      0.2            92.803115    
     13200   0.18046941     0.0015122194   0.0015122194   0              0              1451.7868      2400.8677      502.5301       0             -410.97157      0              0              9.4943948      9.7714198      0.2            92.773717    
     13300   0.26474704     0.0015112124   0.0015112124   0              0              1083.4377      1346.9365      819.83097      0             -54.015443      0              0              9.4934329      9.7675823      0.2            92.727887    
     13400   0.25762161     0.0015881005   0.0015881005   0              0              822.89923      1778.6564     -133.0259       0              371.21923      0              0              9.492471       9.7690617      0.2            92.732534    
     13500   0.25770408     0.001739161    0.001739161    0              0              615.09212      2023.2516     -793.18551      0             -55.266036      0              0              9.491509       9.7666426      0.2            92.700176    
     13600   0.24062599     0.0016155811   0.0016155811   0              0              881.30672      2001.8616     -239.42124      0             -82.089539      0              0              9.4905471      9.7738859      0.2            92.759525    
     13700   0.23247837     0.0016461218   0.0016461218   0              0              2009.8442      3179.0177      840.53006      0             -119.35006      0              0              9.4895852      9.7774304      0.2            92.783758    
     13800   0.21227928     0.0013068714   0.0013068714   0              0              949.82455      1487.114       412.33498      0             -3.1223687      0              0              9.4886232      9.7830546      0.2            92.827719    
     13900   0.20569094     0.0015028396   0.0015028396   0              0              398.10477      1436.538      -640.49424      0             -30.443027      0              0              9.4876613      9.7859737      0.2            92.846004    
     14000   0.20697119     0.0014653779   0.0014653779   0              0              330.44079      1327.6306     -666.90269      0             -99.450953      0              0              9.4866994      9.7830871      0.2            92.809206    
     14100   0.20595268     0.0013191291   0.0013191291   0              0              1001.5595      1890.1618      112.78581      0             -557.31869      0              0              9.4857374      9.7732174      0.2            92.706174    
     14200   0.1561997      0.0012051749   0.0012051749   0              0              1102.1149      1696.7899      507.31694      0             -194.88967      0              0              9.4847755      9.7766087      0.2            92.728938    
     14300   0.16368455     0.0012486329   0.0012486329   0              0              1313.8002      2364.2267      263.26266      0              432.9429       0              0              9.4838136      9.7749441      0.2            92.703747    
     14400   0.23905342     0.0012676814   0.0012676814   0              0              653.81109      1630.7159     -323.24782      0              378.24145      0              0              9.4828516      9.7750965      0.2            92.69579     
     14500   0.20249615     0.0013695016   0.0013695016   0              0              25.650252      446.32263     -395.17101      0              242.15782      0              0              9.4818897      9.7954175      0.2            92.879068    
     14600   0.16528639     0.0014830966   0.0014830966   0              0              1108.5354      2091.2623      125.6079       0              440.87036      0              0              9.4809278      9.7930928      0.2            92.847606    
     14700   0.18807701     0.001332183    0.001332183    0              0              1041.5007      1721.1207      361.74778      0              288.32969      0              0              9.4799658      9.7924452      0.2            92.832046    
     14800   0.19050034     0.001489894    0.001489894    0              0              1082.0516      2132.7532      31.190256      0              409.42163      0              0              9.4790039      9.7978688      0.2            92.874036    
     14900   0.2179193      0.0015915979   0.0015915979   0              0              1178.378       2465.3064     -108.6815       0              171.91923      0              0              9.478042       9.8010593      0.2            92.894851    
     15000   0.21328369     0.0016898555   0.0016898555   0              0              698.85814      1473.0204     -75.48574       0              125.77862      0              0              9.47708        9.7871278      0.2            92.753394    
     15100   0.15848552     0.0016721336   0.0016721336   0              0              886.90883      1630.6146      143.07871      0              289.42785      0              0              9.4761181      9.7825863      0.2            92.700943    
     15200   0.21056396     0.0014134268   0.0014134268   0              0              1004.4371      1995.5198      13.215406      0             -138.98974      0              0              9.4751562      9.784397       0.2            92.70869     
     15300   0.23023371     0.0013992765   0.0013992765   0              0              539.96975      1284.4831     -204.71748      0              676.50258      0              0              9.4741943      9.7913755      0.2            92.765393    
     15400   0.20547689     0.0014429621   0.0014429621   0              0              262.32619      573.39525     -48.918351      0              377.66399      0              0              9.4732323      9.7977728      0.2            92.816578    
     15500   0.22376833     0.0015520534   0.0015520534   0              0              1293.0399      2436.9188      149.01222      0             -463.73302      0              0              9.4722704      9.7925222      0.2            92.757418    
     15600   0.17067522     0.001668025    0.001668025    0              0              1092.3275      2106.8237      77.667829      0             -100.16437      0              0              9.4713085      9.8058084      0.2            92.873836    
     15700   0.21714475     0.0016102713   0.0016102713   0              0              82.994178      469.06275     -303.21072      0             -258.54082      0              0              9.4703465      9.8133826      0.2            92.936134    
     15800   0.22393608     0.0015152062   0.0015152062   0              0              1057.5449      2216.0293     -101.09282      0              221.11428      0              0              9.4693846      9.8112689      0.2            92.906678    
     15900   0.27461735     0.0015146116   0.0015146116   0              0              1513.1004      2736.4102      289.62252      0              267.67184      0              0              9.4684227      9.8005769      0.2            92.796005    
     16000   0.20381687     0.0015298312   0.0015298312   0              0              1061.1775      1964.3261      157.89093      0              368.77692      0              0              9.4674607      9.8013432      0.2            92.793832    
     16100   0.18322222     0.0014746716   0.0014746716   0              0              933.85031      2256.311      -388.81166      0             -330.47673      0              0              9.4664988      9.7918325      0.2            92.69437     
     16200   0.15446486     0.0014443252   0.0014443252   0              0              1060.8578      2589.4505     -467.89458      0             -110.99539      0              0              9.4655369      9.7920496      0.2            92.687006    
     16300   0.16150569     0.0015939613   0.0015939613   0              0              1257.2043      2223.1641      291.0876       0              201.07802      0              0              9.4645749      9.7876469      0.2            92.635917    
     16400   0.20921289     0.0015571815   0.0015571815   0              0              1549.1151      2569.9275      528.13759      0             -71.900976      0              0              9.463613       9.782734       0.2            92.580008    
     16500   0.23039948     0.0014058182   0.0014058182   0              0              1196.5941      2522.9821     -129.97607      0              401.19264      0              0              9.4626511      9.7960574      0.2            92.696673    
     16600   0.20742385     0.0014612782   0.0014612782   0              0              797.95369      2156.4071     -560.65022      0             -36.785098      0              0              9.4616891      9.7979722      0.2            92.705367    
     16700   0.21084157     0.001537034    0.001537034    0              0              1350.8081      2732.654      -31.218548      0             -203.30212      0              0              9.4607272      9.7989595      0.2            92.705283    
     16800   0.24040603     0.0015855772   0.0015855772   0              0              1869.2311      3030.2712      708.0431       0             -193.10457      0              0              9.4597653      9.7881554      0.2            92.593652    
     16900   0.15111577     0.0016628224   0.0016628224   0              0              1827.2488      3358.3643      295.98317      0              132.77589      0              0              9.4588033      9.7910109      0.2            92.611247    
     17000   0.19426489     0.0015592113   0.0015592113   0              0              887.81575      2464.6595     -689.14519      0              565.1986       0              0              9.4578414      9.797903       0.2            92.667013    
     17100   0.24126881     0.0017338772   0.0017338772   0              0              816.79566      2231.3029     -597.88156      0             -275.71586      0              0              9.4568795      9.786066       0.2            92.545647    
     17200   0.23031373     0.0014826752   0.0014826752   0              0              1338.8216      2146.332       531.13191      0              553.71046      0              0              9.4559175      9.7818841      0.2            92.49669     
     17300   0.20750572     0.001410646    0.001410646    0              0              2171.8354      3222.2893      1121.2204      0              79.295647      0              0              9.4549556      9.7750628      0.2            92.422785    
     17400   0.17976201     0.0015736333   0.0015736333   0              0              949.87448      2142.1601     -242.5373       0              518.73354      0              0              9.4539937      9.7941748      0.2            92.594066    
     17500   0.20750979     0.0014012504   0.0014012504   0              0              401.70611      2237.9231     -1434.69        0             -89.856634      0              0              9.4530317      9.808721       0.2            92.722151    
     17600   0.19223276     0.0017397348   0.0017397348   0              0              1372.6484      3279.6644     -534.49481      0             -41.394952      0              0              9.4520698      9.7908613      0.2            92.543904    
     17700   0.17216119     0.0016458944   0.0016458944   0              0              1937.4136      2555.5757      1319.1155      0              60.374745      0              0              9.4511079      9.7754987      0.2            92.389292    
     17800   0.2089229      0.0017196769   0.0017196769   0              0              2082.6709      2868.2257      1296.9885      0              62.125816      0              0              9.450146       9.7765628      0.2            92.389945    
     17900   0.25548555     0.0016620613   0.0016620613   0              0              1084.5357      2749.8956     -580.97779      0             -39.789437      0              0              9.449184       9.793581       0.2            92.541349    
     18000   0.2560234      0.0018570999   0.0018570999   0              0              69.232916      1811.1776     -1672.8431      0             -610.54777      0              0              9.4482221      9.807651       0.2            92.664865    
     18100   0.2325403      0.001586018    0.001586018    0              0              1188.9491      2412.2172     -34.48547       0             -89.65566       0              0              9.4472602      9.7994576      0.2            92.578026    
     18200   0.15167838     0.0014173658   0.0014173658   0              0              2309.7368      3167.4213      1451.9147      0             -269.08588      0              0              9.4462982      9.788137       0.2            92.461661    
     18300   0.17933419     0.0014825986   0.0014825986   0              0              1216.2625      1682.0111      750.3673       0             -553.26642      0              0              9.4453363      9.7890535      0.2            92.460903    
     18400   0.20942733     0.0016698228   0.0016698228   0              0              219.93832      1248.0746     -808.33133      0              393.81447      0              0              9.4443744      9.7997788      0.2            92.55278     
     18500   0.30932504     0.0016493519   0.0016493519   0              0              213.9768       1482.3565     -1054.5172      0              318.42457      0              0              9.4434124      9.7988799      0.2            92.534864    
     18600   0.22459301     0.0014701863   0.0014701863   0              0              1143.5848      1997.2514      289.75132      0              195.32753      0              0              9.4424505      9.8068565      0.2            92.600757    
     18700   0.2488222      0.001593828    0.001593828    0              0              1572.715       2043.7666      1101.526       0              46.379939      0              0              9.4414886      9.8046648      0.2            92.57063     
     18800   0.21764548     0.001546846    0.001546846    0              0              1413.1127      2476.6332      349.46093      0              468.50695      0              0              9.4405266      9.8061978      0.2            92.575671    
     18900   0.17830549     0.0014608162   0.0014608162   0              0              138.91764      1116.8547     -839.17145      0              175.58071      0              0              9.4395647      9.8153431      0.2            92.652566    
     19000   0.19872383     0.0016993872   0.0016993872   0              0              323.6129       1444.1868     -797.06929      0              406.26065      0              0              9.4386028      9.8013925      0.2            92.51145     
     19100   0.27483858     0.0013349137   0.0013349137   0              0              1352.2928      2334.1386      370.33485      0             -57.932655      0              0              9.4376408      9.7860832      0.2            92.357539    
     19200   0.22647804     0.0015169608   0.0015169608   0              0              1681.0898      2564.0996      797.9174       0             -82.542053      0              0              9.4366789      9.7829582      0.2            92.318635    
     19300   0.21076809     0.0016832487   0.0016832487   0              0              682.11642      1396.2433     -32.169706      0             -72.082207      0              0              9.435717       9.7782652      0.2            92.264943    
     19400   0.24285222     0.0016647558   0.0016647558   0              0              182.35628      1177.1069     -812.54781      0              167.80509      0              0              9.434755       9.7732122      0.2            92.207863    
     19500   0.25256469     0.0014521924   0.0014521924   0              0              563.58191      1388.9629     -261.94962      0              63.945605      0              0              9.4337931      9.7763915      0.2            92.228455    
     19600   0.22976929     0.0016513088   0.0016513088   0              0              1195.8205      1741.9194      649.58129      0             -173.92335      0              0              9.4328312      9.7580267      0.2            92.045819    
     19700   0.24069221     0.0017440137   0.0017440137   0              0              937.09108      1342.2611      531.78696      0              42.666512      0              0              9.4318692      9.7587568      0.2            92.043318    
     19800   0.22316495     0.0017223914   0.0017223914   0              0              298.12878      911.31702     -315.24975      0             -239.46862      0              0              9.4309073      9.7543749      0.2            91.992606    
     19900   0.19320643     0.0015359862   0.0015359862   0              0              194.20005      912.14197     -523.87736      0             -10.112233      0              0              9.4299454      9.7548447      0.2            91.987652    
     20000   0.21585789     0.0016226271   0.0016226271   0              0              679.41376      1338.5537      20.130004      0             -23.076753      0              0              9.4289834      9.7606245      0.2            92.032767    
     20100   0.17948597     0.001693104    0.001693104    0              0              1524.953       2714.7223      335.05624      0              559.02242      0              0              9.4280215      9.7579579      0.2            91.998237    
     20200   0.21180447     0.0016995856   0.0016995856   0              0              920.74135      1738.3571      102.99119      0              183.12099      0              0              9.4270596      9.7520082      0.2            91.932763    
     20300   0.2190892      0.0016154681   0.0016154681   0              0              290.18983      938.13071     -357.90116      0             -439.70522      0              0              9.4260976      9.7509278      0.2            91.913198    
     20400   0.21581332     0.0017346286   0.0017346286   0              0              762.68689      1745.7011     -220.49392      0              18.334416      0              0              9.4251357      9.7509367      0.2            91.903902    
     20500   0.161353       0.0015599575   0.0015599575   0              0              936.80973      1674.7689      198.69837      0              165.16809      0              0              9.4241738      9.7407414      0.2            91.798439    
     20600   0.20215775     0.0014756826   0.0014756826   0              0              792.94206      1219.4717      366.26416      0             -12.468605      0              0              9.4232119      9.7391747      0.2            91.774306    
     20700   0.24399839     0.0016393466   0.0016393466   0              0              784.40878      1488.2385      80.448047      0             -40.535425      0              0              9.4222499      9.7507365      0.2            91.873876    
     20800   0.21500355     0.0017601664   0.0017601664   0              0              404.18406      1195.7308     -387.5454       0              191.68435      0              0              9.421288       9.7527369      0.2            91.883343    
     20900   0.21984825     0.0018483357   0.0018483357   0              0              812.05864      1828.4116     -204.42574      0              31.694         0              0              9.4203261      9.7499121      0.2            91.847351    
     21000   0.21136119     0.0015804974   0.0015804974   0              0              578.46628      792.14737      364.63651      0             -170.20489      0              0              9.4193641      9.7505139      0.2            91.843641    
     21100   0.17836355     0.0015956203   0.0015956203   0              0              738.28118      1129.5523      346.90149      0             -384.45042      0              0              9.4184022      9.750473       0.2            91.833877    
     21200   0.1687845      0.00181473     0.00181473     0              0              436.39084      1088.5719     -215.94334      0             -460.46876      0              0              9.4174403      9.7586993      0.2            91.901968    
     21300   0.20307433     0.0015238765   0.0015238765   0              0              57.485718      523.99643     -409.166        0             -153.04161      0              0              9.4164783      9.7635635      0.2            91.938384    
     21400   0.15571809     0.0018041296   0.0018041296   0              0              656.84696      1200.0413      113.50391      0              342.64186      0              0              9.4155164      9.7709727      0.2            91.998753    
     21500   0.18633029     0.0016206337   0.0016206337   0              0              795.88868      1069.9577      521.63949      0              361.16178      0              0              9.4145545      9.7597563      0.2            91.883757    
     21600   0.25173173     0.0015778433   0.0015778433   0              0              594.34902      876.63909      311.91919      0              217.84561      0              0              9.4135925      9.7566232      0.2            91.844875    
     21700   0.19377694     0.0014502089   0.0014502089   0              0              456.3849       1390.6361     -477.97934      0              420.87924      0              0              9.4126306      9.7704036      0.2            91.9652      
     21800   0.1933456      0.0015675283   0.0015675283   0              0              156.53771      795.85405     -482.94093      0              151.1465       0              0              9.4116687      9.7644599      0.2            91.899861    
     21900   0.20069316     0.0016884384   0.0016884384   0              0              225.02464      465.24897     -15.391289      0             -61.830352      0              0              9.4107067      9.761691       0.2            91.864411    
     22000   0.18075929     0.0014358464   0.0014358464   0              0              503.73828      564.84378      442.49453      0             -102.50597      0              0              9.4097448      9.762882       0.2            91.866228    
     22100   0.21268403     0.0014158401   0.0014158401   0              0              717.41195      928.68063      505.96746      0              240.01338      0              0              9.4087829      9.7569996      0.2            91.80149     
     22200   0.20915206     0.0015042943   0.0015042943   0              0              272.94388      884.1465      -338.41677      0              549.31063      0              0              9.4078209      9.761653       0.2            91.835883    
     22300   0.22821839     0.0017157504   0.0017157504   0              0              433.40385      1427.9995     -561.3362       0             -68.858026      0              0              9.406859       9.7565569      0.2            91.778555    
     22400   0.19584228     0.0016459962   0.0016459962   0              0              681.83498      1344.2077      19.287752      0              313.16433      0              0              9.4058971      9.7583438      0.2            91.785977    
     22500   0.22483883     0.0017611666   0.0017611666   0              0              1338.5052      2098.133       578.69439      0             -504.51356      0              0              9.4049351      9.7595056      0.2            91.787517    
     22600   0.21915688     0.0015540019   0.0015540019   0              0              848.87956      1452.3662      245.20686      0             -485.50183      0              0              9.4039732      9.7544155      0.2            91.730262    
     22700   0.19242504     0.0016315414   0.0016315414   0              0             -140.66077      110.82749     -392.28486      0             -75.137806      0              0              9.4030113      9.7658379      0.2            91.828284    
     22800   0.21869933     0.0018325463   0.0018325463   0              0              620.50954      1569.9041     -329.01679      0             -43.924349      0              0              9.4020493      9.7661601      0.2            91.821919    
     22900   0.23468732     0.0018681702   0.0018681702   0              0              1351.876       2551.2817      152.33838      0              668.53045      0              0              9.4010874      9.7688567      0.2            91.837875    
     23000   0.19935556     0.0017369076   0.0017369076   0              0              1088.2797      1700.2094      476.22141      0              192.86988      0              0              9.4001255      9.7504322      0.2            91.655286    
     23100   0.17291429     0.0017471074   0.0017471074   0              0              779.34981      1777.0569     -218.52053      0              305.97395      0              0              9.3991635      9.7650279      0.2            91.783095    
     23200   0.15431255     0.0016945533   0.0016945533   0              0              729.67597      2013.5726     -554.39446      0              1138.0846      0              0              9.3982016      9.7483917      0.2            91.617351    
     23300   0.15328628     0.0016432375   0.0016432375   0              0              927.17734      1931.2877     -77.113928      0              311.48051      0              0              9.3972397      9.7374439      0.2            91.505094    
     23400   0.21401857     0.0017248827   0.0017248827   0              0              1028.5183      1423.8187      633.05418      0              590.10224      0              0              9.3962778      9.7448795      0.2            91.565594    
     23500   0.22685397     0.0016083946   0.0016083946   0              0              1041.0767      1457.3428      624.64718      0              521.5697       0              0              9.3953158      9.7503689      0.2            91.607795    
     23600   0.17068484     0.0016953717   0.0016953717   0              0              637.63797      1598.5163     -323.38902      0              318.28497      0              0              9.3943539      9.749387       0.2            91.589191    
     23700   0.17379645     0.0016625553   0.0016625553   0              0              316.01774      1642.9544     -1011.0748      0             -301.22627      0              0              9.393392       9.7573838      0.2            91.654931    
     23800   0.2009447      0.0016128365   0.0016128365   0              0              901.31245      1985.8077     -183.31064      0             -374.61236      0              0              9.39243        9.7552673      0.2            91.625665    
     23900   0.20539093     0.0015086848   0.0015086848   0              0              1310.0594      1686.1729      933.77592      0              164.82204      0              0              9.3914681      9.7454521      0.2            91.524102    
     24000   0.27327783     0.0017573688   0.0017573688   0              0              1703.1212      2432.5243      973.57407      0             -585.67094      0              0              9.3905062      9.7521783      0.2            91.57789     
     24100   0.19381548     0.0016068863   0.0016068863   0              0              331.9364       884.23815     -220.5378       0              203.51627      0              0              9.3895442      9.7787297      0.2            91.817815    
     24200   0.25864111     0.0017289516   0.0017289516   0              0             -309.78959      607.53329     -1227.282       0             -405.17737      0              0              9.3885823      9.7803266      0.2            91.823401    
     24300   0.20825924     0.0019339312   0.0019339312   0              0              13.390895      621.40758     -594.77024      0             -345.67734      0              0              9.3876204      9.7803272      0.2            91.813999    
     24400   0.25356221     0.001658519    0.001658519    0              0              1199.2839      1485.3975      913.00026      0             -625.94321      0              0              9.3866584      9.7608183      0.2            91.621467    
     24500   0.26590538     0.0020700192   0.0020700192   0              0              1515.2355      1967.1978      1063.1258      0             -0.1556232      0              0              9.3856965      9.7736695      0.2            91.732695    
     24600   0.21962497     0.0019593132   0.0019593132   0              0              900.98788      1875.978      -74.142009      0             -156.72372      0              0              9.3847346      9.7631615      0.2            91.624679    
     24700   0.23001699     0.0019397075   0.0019397075   0              0              393.27676      1741.0388     -954.65648      0              252.85474      0              0              9.3837726      9.7750405      0.2            91.726757    
     24800   0.18382191     0.0017058502   0.0017058502   0              0              496.18661      1456.3003     -464.0661       0              19.349571      0              0              9.3828107      9.7571324      0.2            91.549326    
     24900   0.22837366     0.0016228208   0.0016228208   0              0              1186.963       1987.0367      386.75162      0              161.76895      0              0              9.3818488      9.7522311      0.2            91.493957    
     25000   0.13963911     0.0016248495   0.0016248495   0              0              1286.251       1979.6928      592.64225      0              142.90797      0              0              9.3808868      9.7570481      0.2            91.529765    
     25100   0.20212646     0.001663487    0.001663487    0              0              926.15859      1785.3983      66.749345      0             -461.2597       0              0              9.3799249      9.7605034      0.2            91.552789    
     25200   0.17860211     0.0020005458   0.0020005458   0              0              269.28523      1034.6434     -496.24153      0              100.77309      0              0              9.378963       9.7788964      0.2            91.715907    
     25300   0.24668903     0.0018111327   0.0018111327   0              0              611.45666      1546.6325     -323.87229      0             -161.59961      0              0              9.378001       9.7731937      0.2            91.65302     
     25400   0.17871111     0.0018911505   0.0018911505   0              0              390.9278       539.56715      242.13797      0             -461.53045      0              0              9.3770391      9.7665782      0.2            91.581586    
     25500   0.20490265     0.001881756    0.001881756    0              0              612.68442      851.73191      373.50476      0             -235.33618      0              0              9.3760772      9.7693987      0.2            91.598636    
     25600   0.25955752     0.0017000347   0.0017000347   0              0              531.72402      1075.4959     -12.179331      0              398.05144      0              0              9.3751152      9.7683226      0.2            91.57915     
     25700   0.22363561     0.0018700351   0.0018700351   0              0              485.18531      1269.6084     -299.35706      0              316.83038      0              0              9.3741533      9.7849358      0.2            91.725488    
     25800   0.19227812     0.0018547992   0.0018547992   0              0              219.42226      646.30374     -207.60654      0             -777.05069      0              0              9.3731914      9.7697546      0.2            91.57378     
     25900   0.19754228     0.0019463702   0.0019463702   0              0              1327.3338      2542.3085      112.21086      0             -551.2479       0              0              9.3722295      9.7655188      0.2            91.524683    
     26000   0.17088197     0.0017503538   0.0017503538   0              0              1180.7297      1988.1588      373.14549      0              178.05094      0              0              9.3712675      9.7707218      0.2            91.564048    
     26100   0.19021153     0.0017488242   0.0017488242   0              0              1326.4611      2420.6144      232.1558       0              275.84806      0              0              9.3703056      9.7759302      0.2            91.603453    
     26200   0.21955288     0.0018719129   0.0018719129   0              0              884.8322       1942.9222     -173.36972      0             -383.73077      0              0              9.3693437      9.7741928      0.2            91.577771    
     26300   0.24329169     0.0019560238   0.0019560238   0              0              792.22166      1865.5125     -281.21962      0             -74.32844       0              0              9.3683817      9.7696292      0.2            91.525616    
     26400   0.23055436     0.0017598438   0.0017598438   0              0              749.72942      1615.1999     -115.88775      0              179.01697      0              0              9.3674198      9.7616972      0.2            91.441916    
     26500   0.16887156     0.0017378696   0.0017378696   0              0              1298.5032      2355.7782      241.07297      0              172.18407      0              0              9.3664579      9.7521618      0.2            91.343212    
     26600   0.20703255     0.0018025882   0.0018025882   0              0              1197.9569      1987.4644      408.30101      0             -995.47297      0              0              9.3654959      9.7516131      0.2            91.328692    
     26700   0.19257945     0.0018963391   0.0018963391   0              0              753.61503      1381.9805      125.08509      0             -867.36437      0              0              9.364534       9.758117       0.2            91.380218    
     26800   0.19406724     0.0017899395   0.0017899395   0              0              230.76727      890.63404     -429.24344      0             -532.09631      0              0              9.3635721      9.7686715      0.2            91.469659    
     26900   0.23118906     0.0017826108   0.0017826108   0              0              537.95835      1390.6518     -314.95561      0             -268.24414      0              0              9.3626101      9.7749587      0.2            91.519127    
     27000   0.23514027     0.0018604941   0.0018604941   0              0              886.60212      1597.2303      175.81188      0              362.20761      0              0              9.3616482      9.7739201      0.2            91.500001    
     27100   0.23389597     0.0018460235   0.0018460235   0              0              1286.6919      2162.7356      410.48873      0             -316.14485      0              0              9.3606863      9.7689137      0.2            91.443736    
     27200   0.17030608     0.0019570383   0.0019570383   0              0              797.66768      1376.1454      219.08918      0             -41.346124      0              0              9.3597243      9.7802946      0.2            91.540861    
     27300   0.18410724     0.001678761    0.001678761    0              0              178.06061      600.8861      -244.91155      0              362.06046      0              0              9.3587624      9.7928871      0.2            91.649304    
     27400   0.18638823     0.0016590357   0.0016590357   0              0              24.530827      475.26247     -426.3619       0              123.0213       0              0              9.3578005      9.7976725      0.2            91.684664    
     27500   0.22531558     0.0018436408   0.0018436408   0              0              394.70107      927.973       -138.69773      0             -51.333779      0              0              9.3568385      9.8071846      0.2            91.764243    
     27600   0.17361588     0.001812665    0.001812665    0              0              861.29955      1325.0574      397.37424      0              394.28444      0              0              9.3558766      9.804416       0.2            91.728906    
     27700   0.2192594      0.0019818687   0.0019818687   0              0              667.98287      974.64436      361.13949      0             -69.785861      0              0              9.3549147      9.7932114      0.2            91.614657    
     27800   0.22997312     0.0018580237   0.0018580237   0              0              727.30301      1770.0598     -315.6066       0              877.2579       0              0              9.3539527      9.7986398      0.2            91.656014    
     27900   0.18263702     0.0020834546   0.0020834546   0              0              88.735832      838.61214     -661.27534      0              449.22793      0              0              9.3529908      9.8094673      0.2            91.747857    
     28000   0.25379497     0.0019971964   0.0019971964   0              0              549.85474      1311.1403     -211.5788       0              479.96724      0              0              9.3520289      9.8245053      0.2            91.879057    
[...]
     43000   0.23100477     0.0025604233   0.0025604233   0              0              893.89826      1651.9519      135.687        0              98.453399      0              0              9.2077391      9.975633       0.2            91.853026    
     43100   0.22387421     0.0025452093   0.0025452093   0              0              717.09853      1277.8087      156.21687      0             -398.83949      0              0              9.2067771      9.9713356      0.2            91.803865    
     43200   0.22511478     0.0023742495   0.0023742495   0              0              1035.1881      1833.8669      236.37307      0              343.18232      0              0              9.2058152      9.9643898      0.2            91.730331    
     43300   0.18388563     0.0024665449   0.0024665449   0              0              752.21174      1329.4629      174.80664      0              756.88393      0              0              9.2048533      9.9769386      0.2            91.836256    
     43400   0.14759842     0.0025318528   0.0025318528   0              0              447.8764       979.72642     -84.151197      0              293.93214      0              0              9.2038913      9.980879       0.2            91.862926    
     43500   0.19208151     0.0025260369   0.0025260369   0              0              343.24849      849.42039     -163.09178      0              756.76749      0              0              9.2029294      9.9823313      0.2            91.86669     
     43600   0.21210295     0.0024356216   0.0024356216   0              0              603.90681      1356.6        -148.95583      0              152.71908      0              0              9.2019675      9.9772055      0.2            91.809921    
     43700   0.18346417     0.0025818579   0.0025818579   0              0              516.96777      920.55544      113.25208      0              61.159949      0              0              9.2010055      9.9782922      0.2            91.810321    
     43800   0.23598552     0.0023804457   0.0023804457   0              0              327.4557       445.7529       209.00607      0              561.47778      0              0              9.2000436      9.9797193      0.2            91.813852    
     43900   0.24122588     0.0025349336   0.0025349336   0              0              422.5147       781.67307      63.218978      0             -179.90858      0              0              9.1990817      9.9797512      0.2            91.804546    
     44000   0.22860991     0.0023666723   0.0023666723   0              0              732.9821       1589.5484     -123.74503      0             -183.20148      0              0              9.1981197      9.9811918      0.2            91.808197    
     44100   0.13919219     0.0023158581   0.0023158581   0              0              115.33997      459.17593     -228.67067      0             -380.46382      0              0              9.1971578      9.9845133      0.2            91.829145    
     44200   0.15682228     0.0024081001   0.0024081001   0              0              162.26946      503.94375     -179.55121      0             -50.593522      0              0              9.1961959      9.9863443      0.2            91.836378    
     44300   0.23731627     0.0024327316   0.0024327316   0              0              921.76527      1862.1332     -18.797271      0              79.545948      0              0              9.1952339      9.9941048      0.2            91.898132    
     44400   0.21870113     0.0024016466   0.0024016466   0              0              755.92393      1183.5088      328.19872      0              188.40749      0              0              9.194272       9.993214       0.2            91.880328    
     44500   0.22195315     0.0025216342   0.0025216342   0              0              334.61574      372.31552      296.74537      0             -435.16486      0              0              9.1933101      9.9959963      0.2            91.896293    
     44600   0.1957728      0.0025000535   0.0025000535   0              0              504.93057      920.49443      89.202323      0              252.92394      0              0              9.1923481      10.003086      0.2            91.951853    
     44700   0.27783219     0.002306245    0.002306245    0              0              307.41547      897.43929     -282.7749       0              228.3926       0              0              9.1913862      10.009568      0.2            92.001805    
     44800   0.22298325     0.0023164646   0.0023164646   0              0              141.86909      655.18391     -371.5798       0              168.7145       0              0              9.1904243      10.01075       0.2            92.00304     
     44900   0.19807903     0.0023520187   0.0023520187   0              0              243.77211      727.86988     -240.47679      0              236.07613      0              0              9.1894624      10.014705      0.2            92.029758    
     45000   0.23084743     0.0024160237   0.0024160237   0              0              870.3791       1501.1106      239.50553      0              536.83218      0              0              9.1885004      10.014502      0.2            92.01826     
     45100   0.19855083     0.00224898     0.00224898     0              0              1154.9236      1749.4346      560.27091      0              254.00683      0              0              9.1875385      10.011072      0.2            91.977112    
     45200   0.22028285     0.0026646173   0.0026646173   0              0              426.02349      553.29654      298.60355      0             -4.2695671      0              0              9.1865766      10.002301      0.2            91.886903    
     45300   0.19337688     0.0024106768   0.0024106768   0              0              319.21639      863.94455     -225.68112      0             -220.86129      0              0              9.1856146      10.018012      0.2            92.021599    
     45400   0.1897187      0.0024426088   0.0024426088   0              0             -78.30338       403.3793      -560.12751      0              217.06526      0              0              9.1846527      10.011092      0.2            91.948403    
     45500   0.20935961     0.0027709077   0.0027709077   0              0             -133.92223     -31.785089     -236.20752      0              136.76481      0              0              9.1836908      10.00621       0.2            91.893939    
     45600   0.19432735     0.0024489521   0.0024489521   0              0              618.00735      1063.7652      172.09425      0              10.824753      0              0              9.1827288      10.024432      0.2            92.051637    
     45700   0.23114975     0.0023918781   0.0023918781   0              0              806.41722      1020.3853      592.29118      0              146.75532      0              0              9.1817669      10.024005      0.2            92.038081    
     45800   0.17144135     0.0023960754   0.0023960754   0              0              485.03706      319.03312      650.93453      0              443.45437      0              0              9.180805       10.021773      0.2            92.007943    
     45900   0.17890912     0.0026205798   0.0026205798   0              0              454.31634      832.64963      75.848769      0             -27.315007      0              0              9.179843       10.027527      0.2            92.051122    
     46000   0.18595071     0.0026245629   0.0026245629   0              0              218.75538      1002.5345     -565.17894      0             -51.54989       0              0              9.1788811      10.026321      0.2            92.030407    
     46100   0.20015797     0.0025919693   0.0025919693   0              0             -14.549973      733.12464     -762.36797      0             -611.50434      0              0              9.1779192      10.020129      0.2            91.963931    
     46200   0.19920691     0.0023799276   0.0023799276   0              0              67.628704      504.08306     -368.99948      0             -386.21049      0              0              9.1769572      10.018092      0.2            91.935604    
     46300   0.20477103     0.0024282944   0.0024282944   0              0              708.2242       968.41481      447.90116      0             -637.53532      0              0              9.1759953      10.012731      0.2            91.876773    
     46400   0.21913846     0.0024764477   0.0024764477   0              0              729.83197      567.12753      892.40807      0              254.63396      0              0              9.1750334      10.013024      0.2            91.869832    
     46500   0.28358014     0.0023972132   0.0023972132   0              0              771.54001      910.48293      632.44935      0              194.2042       0              0              9.1740714      10.030498      0.2            92.020503    
     46600   0.23476922     0.0024585781   0.0024585781   0              0              173.60534      531.76616     -184.69847      0              13.858239      0              0              9.1731095      10.037885      0.2            92.078616    
     46700   0.19944355     0.0025008429   0.0025008429   0              0             -63.93251       710.48809     -838.50457      0             -308.02666      0              0              9.1721476      10.041934      0.2            92.1061      
     46800   0.24609645     0.002457471    0.002457471    0              0             -292.59126      178.59368     -763.92744      0              164.17557      0              0              9.1711856      10.044265      0.2            92.117823    
     46900   0.21297711     0.0025301793   0.0025301793   0              0             -107.08004     -31.629127     -182.68295      0             -400.99245      0              0              9.1702237      10.0315        0.2            91.991102    
     47000   0.22756139     0.0024842872   0.0024842872   0              0              676.83268      788.42193      565.09028      0             -944.25152      0              0              9.1692618      10.021385      0.2            91.888705    
     47100   0.19270367     0.0024395175   0.0024395175   0              0              891.61489      759.70052      1023.3915      0             -342.56225      0              0              9.1682998      10.019568      0.2            91.862405    
     47200   0.18149363     0.0026446925   0.0026446925   0              0              233.29266     -243.60017      710.04684      0             -113.99653      0              0              9.1673379      10.019367      0.2            91.850927    
     47300   0.1818486      0.0023822618   0.0023822618   0              0             -55.506402      178.37298     -289.50682      0             -688.29068      0              0              9.166376       10.023667      0.2            91.880699    
     47400   0.21301812     0.002348618    0.002348618    0              0             -416.19958      166.33793     -998.89143      0             -224.96956      0              0              9.1654141      10.04207       0.2            92.039729    
     47500   0.18865494     0.0024756132   0.0024756132   0              0             -281.03014      365.49829     -927.70504      0             -38.281937      0              0              9.1644521      10.055481      0.2            92.152975    
     47600   0.17335018     0.0026181484   0.0026181484   0              0              89.228618      218.0638      -39.737154      0              872.23468      0              0              9.1634902      10.039135      0.2            91.993512    
     47700   0.18320669     0.0023045612   0.0023045612   0              0              1226.1409      1788.3074      663.84321      0              466.39159      0              0              9.1625283      10.03679       0.2            91.96237     
     47800   0.18275214     0.0022560137   0.0022560137   0              0              805.50634      743.27093      867.57075      0              353.20761      0              0              9.1615663      10.041641      0.2            91.997156    
     47900   0.22360432     0.0025684462   0.0025684462   0              0              780.16162      1065.9468      494.20973      0             -322.89484      0              0              9.1606044      10.042919      0.2            91.999208    
     48000   0.24993432     0.0025270616   0.0025270616   0              0              114.34959      195.29411      33.261271      0             -40.287973      0              0              9.1596425      10.051261      0.2            92.065961    
     48100   0.1865319      0.0024192992   0.0024192992   0              0             -140.69252      177.23866     -458.7716       0             -8.2326074      0              0              9.1586805      10.045126      0.2            92.0001      
     48200   0.2123917      0.002545112    0.002545112    0              0              223.62397      908.29488     -461.23116      0              155.82044      0              0              9.1577186      10.049986      0.2            92.034946    
     48300   0.19683754     0.0024234115   0.0024234115   0              0             -63.152518      74.320051     -200.77699      0             -144.8049       0              0              9.1567567      10.058348      0.2            92.101844    
     48400   0.23003998     0.0024803431   0.0024803431   0              0              115.0295       3.3203081      226.6045       0              176.73962      0              0              9.1557947      10.059035      0.2            92.098463    
     48500   0.19084376     0.0023709367   0.0023709367   0              0              112.00355     -103.02757      326.87036      0             -432.72371      0              0              9.1548328      10.062072      0.2            92.116586    
     48600   0.22421885     0.0025047194   0.0025047194   0              0              426.95404      466.59913      387.12716      0             -379.4741       0              0              9.1538709      10.073462      0.2            92.211171    
     48700   0.20726734     0.0025954659   0.0025954659   0              0             -402.87701     -893.39939      87.493221      0             -484.60874      0              0              9.1529089      10.07402       0.2            92.206584    
     48800   0.21958341     0.0024789325   0.0024789325   0              0              13.693444      279.27157     -252.05957      0              159.55678      0              0              9.151947       10.065034      0.2            92.114659    
     48900   0.23940929     0.0025958382   0.0025958382   0              0              56.47776       536.33673     -423.51202      0              88.304018      0              0              9.1509851      10.059472      0.2            92.054075    
     49000   0.18130433     0.0024026558   0.0024026558   0              0              325.35047      1155.151      -504.66039      0             -72.615422      0              0              9.1500231      10.060123      0.2            92.050358    
     49100   0.18782902     0.002675533    0.002675533    0              0              234.83498      596.57678     -127.03374      0             -202.17634      0              0              9.1490612      10.065603      0.2            92.090821    
     49200   0.22167401     0.002375916    0.002375916    0              0              370.06333      406.89822      333.08869      0             -266.82214      0              0              9.1480993      10.05959       0.2            92.026127    
     49300   0.21751559     0.0025641974   0.0025641974   0              0              1157.2783      1732.0026      582.39979      0              650.80301      0              0              9.1471373      10.062271      0.2            92.040976    
     49400   0.22859073     0.0026634419   0.0026634419   0              0              792.59846      1130.494       454.56631      0             -116.85849      0              0              9.1461754      10.053296      0.2            91.949211    
     49500   0.18609999     0.0024311508   0.0024311508   0              0              191.01262      349.41542      32.457743      0             -515.48526      0              0              9.1452135      10.062072      0.2            92.0198      
     49600   0.17112948     0.0023851599   0.0023851599   0              0              24.876786      306.43186     -256.83863      0             -274.96243      0              0              9.1442515      10.065869      0.2            92.044842    
     49700   0.17624466     0.0026258806   0.0026258806   0              0             -504.91973     -693.41554     -316.58         0              374.58755      0              0              9.1432896      10.053188      0.2            91.919206    
     49800   0.21750584     0.0025699652   0.0025699652   0              0              287.12228      947.20423     -373.12924      0             -165.29911      0              0              9.1423277      10.054553      0.2            91.922019    
     49900   0.19096314     0.0024795756   0.0024795756   0              0              205.05563      456.90567     -46.921173      0              285.89952      0              0              9.1413657      10.04228       0.2            91.800151    
     50000   0.25500223     0.0027452784   0.0027452784   0              0              410.63706      661.6533       159.44394      0             -212.2796       0              0              9.1404038      10.043551      0.2            91.802108    
     50100   0.2354063      0.0026502166   0.0026502166   0              0              403.03963      293.1333       512.77648      0             -12.18256       0              0              9.1394419      10.040554      0.2            91.765063    
     50200   0.20354613     0.002707874    0.002707874    0              0              792.01743      1183.2708      400.60055      0             -98.212915      0              0              9.13848        10.036486      0.2            91.718228    
     50213   0.27173258     0.0025193505   0.0025193505   0              0              541.32478      944.63153      137.86704      0             -249.51625      0              0              9.1383549      10.036682      0.2            91.718762    
Loop time of 0.950975 on 1 procs for 50000 steps with 50 atoms

Performance: 45427.082 ns/day, 0.001 hours/ns, 52577.641 timesteps/s
100.0% CPU use with 1 MPI tasks x 1 OpenMP threads

MPI task timing breakdown:
Section |  min time  |  avg time  |  max time  |%varavg| %total
---------------------------------------------------------------
Pair    | 0          | 0          | 0          |   0.0 |  0.00
Bond    | 0.13745    | 0.13745    | 0.13745    |   0.0 | 14.45
Neigh   | 0          | 0          | 0          |   0.0 |  0.00
Comm    | 0.30875    | 0.30875    | 0.30875    |   0.0 | 32.47
Output  | 0.0061997  | 0.0061997  | 0.0061997  |   0.0 |  0.65
Modify  | 0.47469    | 0.47469    | 0.47469    |   0.0 | 49.92
Other   |            | 0.02389    |            |       |  2.51

Nlocal:             50 ave          50 max          50 min
Histogram: 1 0 0 0 0 0 0 0 0 0
Nghost:            418 ave         418 max         418 min
Histogram: 1 0 0 0 0 0 0 0 0 0
Neighs:              0 ave           0 max           0 min
Histogram: 1 0 0 0 0 0 0 0 0 0

Total # of neighbors = 0
Ave neighs/atom = 0
Ave special neighs/atom = 20
Neighbor list builds = 0
Dangerous builds = 0


Total wall time: 0:00:00
