ITEM: TIMESTEP
500
ITEM: NUMBER OF ATOMS
66
ITEM: BOX BOUNDS pp pp pp
-4.8250711402840958e+00 4.8250711402840958e+00
-4.8239779294240357e+00 4.8239779294240357e+00
-1.0000000000000001e-01 1.0000000000000001e-01
ITEM: ATOMS id type xs ys zs
34 1 0.0957134 0.0865709 0.50084
36 1 0.195034 0.023235 0.500145
32 1 0.31285 0.0221837 0.499245
54 1 0.3752 0.10199 0.500448
60 1 0.429008 0.0251485 0.500363
22 1 0.587654 0.0459814 0.501971
7 1 0.731232 0.0445157 0.501855
75 1 0.838876 0.0637249 0.50016
49 1 0.898864 0.112063 0.499223
33 1 0.988208 0.0313276 0.499791
55 1 0.0301657 0.171938 0.499891
20 1 0.253445 0.144461 0.498808
66 1 0.354181 0.172356 0.500093
58 1 0.41607 0.214766 0.499375
38 1 0.48161 0.121064 0.499723
26 1 0.632443 0.151857 0.500411
61 1 0.978158 0.115787 0.501128
39 1 0.929931 0.21965 0.501199
5 1 0.0198768 0.306112 0.499885
29 1 0.144288 0.35531 0.499194
63 1 0.420022 0.292788 0.4986
16 1 0.532572 0.265219 0.500777
53 1 0.657858 0.249635 0.49881
21 1 0.85605 0.322237 0.500964
37 1 0.057659 0.44386 0.500081
14 1 0.27747 0.424511 0.498693
18 1 0.467469 0.384081 0.50072
40 1 0.597815 0.443502 0.500037
9 1 0.721707 0.368521 0.50114
43 1 0.829613 0.439555 0.498406
24 1 0.930123 0.423558 0.49981
12 1 0.144464 0.561549 0.499579
45 1 0.254958 0.538522 0.500986
70 1 0.381063 0.453153 0.501291
42 1 0.345505 0.538698 0.501293
74 1 0.509763 0.482515 0.501076
56 1 0.43184 0.503487 0.498093
13 1 0.573987 0.573539 0.500191
15 1 0.728537 0.517858 0.500634
30 1 0.86263 0.534017 0.499954
47 1 0.973275 0.535155 0.500931
78 1 0.0347603 0.589016 0.498719
69 1 0.0779418 0.64072 0.499975
59 1 0.168863 0.674394 0.500317
6 1 0.938704 0.657584 0.49935
10 1 0.0818858 0.747771 0.499613
17 1 0.231618 0.770941 0.500386
19 1 0.476457 0.774618 0.500322
44 1 0.66423 0.660101 0.499022
50 1 0.555655 0.695878 0.498119
8 1 0.785683 0.671442 0.499918
72 1 0.858496 0.750945 0.499839
62 1 0.982089 0.763108 0.501331
67 1 0.108536 0.863458 0.502455
41 1 0.178421 0.900446 0.502022
52 1 0.355701 0.775102 0.500992
57 1 0.598142 0.802349 0.499593
64 1 0.623241 0.730314 0.501034
27 1 0.704272 0.761562 0.500407
11 1 0.823564 0.854064 0.500724
76 1 0.922192 0.777371 0.499863
2 1 0.976034 0.878968 0.498525
25 1 0.0947963 0.962132 0.500932
51 1 0.258345 0.930451 0.500337
4 1 0.390438 0.896163 0.499498
31 1 0.887183 0.983945 0.50052
ITEM: TIMESTEP
750
ITEM: NUMBER OF ATOMS
66
ITEM: BOX BOUNDS pp pp pp
-4.8238646601585229e+00 4.8238646601585229e+00
-4.8262429458369676e+00 4.8262429458369676e+00
-1.0000000000000001e-01 1.0000000000000001e-01
ITEM: ATOMS id type xs ys zs
34 1 0.0967617 0.0872748 0.499925
36 1 0.195643 0.0234686 0.499845
32 1 0.312716 0.0226789 0.499174
54 1 0.374924 0.102019 0.499454
60 1 0.428877 0.0246622 0.500082
22 1 0.587402 0.0468834 0.503242
7 1 0.730664 0.0448613 0.501988
75 1 0.838158 0.0643884 0.499859
49 1 0.898179 0.112262 0.498776
33 1 0.98849 0.0319645 0.49851
55 1 0.0307805 0.171322 0.498696
20 1 0.253426 0.144735 0.500306
66 1 0.354458 0.172614 0.500233
58 1 0.416666 0.214376 0.500143
38 1 0.481452 0.121543 0.498036
26 1 0.631924 0.152243 0.499866
61 1 0.977223 0.116432 0.502022
39 1 0.93082 0.219523 0.503909
5 1 0.019667 0.30692 0.499102
29 1 0.144267 0.355202 0.500605
63 1 0.421136 0.292404 0.498122
16 1 0.533194 0.264964 0.501304
53 1 0.658147 0.24985 0.499841
21 1 0.856101 0.322115 0.501408
37 1 0.0576657 0.443905 0.497414
14 1 0.276829 0.425115 0.498311
18 1 0.468205 0.383991 0.499233
40 1 0.597477 0.44354 0.501409
9 1 0.721455 0.368716 0.502259
43 1 0.829623 0.439643 0.498109
24 1 0.929794 0.424126 0.498437
12 1 0.145414 0.56206 0.499017
45 1 0.255621 0.538284 0.500148
70 1 0.381214 0.452779 0.50122
42 1 0.345989 0.537269 0.501281
74 1 0.510042 0.483291 0.500285
56 1 0.432259 0.50305 0.500105
13 1 0.574177 0.57408 0.500822
15 1 0.728006 0.517469 0.500238
30 1 0.863045 0.534646 0.501231
47 1 0.973801 0.53535 0.50029
78 1 0.035446 0.589159 0.498026
69 1 0.0790027 0.640578 0.499702
59 1 0.169498 0.675151 0.500978
6 1 0.939312 0.657309 0.500474
10 1 0.0822132 0.747877 0.498999
17 1 0.231542 0.771456 0.500947
19 1 0.477002 0.77581 0.501404
44 1 0.663901 0.660342 0.500708
50 1 0.555998 0.696748 0.49858
8 1 0.785596 0.671879 0.50095
72 1 0.859011 0.750825 0.500408
62 1 0.982272 0.762745 0.500891
67 1 0.108672 0.863792 0.502452
41 1 0.178545 0.900107 0.501895
52 1 0.355753 0.77452 0.501805
57 1 0.598608 0.80251 0.500935
64 1 0.623676 0.730342 0.500482
27 1 0.704336 0.761327 0.499006
11 1 0.82493 0.854064 0.500396
76 1 0.922816 0.776583 0.501526
2 1 0.976508 0.878646 0.500965
25 1 0.0952009 0.962693 0.499864
51 1 0.258651 0.930395 0.499117
4 1 0.389342 0.896427 0.498169
31 1 0.887376 0.984356 0.501122
ITEM: TIMESTEP
1000
ITEM: NUMBER OF ATOMS
66
ITEM: BOX BOUNDS pp pp pp
-4.8226581800329491e+00 4.8226581800329491e+00
-4.8261840146955528e+00 4.8261840146955528e+00
-1.0000000000000001e-01 1.0000000000000001e-01
ITEM: ATOMS id type xs ys zs
34 1 0.0975989 0.0871877 0.499887
36 1 0.195863 0.0233951 0.500607
32 1 0.313201 0.0225001 0.500057
54 1 0.375684 0.101944 0.498288
60 1 0.428828 0.0248817 0.499832
22 1 0.588194 0.0470002 0.502531
7 1 0.732018 0.0437143 0.501062
75 1 0.839311 0.0636684 0.50087
49 1 0.898212 0.113086 0.498254
33 1 0.989413 0.0330834 0.499345
55 1 0.0311377 0.171676 0.498491
20 1 0.254629 0.145474 0.50101
66 1 0.355456 0.172378 0.499966
58 1 0.416991 0.214892 0.500519
38 1 0.481624 0.121755 0.498977
26 1 0.633148 0.151906 0.500241
61 1 0.97721 0.117455 0.502133
39 1 0.931394 0.219455 0.504385
5 1 0.020201 0.306124 0.499485
29 1 0.144431 0.354803 0.501136
63 1 0.420633 0.292481 0.496587
16 1 0.53269 0.265209 0.501429
53 1 0.657565 0.249508 0.500967
21 1 0.856496 0.322185 0.497923
37 1 0.0575676 0.44329 0.498437
14 1 0.276476 0.423939 0.499271
18 1 0.467824 0.38415 0.500103
40 1 0.598236 0.443892 0.501857
9 1 0.721454 0.368334 0.501375
43 1 0.830516 0.438286 0.500354
24 1 0.930554 0.423611 0.496163
12 1 0.144654 0.561243 0.499614
45 1 0.255648 0.537795 0.499405
70 1 0.380245 0.452625 0.501488
42 1 0.345884 0.536905 0.502218
74 1 0.510385 0.483457 0.501598
56 1 0.432159 0.502349 0.499284
13 1 0.57411 0.574202 0.500045
15 1 0.728857 0.517463 0.500054
30 1 0.862761 0.533484 0.50077
47 1 0.973624 0.535247 0.502858
78 1 0.0351191 0.589001 0.4988
69 1 0.0782321 0.640707 0.49976
59 1 0.168773 0.67408 0.50154
6 1 0.938722 0.657006 0.500046
10 1 0.0819395 0.747976 0.49975
17 1 0.23187 0.770701 0.498508
19 1 0.477469 0.775989 0.500967
44 1 0.663769 0.661358 0.501818
50 1 0.556924 0.696567 0.499814
8 1 0.785774 0.672153 0.49958
72 1 0.858928 0.751631 0.500942
62 1 0.98227 0.762994 0.501024
67 1 0.109262 0.863548 0.502063
41 1 0.179242 0.90048 0.501806
52 1 0.356674 0.774316 0.499656
57 1 0.599521 0.803143 0.500905
64 1 0.624444 0.731737 0.499492
27 1 0.705294 0.762425 0.497602
11 1 0.823624 0.855103 0.499232
76 1 0.9228 0.7772 0.502118
2 1 0.976423 0.878883 0.502176
25 1 0.095356 0.962357 0.498648
51 1 0.259511 0.930954 0.498777
4 1 0.389837 0.895996 0.499896
31 1 0.888578 0.984373 0.500358
ITEM: TIMESTEP
1250
ITEM: NUMBER OF ATOMS
66
ITEM: BOX BOUNDS pp pp pp
-4.8214516999073762e+00 4.8214516999073762e+00
-4.8273720243487581e+00 4.8273720243487581e+00
-1.0000000000000001e-01 1.0000000000000001e-01
ITEM: ATOMS id type xs ys zs
34 1 0.0976087 0.0878547 0.498915
36 1 0.196181 0.0235113 0.501063
32 1 0.313789 0.0226395 0.499994
54 1 0.376258 0.10168 0.49777
60 1 0.429859 0.0249356 0.499083
22 1 0.587727 0.0469497 0.503901
7 1 0.73158 0.0439189 0.499324
75 1 0.838803 0.0637863 0.501054
49 1 0.898446 0.112174 0.498162
33 1 0.989208 0.0333551 0.50014
55 1 0.0317879 0.1722 0.499148
20 1 0.25372 0.14476 0.501089
66 1 0.354725 0.171945 0.500111
58 1 0.41693 0.213896 0.500993
38 1 0.48273 0.121867 0.499308
26 1 0.632549 0.151711 0.499722
61 1 0.9782 0.117678 0.50284
39 1 0.931142 0.21869 0.504476
5 1 0.0190683 0.306457 0.499239
29 1 0.144234 0.355107 0.501289
63 1 0.420314 0.291639 0.496915
16 1 0.532532 0.264655 0.501737
53 1 0.657821 0.249627 0.502607
21 1 0.855368 0.321657 0.497778
37 1 0.0575566 0.443494 0.497303
14 1 0.277108 0.423832 0.497126
18 1 0.467771 0.383267 0.50183
40 1 0.597542 0.443634 0.502634
9 1 0.720513 0.367998 0.50137
43 1 0.829276 0.438051 0.499939
24 1 0.929848 0.423664 0.494723
12 1 0.144772 0.561081 0.498912
45 1 0.256138 0.537472 0.499261
70 1 0.381145 0.451876 0.505074
42 1 0.345989 0.537322 0.50368
74 1 0.50998 0.482845 0.501519
56 1 0.431983 0.502271 0.49983
13 1 0.57424 0.573776 0.499185
15 1 0.728344 0.517449 0.501049
30 1 0.863033 0.532788 0.500162
47 1 0.973866 0.535506 0.503282
78 1 0.0352715 0.589339 0.498732
69 1 0.0782909 0.641114 0.500927
59 1 0.168605 0.673696 0.500853
6 1 0.938425 0.657218 0.499218
10 1 0.0825533 0.748524 0.499115
17 1 0.233103 0.769198 0.499073
19 1 0.477936 0.775219 0.502008
44 1 0.662746 0.661938 0.503369
50 1 0.556843 0.696235 0.500854
8 1 0.785606 0.672591 0.498716
72 1 0.859026 0.752453 0.500032
62 1 0.982264 0.76291 0.498907
67 1 0.108817 0.864753 0.503912
41 1 0.178961 0.900926 0.500574
52 1 0.357207 0.774846 0.498715
57 1 0.599066 0.804959 0.499355
64 1 0.623189 0.732816 0.498771
27 1 0.704625 0.762652 0.499021
11 1 0.82385 0.855467 0.499753
76 1 0.922839 0.777568 0.502481
2 1 0.976914 0.878714 0.501195
25 1 0.0956114 0.963407 0.498408
51 1 0.259592 0.930594 0.499537
4 1 0.390486 0.896579 0.498667
31 1 0.888491 0.984424 0.498972
ITEM: TIMESTEP
1500
ITEM: NUMBER OF ATOMS
66
ITEM: BOX BOUNDS pp pp pp
-4.8202452197818033e+00 4.8202452197818033e+00
-4.8200010901539887e+00 4.8200010901539887e+00
-1.0000000000000001e-01 1.0000000000000001e-01
ITEM: ATOMS id type xs ys zs
34 1 0.0976904 0.0881641 0.499091
36 1 0.195807 0.023051 0.500266
32 1 0.312904 0.0220649 0.4998
54 1 0.375667 0.10184 0.496273
60 1 0.429768 0.02513 0.501074
22 1 0.587573 0.0453094 0.503283
7 1 0.730944 0.0433074 0.500031
75 1 0.838318 0.0636382 0.500424
49 1 0.898172 0.112062 0.499127
33 1 0.989195 0.034229 0.502151
55 1 0.0310926 0.172719 0.499124
20 1 0.254372 0.144326 0.502192
66 1 0.354814 0.172302 0.501751
58 1 0.416642 0.214398 0.500606
38 1 0.482514 0.121711 0.499482
26 1 0.631933 0.150944 0.499855
61 1 0.977451 0.118301 0.504458
39 1 0.930341 0.219297 0.503174
5 1 0.0199064 0.305621 0.498937
29 1 0.14365 0.355644 0.500595
63 1 0.419798 0.292231 0.497317
16 1 0.532346 0.264902 0.503145
53 1 0.657547 0.24937 0.503705
21 1 0.855497 0.321295 0.498027
37 1 0.0569654 0.443195 0.495901
14 1 0.277744 0.423275 0.499102
18 1 0.467659 0.383229 0.499835
40 1 0.597608 0.442597 0.503414
9 1 0.720704 0.367678 0.501027
43 1 0.828706 0.438083 0.500787
24 1 0.929395 0.423044 0.494714
12 1 0.144591 0.561058 0.498982
45 1 0.255336 0.537176 0.499717
70 1 0.381535 0.452148 0.502336
42 1 0.345673 0.536576 0.505893
74 1 0.510182 0.481829 0.501602
56 1 0.433052 0.502797 0.499107
13 1 0.573919 0.572928 0.499516
15 1 0.727716 0.516704 0.501111
30 1 0.862495 0.533156 0.50081
47 1 0.973603 0.534693 0.502264
78 1 0.0349539 0.589521 0.497985
69 1 0.078294 0.641133 0.49984
59 1 0.169325 0.673891 0.501727
6 1 0.937413 0.656809 0.499
10 1 0.0821918 0.748677 0.497459
17 1 0.232253 0.770851 0.498613
19 1 0.478221 0.775417 0.503548
44 1 0.662493 0.661663 0.506086
50 1 0.557459 0.696159 0.502221
8 1 0.784857 0.670725 0.498747
72 1 0.858022 0.751395 0.500087
62 1 0.981893 0.762805 0.4998
67 1 0.10749 0.864544 0.504421
41 1 0.17832 0.900552 0.501437
52 1 0.357725 0.773447 0.500123
57 1 0.600404 0.804988 0.498869
64 1 0.623678 0.732486 0.497472
27 1 0.705623 0.762354 0.500177
11 1 0.823077 0.855137 0.501622
76 1 0.922261 0.777285 0.504975
2 1 0.976771 0.878712 0.50045
25 1 0.0951813 0.962963 0.49974
51 1 0.259055 0.930082 0.502291
4 1 0.38994 0.896238 0.49983
31 1 0.888677 0.98457 0.501016
ITEM: TIMESTEP
1750
ITEM: NUMBER OF ATOMS
66
ITEM: BOX BOUNDS pp pp pp
-4.8190387396562304e+00 4.8190387396562304e+00
-4.8205160005384533e+00 4.8205160005384533e+00
-1.0000000000000001e-01 1.0000000000000001e-01
ITEM: ATOMS id type xs ys zs
34 1 0.0973273 0.0877522 0.500267
36 1 0.195558 0.0224233 0.501271
32 1 0.313108 0.0217741 0.50141
54 1 0.374502 0.101539 0.497341
60 1 0.429172 0.0246904 0.500274
22 1 0.5873 0.0455592 0.504533
7 1 0.729937 0.0441127 0.499797
75 1 0.83809 0.0636254 0.501241
49 1 0.898879 0.110943 0.499399
33 1 0.988608 0.0340371 0.502527
55 1 0.0316945 0.173271 0.497936
20 1 0.253404 0.144161 0.501831
66 1 0.354129 0.172114 0.501758
58 1 0.416121 0.213827 0.500121
38 1 0.481891 0.121374 0.498434
26 1 0.630459 0.152032 0.500345
61 1 0.978061 0.118612 0.504186
39 1 0.930375 0.21883 0.503536
5 1 0.0194304 0.30611 0.499691
29 1 0.144307 0.355764 0.500582
63 1 0.42029 0.291608 0.499025
16 1 0.532738 0.264065 0.503878
53 1 0.658128 0.249609 0.503095
21 1 0.85616 0.322231 0.497079
37 1 0.0576986 0.444456 0.494702
14 1 0.276883 0.424057 0.498266
18 1 0.468063 0.383287 0.500186
40 1 0.597468 0.443024 0.503603
9 1 0.721512 0.368007 0.500359
43 1 0.829864 0.438031 0.50065
24 1 0.930392 0.424167 0.493977
12 1 0.144671 0.562361 0.49767
45 1 0.254836 0.538132 0.50061
70 1 0.381374 0.451616 0.504003
42 1 0.345526 0.536796 0.505152
74 1 0.510095 0.482323 0.50022
56 1 0.432249 0.502456 0.497799
13 1 0.574486 0.573361 0.499884
15 1 0.727876 0.516835 0.500028
30 1 0.862871 0.533455 0.499772
47 1 0.973678 0.535784 0.500968
78 1 0.0348736 0.590038 0.496283
69 1 0.077895 0.642037 0.499239
59 1 0.16991 0.675185 0.498952
6 1 0.937574 0.65715 0.497993
10 1 0.0825077 0.749047 0.497461
17 1 0.232872 0.770814 0.499333
19 1 0.478292 0.775284 0.504076
44 1 0.662808 0.662036 0.505832
50 1 0.55787 0.696049 0.501662
8 1 0.78474 0.670918 0.500211
72 1 0.858399 0.750856 0.499318
62 1 0.982001 0.762202 0.499442
67 1 0.108243 0.864992 0.505673
41 1 0.178513 0.900876 0.498851
52 1 0.357652 0.774102 0.499805
57 1 0.600556 0.805715 0.499771
64 1 0.624277 0.732868 0.498302
27 1 0.705732 0.763272 0.500791
11 1 0.823976 0.854402 0.50177
76 1 0.922258 0.776657 0.503527
2 1 0.976478 0.877909 0.503025
25 1 0.0946165 0.962873 0.499577
51 1 0.2592 0.930173 0.50319
4 1 0.390907 0.896146 0.499808
31 1 0.888247 0.984566 0.501803
ITEM: TIMESTEP
2000
ITEM: NUMBER OF ATOMS
66
ITEM: BOX BOUNDS pp pp pp
-4.8178322595306566e+00 4.8178322595306566e+00
-4.8226775296171462e+00 4.8226775296171462e+00
-1.0000000000000001e-01 1.0000000000000001e-01
ITEM: ATOMS id type xs ys zs
34 1 0.0971365 0.0886379 0.500286
36 1 0.19506 0.0231387 0.499648
32 1 0.312512 0.022204 0.501307
54 1 0.374919 0.101148 0.495579
60 1 0.429751 0.024578 0.499813
22 1 0.587515 0.0450509 0.504499
7 1 0.732061 0.0442497 0.49929
75 1 0.839243 0.0639087 0.501401
49 1 0.898739 0.1123 0.500537
33 1 0.988527 0.0347737 0.501313
55 1 0.0315499 0.173966 0.497703
20 1 0.2534 0.144468 0.502656
66 1 0.35447 0.171687 0.50153
58 1 0.41619 0.213497 0.501035
38 1 0.48204 0.121423 0.498375
26 1 0.632217 0.151018 0.501115
61 1 0.978061 0.119193 0.504461
39 1 0.929882 0.219441 0.503109
5 1 0.0188856 0.306277 0.499939
29 1 0.144397 0.353753 0.50128
63 1 0.41955 0.291703 0.500711
16 1 0.532471 0.264161 0.502332
53 1 0.657107 0.249636 0.504676
21 1 0.855921 0.323061 0.495493
37 1 0.0582696 0.442985 0.494717
14 1 0.27592 0.425236 0.496602
18 1 0.467719 0.383019 0.5
40 1 0.597022 0.443635 0.502306
9 1 0.721032 0.368234 0.500296
43 1 0.829568 0.439295 0.499973
24 1 0.930438 0.424907 0.494162
12 1 0.144868 0.561381 0.497737
45 1 0.255469 0.538416 0.500285
70 1 0.380931 0.451298 0.502104
42 1 0.345795 0.537972 0.504771
74 1 0.509777 0.482043 0.499753
56 1 0.431916 0.501727 0.495913
13 1 0.57356 0.573575 0.49971
15 1 0.72759 0.517488 0.498991
30 1 0.86216 0.534108 0.499493
47 1 0.972912 0.535123 0.500826
78 1 0.0344 0.588912 0.495274
69 1 0.0772987 0.640506 0.49922
59 1 0.170002 0.674035 0.499489
6 1 0.938196 0.657715 0.498118
10 1 0.0825143 0.748173 0.496908
17 1 0.232576 0.770294 0.498538
19 1 0.478377 0.774432 0.504081
44 1 0.662548 0.662276 0.505903
50 1 0.557717 0.695509 0.503011
8 1 0.784837 0.67185 0.499974
72 1 0.858224 0.751402 0.498366
62 1 0.982198 0.762722 0.498084
67 1 0.107655 0.864786 0.505444
41 1 0.177894 0.901379 0.498115
52 1 0.357781 0.774009 0.497256
57 1 0.599699 0.805188 0.502213
64 1 0.623691 0.732683 0.497617
27 1 0.705167 0.762994 0.500053
11 1 0.822878 0.854926 0.50441
76 1 0.922599 0.776896 0.504221
2 1 0.975821 0.878698 0.504364
25 1 0.0940955 0.963696 0.498703
51 1 0.258905 0.930064 0.50288
4 1 0.390971 0.896114 0.499431
31 1 0.888708 0.984551 0.502937
ITEM: TIMESTEP
2250
ITEM: NUMBER OF ATOMS
66
ITEM: BOX BOUNDS pp pp pp
-4.8166257794050837e+00 4.8166257794050837e+00
-4.8261530791667919e+00 4.8261530791667919e+00
-1.0000000000000001e-01 1.0000000000000001e-01
ITEM: ATOMS id type xs ys zs
34 1 0.0974359 0.0880956 0.501277
36 1 0.195288 0.0226061 0.499601
32 1 0.313433 0.0212185 0.501191
54 1 0.375117 0.100784 0.497635
60 1 0.429692 0.0239975 0.497999
22 1 0.588131 0.0463995 0.503913
7 1 0.731619 0.0459141 0.498945
75 1 0.83809 0.0638163 0.498794
49 1 0.898903 0.111147 0.499204
33 1 0.988306 0.0338678 0.500545
55 1 0.0312999 0.173715 0.496187
20 1 0.253677 0.143376 0.50271
66 1 0.354471 0.171257 0.502006
58 1 0.416147 0.213372 0.502497
38 1 0.482052 0.120333 0.498817
26 1 0.632086 0.15238 0.50223
61 1 0.978217 0.118272 0.502854
39 1 0.929607 0.21867 0.501569
5 1 0.018593 0.306118 0.497258
29 1 0.144435 0.353898 0.502602
63 1 0.41953 0.291134 0.501396
16 1 0.532347 0.263611 0.50367
53 1 0.657942 0.249811 0.504941
21 1 0.856597 0.323281 0.495347
37 1 0.0579234 0.443127 0.493518
14 1 0.276052 0.424606 0.496077
18 1 0.467034 0.382981 0.501464
40 1 0.5978 0.442809 0.502447
9 1 0.721587 0.368757 0.499503
43 1 0.829776 0.439332 0.503475
24 1 0.930168 0.424955 0.494925
12 1 0.144867 0.560832 0.497907
45 1 0.255835 0.5384 0.499783
70 1 0.380435 0.452215 0.501959
42 1 0.346192 0.537241 0.504744
74 1 0.509719 0.481743 0.499937
56 1 0.432025 0.50194 0.497056
13 1 0.572974 0.572878 0.500056
15 1 0.728181 0.518168 0.497372
30 1 0.862874 0.534315 0.500814
47 1 0.973137 0.534991 0.501819
78 1 0.0347699 0.588802 0.4941
69 1 0.0777829 0.640401 0.497837
59 1 0.169234 0.673598 0.500616
6 1 0.938401 0.657419 0.497608
10 1 0.0821465 0.747961 0.497181
17 1 0.232143 0.770533 0.498684
19 1 0.478277 0.773358 0.503724
44 1 0.662283 0.661219 0.505944
50 1 0.557181 0.694957 0.50397
8 1 0.785232 0.671488 0.499104
72 1 0.857643 0.752137 0.500584
62 1 0.982016 0.763193 0.498015
67 1 0.107224 0.864405 0.505857
41 1 0.177551 0.900937 0.499171
52 1 0.357153 0.773395 0.497323
57 1 0.599891 0.805029 0.500223
64 1 0.622784 0.732205 0.496203
27 1 0.70471 0.762057 0.498959
11 1 0.822652 0.855352 0.506132
76 1 0.922307 0.777586 0.50244
2 1 0.975518 0.879106 0.503382
25 1 0.0939141 0.963349 0.4979
51 1 0.259025 0.929638 0.504214
4 1 0.39105 0.89528 0.500015
31 1 0.887902 0.984736 0.502049
ITEM: TIMESTEP
2500
ITEM: NUMBER OF ATOMS
66
ITEM: BOX BOUNDS pp pp pp
-4.8154192992795108e+00 4.8154192992795108e+00
-4.8292717190562104e+00 4.8292717190562104e+00
-1.0000000000000001e-01 1.0000000000000001e-01
ITEM: ATOMS id type xs ys zs
34 1 0.0965059 0.087529 0.503122
36 1 0.194534 0.022677 0.500272
32 1 0.31301 0.0205984 0.501724
54 1 0.375237 0.100154 0.497915
60 1 0.429754 0.0239334 0.497853
22 1 0.586719 0.0465433 0.504017
7 1 0.73101 0.044384 0.501067
75 1 0.838197 0.0643025 0.499668
49 1 0.898994 0.110559 0.498646
33 1 0.987589 0.0334441 0.501247
55 1 0.0315774 0.17257 0.495242
20 1 0.253988 0.143128 0.502673
66 1 0.35486 0.170886 0.501237
58 1 0.416009 0.214074 0.50361
38 1 0.48133 0.12117 0.499483
26 1 0.631865 0.151769 0.502446
61 1 0.978032 0.117938 0.503506
39 1 0.930098 0.218164 0.501069
5 1 0.0184554 0.305044 0.498183
29 1 0.14349 0.35267 0.502085
63 1 0.420056 0.292035 0.500645
16 1 0.532754 0.264356 0.502973
53 1 0.658506 0.24887 0.506586
21 1 0.856324 0.321449 0.496318
37 1 0.0579713 0.441524 0.492193
14 1 0.275236 0.425398 0.495702
18 1 0.467107 0.383362 0.501325
40 1 0.597158 0.44279 0.503078
9 1 0.72157 0.368201 0.49937
43 1 0.829564 0.439331 0.502673
24 1 0.930407 0.423515 0.496248
12 1 0.144354 0.560908 0.495756
45 1 0.255196 0.53922 0.500119
70 1 0.379859 0.451301 0.501502
42 1 0.345564 0.537768 0.50613
74 1 0.509543 0.482069 0.498946
56 1 0.431315 0.501446 0.497832
13 1 0.573897 0.572612 0.498459
15 1 0.728429 0.51743 0.497392
30 1 0.863289 0.533796 0.500971
47 1 0.973862 0.53535 0.502308
78 1 0.0351004 0.589249 0.494565
69 1 0.0783868 0.640728 0.496658
59 1 0.16863 0.674544 0.498867
6 1 0.938777 0.658016 0.498521
10 1 0.0820724 0.748597 0.498176
17 1 0.231967 0.77108 0.498094
19 1 0.477946 0.773904 0.503594
44 1 0.662153 0.661869 0.503712
50 1 0.556593 0.694825 0.505016
8 1 0.785288 0.671513 0.49863
72 1 0.857223 0.751978 0.499441
62 1 0.981811 0.763575 0.497481
67 1 0.106429 0.864949 0.505469
41 1 0.176989 0.900927 0.499423
52 1 0.356609 0.774393 0.499517
57 1 0.599776 0.805135 0.500106
64 1 0.622505 0.732398 0.495393
27 1 0.704386 0.762066 0.498135
11 1 0.822603 0.855067 0.505717
76 1 0.921739 0.777153 0.503765
2 1 0.975196 0.878779 0.502729
25 1 0.09319 0.963141 0.497483
51 1 0.257554 0.929997 0.503522
4 1 0.391968 0.895196 0.500981
31 1 0.886888 0.984705 0.501538
ITEM: TIMESTEP
2750
ITEM: NUMBER OF ATOMS
66
ITEM: BOX BOUNDS pp pp pp
-4.8142128191539380e+00 4.8142128191539380e+00
-4.8253542988213942e+00 4.8253542988213942e+00
-1.0000000000000001e-01 1.0000000000000001e-01
ITEM: ATOMS id type xs ys zs
34 1 0.0951779 0.0875752 0.502464
36 1 0.193874 0.0226649 0.50054
32 1 0.312181 0.0206896 0.501499
54 1 0.375051 0.100489 0.497929
60 1 0.429261 0.0248145 0.498036
22 1 0.586401 0.0452588 0.503928
7 1 0.730541 0.0435739 0.500839
75 1 0.837688 0.0642257 0.498259
49 1 0.899085 0.110161 0.498535
33 1 0.986312 0.0337392 0.502445
55 1 0.031268 0.17375 0.496891
20 1 0.253581 0.142986 0.502601
66 1 0.355006 0.171366 0.500021
58 1 0.416851 0.214085 0.503999
38 1 0.481887 0.121332 0.499769
26 1 0.631268 0.151166 0.502452
61 1 0.978728 0.118078 0.503113
39 1 0.929105 0.21787 0.500621
5 1 0.0186743 0.304501 0.495967
29 1 0.144759 0.35182 0.499949
63 1 0.419355 0.292062 0.502062
16 1 0.53259 0.265994 0.50251
53 1 0.657246 0.249081 0.506602
21 1 0.855624 0.321822 0.495571
37 1 0.0588596 0.441527 0.491489
14 1 0.275463 0.425569 0.495285
18 1 0.465774 0.383894 0.501681
40 1 0.597192 0.442855 0.503416
9 1 0.721099 0.368159 0.500053
43 1 0.829382 0.43846 0.502358
24 1 0.930694 0.42327 0.49632
12 1 0.144203 0.560464 0.495983
45 1 0.25524 0.539131 0.499703
70 1 0.379862 0.453274 0.500431
42 1 0.345526 0.537515 0.505689
74 1 0.509279 0.482175 0.500696
56 1 0.431508 0.502923 0.496264
13 1 0.573447 0.572688 0.50067
15 1 0.72761 0.516566 0.498246
30 1 0.862479 0.533365 0.501704
47 1 0.973468 0.535096 0.501739
78 1 0.0346388 0.589477 0.495031
69 1 0.0787604 0.640281 0.496203
59 1 0.167957 0.673727 0.499111
6 1 0.937352 0.65699 0.49771
10 1 0.0813548 0.747928 0.49701
17 1 0.23287 0.769168 0.497919
19 1 0.478441 0.775009 0.504204
44 1 0.661866 0.661755 0.503729
50 1 0.556514 0.695187 0.503812
8 1 0.784003 0.670877 0.498417
72 1 0.857118 0.750361 0.498196
62 1 0.980708 0.76301 0.496934
67 1 0.105913 0.864111 0.504893
41 1 0.176237 0.900081 0.49924
52 1 0.357144 0.774467 0.498041
57 1 0.599953 0.805502 0.500198
64 1 0.622366 0.732634 0.495742
27 1 0.70506 0.762355 0.49698
11 1 0.821337 0.853767 0.503834
76 1 0.921101 0.776539 0.504366
2 1 0.974229 0.878721 0.502347
25 1 0.0928633 0.96284 0.497309
51 1 0.256785 0.929919 0.503944
4 1 0.391316 0.896071 0.501559
31 1 0.885751 0.983781 0.502688
ITEM: TIMESTEP
3000
ITEM: NUMBER OF ATOMS
66
ITEM: BOX BOUNDS pp pp pp
-4.8130063390283642e+00 4.8130063390283642e+00
-4.8320092393042477e+00 4.8320092393042477e+00
-1.0000000000000001e-01 1.0000000000000001e-01
ITEM: ATOMS id type xs ys zs
34 1 0.0946108 0.0876579 0.505173
36 1 0.193514 0.0236575 0.500415
32 1 0.312149 0.0221401 0.502126
54 1 0.374682 0.101264 0.496837
60 1 0.429244 0.0248375 0.49775
22 1 0.586832 0.0464752 0.504059
7 1 0.730818 0.0431233 0.501323
75 1 0.838236 0.0645946 0.497054
49 1 0.899805 0.110266 0.496752
33 1 0.98599 0.0332304 0.502137
55 1 0.0310647 0.174663 0.497384
20 1 0.253026 0.144423 0.505037
66 1 0.354419 0.171772 0.499868
58 1 0.416257 0.214369 0.505311
38 1 0.481334 0.121292 0.499947
26 1 0.632084 0.151382 0.504338
61 1 0.97927 0.118148 0.501316
39 1 0.928608 0.21758 0.500808
5 1 0.0177846 0.304775 0.496844
29 1 0.144368 0.351912 0.499812
63 1 0.419087 0.292158 0.501293
16 1 0.531914 0.266235 0.503488
53 1 0.656671 0.248931 0.505155
21 1 0.856289 0.32215 0.495084
37 1 0.0584678 0.441333 0.493522
14 1 0.27595 0.424725 0.495848
18 1 0.466176 0.384021 0.502004
40 1 0.597133 0.442809 0.502972
9 1 0.720783 0.367189 0.499493
43 1 0.829169 0.438083 0.500033
24 1 0.930406 0.424431 0.494979
12 1 0.143656 0.560758 0.495633
45 1 0.254925 0.538044 0.499328
70 1 0.380225 0.453333 0.49885
42 1 0.345014 0.53816 0.509123
74 1 0.509529 0.482545 0.500939
56 1 0.431893 0.503019 0.496531
13 1 0.574007 0.572496 0.501815
15 1 0.727685 0.516361 0.499384
30 1 0.862015 0.533551 0.501413
47 1 0.973104 0.536453 0.502016
78 1 0.0345318 0.590363 0.495715
69 1 0.0786142 0.641304 0.497474
59 1 0.167346 0.674148 0.500803
6 1 0.937085 0.657835 0.496221
10 1 0.0806728 0.74869 0.496993
17 1 0.230731 0.769771 0.499808
19 1 0.477407 0.774647 0.502647
44 1 0.661156 0.661932 0.50488
50 1 0.555736 0.69506 0.505665
8 1 0.783727 0.670678 0.498086
72 1 0.856454 0.750958 0.49829
62 1 0.980382 0.763913 0.496611
67 1 0.10619 0.864387 0.504929
41 1 0.176079 0.901813 0.498472
52 1 0.355829 0.774582 0.496443
57 1 0.599114 0.805754 0.499576
64 1 0.622004 0.732468 0.495082
27 1 0.703825 0.76226 0.497699
11 1 0.821093 0.853923 0.505704
76 1 0.920788 0.776884 0.503902
2 1 0.973698 0.878757 0.502453
25 1 0.0924756 0.963298 0.496879
51 1 0.256841 0.930756 0.504577
4 1 0.390555 0.896078 0.500257
31 1 0.885532 0.984093 0.503649
ITEM: TIMESTEP
3250
ITEM: NUMBER OF ATOMS
66
ITEM: BOX BOUNDS pp pp pp
-4.8117998589027913e+00 4.8117998589027913e+00
-4.8269152003970195e+00 4.8269152003970195e+00
-1.0000000000000001e-01 1.0000000000000001e-01
ITEM: ATOMS id type xs ys zs
34 1 0.0951955 0.0877174 0.507493
36 1 0.193666 0.0229323 0.500274
32 1 0.311852 0.0224114 0.500808
54 1 0.374288 0.101622 0.496145
60 1 0.428713 0.0253432 0.498121
22 1 0.586756 0.0461734 0.503887
7 1 0.73093 0.0430537 0.499558
75 1 0.838649 0.0642196 0.496838
49 1 0.90196 0.108289 0.496456
33 1 0.986514 0.0330905 0.502287
55 1 0.032131 0.175053 0.497803
20 1 0.252619 0.144006 0.504254
66 1 0.353806 0.172359 0.501017
58 1 0.415969 0.213802 0.504747
38 1 0.480965 0.12164 0.5007
26 1 0.633122 0.150846 0.503911
61 1 0.980662 0.118171 0.500966
39 1 0.929268 0.216765 0.500185
5 1 0.0181797 0.304247 0.497805
29 1 0.144149 0.352144 0.501703
63 1 0.418588 0.291592 0.501386
16 1 0.53193 0.265424 0.503969
53 1 0.657303 0.249322 0.505486
21 1 0.856997 0.32159 0.49488
37 1 0.0584335 0.441365 0.494056
14 1 0.275586 0.424556 0.496868
18 1 0.465144 0.383537 0.500531
40 1 0.597046 0.441382 0.502572
9 1 0.721652 0.367266 0.499374
43 1 0.830214 0.437769 0.500734
24 1 0.930555 0.423359 0.494941
12 1 0.14412 0.560603 0.495801
45 1 0.255038 0.538328 0.4996
70 1 0.37991 0.454711 0.497981
42 1 0.345764 0.536753 0.507579
74 1 0.509401 0.480806 0.501023
56 1 0.432886 0.50353 0.495537
13 1 0.573648 0.571566 0.503344
15 1 0.727978 0.515554 0.498592
30 1 0.862671 0.533416 0.499603
47 1 0.974033 0.535702 0.502985
78 1 0.0345324 0.590708 0.494008
69 1 0.0791311 0.641136 0.499007
59 1 0.167684 0.673643 0.501514
6 1 0.936791 0.656933 0.49764
10 1 0.0812104 0.748295 0.496489
17 1 0.231026 0.770459 0.498965
19 1 0.477443 0.774889 0.501467
44 1 0.660536 0.661899 0.505893
50 1 0.555122 0.694775 0.505326
8 1 0.783412 0.671441 0.498363
72 1 0.856808 0.750813 0.500123
62 1 0.980685 0.762549 0.496999
67 1 0.106697 0.864338 0.503488
41 1 0.176852 0.900771 0.497759
52 1 0.356042 0.775227 0.496405
57 1 0.59894 0.805652 0.498413
64 1 0.620866 0.732484 0.494794
27 1 0.703392 0.761857 0.497871
11 1 0.821204 0.854205 0.50481
76 1 0.921036 0.776825 0.504858
2 1 0.974229 0.878412 0.500911
25 1 0.0928294 0.962843 0.497304
51 1 0.257695 0.930529 0.505297
4 1 0.389941 0.89654 0.500175
31 1 0.886015 0.983924 0.502677
ITEM: TIMESTEP
3500
ITEM: NUMBER OF ATOMS
66
ITEM: BOX BOUNDS pp pp pp
-4.8105933787772184e+00 4.8105933787772184e+00
-4.8231893775117012e+00 4.8231893775117012e+00
-1.0000000000000001e-01 1.0000000000000001e-01
ITEM: ATOMS id type xs ys zs
34 1 0.0950356 0.0875062 0.505785
36 1 0.193585 0.0232712 0.499523
32 1 0.312021 0.0222286 0.501735
54 1 0.374906 0.101441 0.497197
60 1 0.428893 0.024544 0.496065
22 1 0.588192 0.046163 0.502929
7 1 0.732357 0.0425688 0.499582
75 1 0.839453 0.0646647 0.495036
49 1 0.902397 0.108756 0.494704
33 1 0.986461 0.0330309 0.502278
55 1 0.032243 0.175012 0.498631
20 1 0.252852 0.14404 0.504967
66 1 0.353851 0.172057 0.501652
58 1 0.416503 0.213007 0.505739
38 1 0.482109 0.120632 0.500226
26 1 0.634267 0.15096 0.502037
61 1 0.981051 0.118078 0.500481
39 1 0.92927 0.217362 0.498411
5 1 0.0187892 0.304565 0.497318
29 1 0.145035 0.351243 0.502174
63 1 0.418546 0.291438 0.502452
16 1 0.531616 0.265653 0.503815
53 1 0.656463 0.249034 0.505454
21 1 0.856047 0.321781 0.498082
37 1 0.0591974 0.441096 0.496065
14 1 0.275636 0.424334 0.496027
18 1 0.465632 0.383422 0.50153
40 1 0.596926 0.44237 0.501424
9 1 0.72107 0.366913 0.49688
43 1 0.829748 0.437797 0.501735
24 1 0.930492 0.423184 0.495485
12 1 0.143543 0.560306 0.493658
45 1 0.254901 0.537721 0.499078
70 1 0.380415 0.453191 0.498003
42 1 0.345511 0.537396 0.505892
74 1 0.509617 0.481965 0.500169
56 1 0.432034 0.502874 0.495466
13 1 0.573837 0.573219 0.50418
15 1 0.727953 0.516141 0.497498
30 1 0.862388 0.533145 0.49928
47 1 0.973237 0.535517 0.501914
78 1 0.034151 0.59005 0.494024
69 1 0.0784312 0.64106 0.498894
59 1 0.166101 0.673464 0.500274
6 1 0.936492 0.657486 0.496509
10 1 0.080232 0.748453 0.497545
17 1 0.231398 0.768959 0.499828
19 1 0.477455 0.774864 0.501182
44 1 0.66029 0.663174 0.506129
50 1 0.556172 0.695345 0.504868
8 1 0.78282 0.670957 0.499433
72 1 0.855843 0.750649 0.500759
62 1 0.979962 0.763092 0.49649