LAMMPS (23 Jun 2022 - Update 4)
  using 1 OpenMP thread(s) per MPI task
# Compute elastic constant tensor for a crystal
#
# Written by Aidan Thompson (Sandia, athomps@sandia.gov)
#
#  This script uses the following three include files.
#
#   init.mod      (must be modified for different crystal structures)
# 	       	  Define units, deformation parameters and initial
#		  configuration of the atoms and simulation cell.
#
#
#   potential.mod    (must be modified for different pair styles)
# 		     Define pair style and other attributes
#		     not stored in restart file
#
#
#   displace.mod    (displace.mod should not need to be modified)
# 		    Perform positive and negative box displacements
# 		    in direction ${dir} and size ${up}.
# 		    It uses the resultant changes
#		    in stress to compute one
# 		    row of the elastic stiffness tensor
#
#		    Inputs variables:
#		    	   dir = the Voigt deformation component
#		    		    (1,2,3,4,5,6)
#		    Global constants:
#       	    	   up = the deformation magnitude (strain units)
#       		   cfac = conversion from LAMMPS pressure units to
#               	   output units for elastic constants
#
#
#  To run this on a different system, it should only be necessary to
#  modify the files init.mod and potential.mod. In order to calculate
#  the elastic constants correctly, care must be taken to specify
#  the correct units in init.mod (units, cfac and cunits). It is also
#  important to verify that the minimization of energy w.r.t atom
#  positions in the deformed cell is fully converged.
#  One indication of this is that the elastic constants are insensitive
#  to the choice of the variable ${up} in init.mod. Another is to check
#  the final max and two-norm forces reported in the log file. If you know
#  that minimization is not required, you can set maxiter = 0.0 in
#  init.mod.
#



variable dt equal 0.01
variable strain equal 0.05
variable srate equal 1e-4
variable M equal 1000 # averaging time for properties
variable strainsteps equal ${strain}/${dt}/${srate}
variable strainsteps equal 0.05/${dt}/${srate}
variable strainsteps equal 0.05/0.01/${srate}
variable strainsteps equal 0.05/0.01/0.0001


dimension 2
include init.mod
# NOTE: This script can be modified for different atomic structures,
# units, etc. See in.elastic for more info.
#

# Define the finite deformation size. Try several values of this
# variable to verify that results do not depend on it.
variable up equal 1.0e-1

# Define the amount of random jiggle for atoms
# This prevents atoms from staying on saddle points
variable atomjiggle equal 1.0e-6

# Uncomment one of these blocks, depending on what units
# you are using in LAMMPS and for output

# metal units, elastic constants in eV/A^3
#units		metal
#variable cfac equal 6.2414e-7
#variable cunits string eV/A^3

# Choose potential
# metal units, elastic constants in GPa
units		metal
atom_style	full
#pair_style      lj/cut 1.0
#pair_style      yukawa 1.0 2.0
#pair_modify     mix arithmetic
bond_style      harmonic
angle_style     harmonic
dihedral_style  zero
special_bonds   amber
variable cfac equal 1.0e-4
variable cunits string GPa
boundary	p p p

# Need to set mass to something, just to satisfy LAMMPS
#mass 1 1.0e-20
read_data network.lmp
Reading data file ...
  orthogonal box = (-4.82592 -4.82592 -0.1) to (4.82592 4.82592 0.1)
  1 by 1 by 1 MPI processor grid
WARNING: Atom style in data file differs from currently defined atom style (src/read_data.cpp:538)
  reading atoms ...
  66 atoms
WARNING: Bond style in data file differs from currently defined bond style (src/read_data.cpp:630)
  scanning bonds ...
  5 = max bonds/atom
  reading bonds ...
  147 bonds
Finding 1-2 1-3 1-4 neighbors ...
  special bond factors lj:    0        0        0.5     
  special bond factors coul:  0        0        0.8333333333333334
    10 = max # of 1-2 neighbors
    48 = max # of 1-3 neighbors
   295 = max # of 1-4 neighbors
    32 = max # of special neighbors
  special bonds CPU = 0.000 seconds
  read_data CPU = 0.003 seconds

# real units, elastic constants in GPa
#units		real
#variable cfac equal 1.01325e-4
#variable cunits string GPa

# Define minimization parameters
variable etol equal 0.0
variable ftol equal 5.0e-10
variable maxiter equal 100000
variable maxeval equal 20000
variable dmax equal 1.0e-2


include potential.mod
# NOTE: This script can be modified for different pair styles
# See in.elastic for more info.

# Setup neighbor style
neighbor 3.0 nsq
neigh_modify once no every 1 delay 0 check yes
comm_modify cutoff 2.0

# Setup minimization style
min_style	     cg
min_modify	     dmax ${dmax} line quadratic
min_modify	     dmax 0.01 line quadratic

timestep	0.001


# Setup output
thermo		500
thermo_style custom step temp pe ebond eangle edihed press pxx pyy pzz pxy pxz pyz lx ly lz vol
thermo_modify norm no


#change_box all triclinic
comm_modify mode single cutoff 10.0 vel yes
atom_modify sort 0 0



# Compute initial state

#dump rela all atom 1 traj_relax.lmpstrj
fix 3 all box/relax x 0 y 0 # xy 0  #MS comment: relax if the network is periodic
minimize ${etol} ${ftol} ${maxiter} ${maxeval}
minimize 0 ${ftol} ${maxiter} ${maxeval}
minimize 0 5e-10 ${maxiter} ${maxeval}
minimize 0 5e-10 100000 ${maxeval}
minimize 0 5e-10 100000 20000
Neighbor list info ...
  update every 1 steps, delay 0 steps, check yes
  max neighbors/atom: 2000, page size: 100000
  master list distance cutoff = 0
  ghost atom cutoff = 10
  0 neighbor lists, perpetual/occasional/extra = 0 0 0
WARNING: Inconsistent image flags (src/domain.cpp:819)
Per MPI rank memory allocation (min/avg/max) = 8.972 | 8.972 | 8.972 Mbytes
   Step          Temp          PotEng         E_bond        E_angle        E_dihed         Press           Pxx            Pyy            Pzz            Pxy            Pxz            Pyz             Lx             Ly             Lz           Volume    
         0   0              4.1526785e-11  4.1526785e-11  0              0              0.094438221    0.04688372     0.14199272     0              0.022942466    0              0              9.65184        9.65184        0.2            93.158015    
       324   0              8.2278726e-19  8.2278726e-19  0              0             -1.8819447e-08 -1.0752475e-07  6.9885857e-08  0             -4.5175255e-05  0              0              9.651841       9.6518398      0.2            93.158023    
Loop time of 0.0216283 on 1 procs for 324 steps with 66 atoms

99.9% CPU use with 1 MPI tasks x 1 OpenMP threads

Minimization stats:
  Stopping criterion = force tolerance
  Energy initial, next-to-last, final = 
    4.15267845068902e-11 8.40272751121963e-19 8.22787257383164e-19
  Force two-norm initial, final = 2.8521689e-05 4.1361824e-10
  Force max component initial, final = 9.5234121e-06 1.2579596e-10
  Final line search alpha, max atom move = 1 1.2579596e-10
  Iterations, force evaluations = 324 648

MPI task timing breakdown:
Section |  min time  |  avg time  |  max time  |%varavg| %total
---------------------------------------------------------------
Pair    | 0          | 0          | 0          |   0.0 |  0.00
Bond    | 0.0031714  | 0.0031714  | 0.0031714  |   0.0 | 14.66
Neigh   | 0          | 0          | 0          |   0.0 |  0.00
Comm    | 0.006596   | 0.006596   | 0.006596   |   0.0 | 30.50
Output  | 0          | 0          | 0          |   0.0 |  0.00
Modify  | 0          | 0          | 0          |   0.0 |  0.00
Other   |            | 0.01186    |            |       | 54.84

Nlocal:             66 ave          66 max          66 min
Histogram: 1 0 0 0 0 0 0 0 0 0
Nghost:            568 ave         568 max         568 min
Histogram: 1 0 0 0 0 0 0 0 0 0
Neighs:              0 ave           0 max           0 min
Histogram: 1 0 0 0 0 0 0 0 0 0

Total # of neighbors = 0
Ave neighs/atom = 0
Ave special neighs/atom = 22.30303
Neighbor list builds = 0
Dangerous builds = 0
#dump rela all atom 1 traj_relax.lmpstrj
thermo 100
unfix 3

fix 2d all enforce2d



#dump dump0 all xyz 1000000 cfg0.xyz
#dump_modify dump0 format line "%d %20.10g %20.10g %20.10g"
#minimize ${etol} ${ftol} ${maxiter} ${maxeval}

#undump rela

#write_restart restart.equil

# These formulas define the derivatives w.r.t. strain components
# Constants uses $, variables use v_


timestep        ${dt}
timestep        0.01
variable nsteps equal round(${strainsteps})
variable nsteps equal round(50000)

fix             4 all nve
fix             5 all langevin 0.1 0.1 1 904297
#fix		6 all press/berendsen y  0.0 0.0 1 x 0.0 0.0 10
fix             6 all nph y 0.0 0.0 10 ptemp 0.1 # x 0.0 0.0 10

# For PLUMED2
# fix 22 all plumed plumedfile plumed.dat outfile plumed.out

#fix             6 all nph x 0.0 0.0 10
fix     	9 all deform 1 x erate -${srate} units box remap x
fix     	9 all deform 1 x erate -0.0001 units box remap x

#fix     8 all deform 1 xy erate ${srate} units box remap x



#fix    10 all ave/time

dump 1 all atom 250 deform_dump.lammpstrj


#To avoid flying ice cube phenomenon:
#fix 21 all momentum 100 linear 1 1 1 angular


run  ${nsteps}
run  50000
WARNING: One or more atoms are time integrated more than once (src/modify.cpp:292)
WARNING: Inconsistent image flags (src/domain.cpp:819)
Per MPI rank memory allocation (min/avg/max) = 7.847 | 7.847 | 7.847 Mbytes
   Step          Temp          PotEng         E_bond        E_angle        E_dihed         Press           Pxx            Pyy            Pzz            Pxy            Pxz            Pyz             Lx             Ly             Lz           Volume    
       324   0              8.2278726e-19  8.2278726e-19  0              0             -1.8819447e-08 -1.0752475e-07  6.9885857e-08  0             -4.5175255e-05  0              0              9.651841       9.6518398      0.2            93.158023    
       400   0.14199472     0.00055131356  0.00055131356  0              0              52.414918      98.58927       6.083819       0              193.02115      0              0              9.6511075      9.6496738      0.2            93.130039    
       500   0.18676995     0.00090856211  0.00090856211  0              0              267.64561      474.81836      60.267152      0              458.55848      0              0              9.6501423      9.6479559      0.2            93.104147    
       600   0.19404181     0.00098674966  0.00098674966  0              0              199.32591      624.90955     -226.4529       0              24.969569      0              0              9.6491771      9.6590208      0.2            93.201602    
       700   0.22915754     0.0010358528   0.0010358528   0              0              705.57275      1198.1708      212.77789      0              16.303555      0              0              9.6482119      9.6490933      0.2            93.096497    
       800   0.17634086     0.0010597525   0.0010597525   0              0              620.99287      1242.274      -0.48208099     0             -175.6644       0              0              9.6472467      9.6558384      0.2            93.152255    
       900   0.20322268     0.0012482069   0.0012482069   0              0             -117.49833      67.06863      -302.2756       0             -608.01722      0              0              9.6462815      9.6496826      0.2            93.083555    
      1000   0.23593384     0.0012529749   0.0012529749   0              0              1385.9987      2515.9329      255.86429      0              170.17438      0              0              9.6453164      9.652368       0.2            93.100143    
      1100   0.20473678     0.0012427775   0.0012427775   0              0              792.09875      1678.7934     -94.780099      0              716.68817      0              0              9.6443512      9.6455443      0.2            93.025016    
      1200   0.23894585     0.0012331037   0.0012331037   0              0              118.42888      496.94705     -260.30031      0              132.80043      0              0              9.643386       9.6609611      0.2            93.164377    
      1300   0.21108292     0.0010777563   0.0010777563   0              0              771.62378      1036.5688      506.46869      0             -60.99914       0              0              9.6424208      9.6423066      0.2            92.975178    
      1400   0.22837593     0.001095814    0.001095814    0              0              780.00964      1791.6091     -231.78344      0              423.6338       0              0              9.6414556      9.6494879      0.2            93.035109    
      1500   0.19518346     0.0013008446   0.0013008446   0              0              81.940668      380.24194     -216.54685      0             -382.66005      0              0              9.6404904      9.6400022      0.2            92.934349    
      1600   0.17177982     0.0011372699   0.0011372699   0              0              908.92198      1348.4494      469.20441      0             -303.48573      0              0              9.6395253      9.6379153      0.2            92.904927    
      1700   0.20349896     0.0010417367   0.0010417367   0              0              272.97561      770.14636     -224.42838      0              458.36784      0              0              9.6385601      9.6443316      0.2            92.95747     
      1800   0.17036104     0.0011676813   0.0011676813   0              0             -107.07925      320.89158     -535.24353      0              412.85826      0              0              9.6375949      9.6439943      0.2            92.94491     
      1900   0.25072341     0.0010273947   0.0010273947   0              0              1087.1858      1486.5576      687.60846      0              36.445858      0              0              9.6366297      9.6359801      0.2            92.858372    
      2000   0.19493025     0.00098152361  0.00098152361  0              0              211.15007      473.59451     -51.466696      0              657.65442      0              0              9.6356645      9.6453551      0.2            92.939406    
      2100   0.17167805     0.0010655095   0.0010655095   0              0              400.04658      1609.7947     -809.87032      0              544.01665      0              0              9.6346993      9.6525738      0.2            92.999646    
      2200   0.23162049     0.0010096479   0.0010096479   0              0              1642.8793      2342.4674      943.07259      0              259.4247       0              0              9.6337342      9.6394092      0.2            92.863506    
      2300   0.16477394     0.0011326122   0.0011326122   0              0              193.35911      356.23907      30.277532      0              627.55472      0              0              9.632769       9.6496498      0.2            92.952847    
      2400   0.23737012     0.0013401583   0.0013401583   0              0             -775.10156     -435.06899     -1115.3105      0             -32.469065      0              0              9.6318038      9.6678965      0.2            93.119282    
      2500   0.18287835     0.0011538926   0.0011538926   0              0              1137.9532      1347.254       928.47956      0             -191.54424      0              0              9.6308386      9.6585434      0.2            93.019873    
      2600   0.22377107     0.0011680894   0.0011680894   0              0              479.82673      560.7673       398.68314      0             -619.10962      0              0              9.6298734      9.6563885      0.2            92.989799    
      2700   0.20867732     0.0010615313   0.0010615313   0              0             -1084.1357     -869.00643     -1299.4997      0             -758.59341      0              0              9.6289082      9.6636999      0.2            93.05088     
      2800   0.17316802     0.0011346626   0.0011346626   0              0              508.18032      324.10431      692.08227      0              66.166271      0              0              9.627943       9.646884       0.2            92.87965     
      2900   0.23657327     0.0010720089   0.0010720089   0              0              513.36112      311.25502      715.26199      0             -307.04693      0              0              9.6269779      9.6505361      0.2            92.905497    
      3000   0.20881716     0.00099881116  0.00099881116  0              0             -875.24211     -518.78683     -1231.8589      0             -434.30673      0              0              9.6260127      9.6640185      0.2            93.025964    
      3100   0.20315605     0.0011552533   0.0011552533   0              0              495.80756      575.26677      416.12525      0             -392.48606      0              0              9.6250475      9.6550798      0.2            92.930602    
      3200   0.13493365     0.0010074812   0.0010074812   0              0              659.37355      407.78592      910.75868      0              344.50316      0              0              9.6240823      9.6499537      0.2            92.871948    
      3300   0.14225876     0.0010166077   0.0010166077   0              0             -474.29932     -78.066946     -870.75099      0             -322.74416      0              0              9.6231171      9.6572467      0.2            92.932816    
      3400   0.17191027     0.00093114887  0.00093114887  0              0              189.20222      640.07304     -261.88928      0              924.17989      0              0              9.6221519      9.6509355      0.2            92.862768    
      3500   0.17618982     0.0009612244   0.0009612244   0              0              1037.5379      1018.8855      1055.999       0              563.50127      0              0              9.6211868      9.6463788      0.2            92.809612    
      3600   0.24449378     0.0012003555   0.0012003555   0              0             -424.44591     -370.19156     -478.90522      0              29.695705      0              0              9.6202216      9.6580044      0.2            92.912142    
      3700   0.18020084     0.0010838458   0.0010838458   0              0             -540.62784     -345.56676     -735.87082      0              527.71712      0              0              9.6192564      9.6641448      0.2            92.961887    
      3800   0.16414283     0.0013824147   0.0013824147   0              0              994.4468       974.6507       1014.0586      0              327.85585      0              0              9.6182912      9.6465128      0.2            92.782969    
      3900   0.17860724     0.0010151274   0.0010151274   0              0              119.30842      128.75404      109.66182      0              528.73292      0              0              9.617326       9.6559841      0.2            92.864747    
      4000   0.20406404     0.00097470291  0.00097470291  0              0             -256.56535      355.25133     -868.57197      0              26.909503      0              0              9.6163608      9.6649344      0.2            92.941496    
      4100   0.21625618     0.0010920553   0.0010920553   0              0              910.03226      1469.6405      350.23513      0             -107.67088      0              0              9.6153957      9.6464796      0.2            92.754718    
      4200   0.21223911     0.0010706371   0.0010706371   0              0              1113.3993      1598.2931      628.27502      0              329.05786      0              0              9.6144305      9.6429886      0.2            92.711843    
      4300   0.20622028     0.0010983129   0.0010983129   0              0             -276.30383      87.912942     -640.72041      0              420.67863      0              0              9.6134653      9.6537809      0.2            92.806288    
      4400   0.21823746     0.0010255009   0.0010255009   0              0              458.97464      1329.5745     -411.83924      0             -328.19595      0              0              9.6125001      9.6613715      0.2            92.869935    
      4500   0.24050708     0.0012002197   0.0012002197   0              0              1025.4652      1295.5172      755.17257      0              122.16064      0              0              9.6115349      9.6518219      0.2            92.768824    
      4600   0.23865733     0.0012275607   0.0012275607   0              0              431.6869       864.83077     -1.5929704      0             -16.20776       0              0              9.6105697      9.657719       0.2            92.816182    
      4700   0.20048976     0.0010154017   0.0010154017   0              0             -478.90908     -155.46168     -802.56523      0             -463.838        0              0              9.6096045      9.67108        0.2            92.935254    
      4800   0.2139111      0.0009969524   0.0009969524   0              0              124.0403      -48.295996      296.16971      0             -38.040103      0              0              9.6086394      9.6654979      0.2            92.872283    
      4900   0.18595443     0.0011358319   0.0011358319   0              0              1700.1469      2737.0779      663.00294      0             -212.26604      0              0              9.6076742      9.6612777      0.2            92.822408    
      5000   0.20094269     0.0010519279   0.0010519279   0              0             -95.112591      312.03313     -502.42362      0             -183.86604      0              0              9.606709       9.6803533      0.2            92.996337    
      5100   0.23268232     0.0013663447   0.0013663447   0              0             -390.18685     -406.62641     -373.96563      0             -369.72122      0              0              9.6057438      9.67277        0.2            92.914151    
      5200   0.21805852     0.0012514008   0.0012514008   0              0              1211.3778      1847.1747      575.37313      0             -63.905335      0              0              9.6047786      9.6685975      0.2            92.864738    
      5300   0.23868661     0.0015370495   0.0015370495   0              0              686.01375      1219.2958      152.54038      0             -465.78072      0              0              9.6038134      9.6742033      0.2            92.909243    
      5400   0.2702062      0.0010992896   0.0010992896   0              0              515.03606      1675.2587     -645.38561      0             -16.110674      0              0              9.6028483      9.6757218      0.2            92.914489    
      5500   0.22055725     0.0014664373   0.0014664373   0              0              276.98529      502.68113      51.08466       0             -575.75037      0              0              9.6018831      9.6733445      0.2            92.882323    
      5600   0.17320703     0.001124975    0.001124975    0              0              1066.7222      1509.1944      624.04518      0              686.24521      0              0              9.6009179      9.6698724      0.2            92.839651    
      5700   0.18316345     0.0012346047   0.0012346047   0              0              559.42647      1427.6226     -308.95805      0              192.29826      0              0              9.5999527      9.6764649      0.2            92.893605    
      5800   0.23060544     0.0013379112   0.0013379112   0              0              354.22616      1230.5482     -522.29149      0             -196.22812      0              0              9.5989875      9.6770573      0.2            92.889953    
      5900   0.20071286     0.001323218    0.001323218    0              0              449.8239       577.95185      321.48022      0             -388.2018       0              0              9.5980223      9.6811543      0.2            92.919935    
      6000   0.16735748     0.0012795528   0.0012795528   0              0              1194.3249      2012.7045      375.73619      0             -175.04521      0              0              9.5970572      9.6730391      0.2            92.832709    
      6100   0.24377862     0.0010267916   0.0010267916   0              0              668.57203      1906.8431     -569.93323      0             -190.00446      0              0              9.596092       9.6827431      0.2            92.916493    
      6200   0.22427457     0.0010964408   0.0010964408   0              0              95.916483      575.96973     -384.31362      0             -117.50741      0              0              9.5951268      9.6850677      0.2            92.929452    
      6300   0.20913693     0.00095997035  0.00095997035  0              0              455.01441      251.46086      658.41714      0              308.96422      0              0              9.5941616      9.6786424      0.2            92.858459    
      6400   0.21460324     0.0010254812   0.0010254812   0              0              679.62238      911.44891      447.62865      0              190.60033      0              0              9.5931964      9.6729442      0.2            92.794453    
      6500   0.22639215     0.0010293073   0.0010293073   0              0             -292.00711      191.02137     -775.24865      0             -1.2962273      0              0              9.5922312      9.6807773      0.2            92.860254    
      6600   0.20242295     0.0011327742   0.0011327742   0              0              188.34052      563.03084     -186.53816      0             -259.05683      0              0              9.5912661      9.6791581      0.2            92.83538     
      6700   0.22646504     0.0013046595   0.0013046595   0              0              676.11307      666.87485      685.19285      0              286.4218       0              0              9.5903009      9.6789319      0.2            92.823869    
      6800   0.18917282     0.0013082323   0.0013082323   0              0              351.85363      625.03466      78.493349      0              611.41469      0              0              9.5893357      9.672127       0.2            92.749273    
      6900   0.1706092      0.00097852796  0.00097852796  0              0              232.14417      1148.7898     -684.74623      0              15.148684      0              0              9.5883705      9.6874697      0.2            92.887048    
      7000   0.24272457     0.0013133861   0.0013133861   0              0              898.17925      1732.3319      63.84055       0              370.38174      0              0              9.5874053      9.6861506      0.2            92.865052    
      7100   0.21998434     0.0012389263   0.0012389263   0              0              757.65362      1062.5129      452.55673      0              383.48691      0              0              9.5864401      9.6828256      0.2            92.823827    
      7200   0.23084196     0.0012169082   0.0012169082   0              0              35.50723       249.42819     -178.59334      0             -48.406077      0              0              9.5854749      9.6861809      0.2            92.846644    
      7300   0.2030963      0.00093948003  0.00093948003  0              0              18.039685      301.45583     -265.54242      0             -492.72567      0              0              9.5845098      9.6890896      0.2            92.865173    
      7400   0.17037393     0.0011823944   0.0011823944   0              0              1326.4282      2447.3355      205.32916      0              38.584329      0              0              9.5835446      9.6826938      0.2            92.794528    
      7500   0.20171332     0.0011797075   0.0011797075   0              0              866.26339      1453.2161      279.09386      0             -64.550134      0              0              9.5825794      9.68976        0.2            92.852894    
      7600   0.14650317     0.0011431483   0.0011431483   0              0              698.54106      1514.8191     -117.93551      0              411.70003      0              0              9.5816142      9.6859864      0.2            92.807385    
      7700   0.20233698     0.0012273267   0.0012273267   0              0              457.26357      1068.0415     -153.76029      0              77.408477      0              0              9.580649       9.6932258      0.2            92.867394    
      7800   0.18401516     0.0011638098   0.0011638098   0              0              701.3636       1431.8392     -29.269859      0             -369.99124      0              0              9.5796838      9.6978887      0.2            92.902708    
      7900   0.19504023     0.0010715388   0.0010715388   0              0              501.13467      957.75107      44.346947      0              222.47434      0              0              9.5787187      9.6935107      0.2            92.851412    
      8000   0.18354011     0.0010941044   0.0010941044   0              0              307.07514      498.64341      115.33263      0             -592.60506      0              0              9.5777535      9.6961983      0.2            92.867797    
      8100   0.20855479     0.0012976332   0.0012976332   0              0              983.02079      1875.9827      89.892359      0             -296.99727      0              0              9.5767883      9.6962784      0.2            92.859205    
      8200   0.16605142     0.0010471283   0.0010471283   0              0              720.42584      1557.7585     -117.12433      0             -336.24774      0              0              9.5758231      9.709206       0.2            92.973639    
      8300   0.23726438     0.0012486249   0.0012486249   0              0              551.04065      1183.0702     -81.234411      0             -350.07039      0              0              9.5748579      9.70582        0.2            92.931848    
      8400   0.19357629     0.0011773804   0.0011773804   0              0              425.02977      804.3253       45.548391      0             -6.4094928      0              0              9.5738927      9.7045044      0.2            92.909884    
      8500   0.20442428     0.001250928    0.001250928    0              0              670.43587      1306.5321      34.176197      0              331.70242      0              0              9.5729276      9.6988804      0.2            92.846679    
      8600   0.22903613     0.0014087362   0.0014087362   0              0              617.18368      1337.315      -103.11238      0              985.21107      0              0              9.5719624      9.7036939      0.2            92.883392    
      8700   0.26401516     0.0012489094   0.0012489094   0              0              443.62964      887.96069     -0.87951108     0              231.10872      0              0              9.5709972      9.7044686      0.2            92.881442    
      8800   0.18683218     0.0014515622   0.0014515622   0              0              1103.4492      2152.5689      54.140462      0             -85.473882      0              0              9.570032       9.6955456      0.2            92.786682    
      8900   0.21777868     0.0012408356   0.0012408356   0              0              834.64326      1746.9936     -77.882939      0              70.574303      0              0              9.5690668      9.7027375      0.2            92.846144    
      9000   0.2158262      0.0015039907   0.0015039907   0              0              627.16365      1262.5053     -8.4114586      0             -608.34021      0              0              9.5681016      9.6961651      0.2            92.773893    
      9100   0.23139347     0.0014338396   0.0014338396   0              0              396.81416      740.19582      53.229761      0              300.92292      0              0              9.5671364      9.6947704      0.2            92.751191    
      9200   0.23678798     0.0012246904   0.0012246904   0              0              480.12289      878.2597       81.780077      0             -59.443124      0              0              9.5661713      9.699368       0.2            92.785815    
      9300   0.19379476     0.001250234    0.001250234    0              0              265.83925      610.65936     -79.181659      0              426.25356      0              0              9.5652061      9.7064511      0.2            92.844205    
      9400   0.23274672     0.001196503    0.001196503    0              0              638.55376      1282.1688     -5.230983       0             -220.55953      0              0              9.5642409      9.7131413      0.2            92.898824    
      9500   0.2257539      0.0011705003   0.0011705003   0              0              759.06682      1417.2561      100.69506      0              660.65733      0              0              9.5632757      9.7080634      0.2            92.840887    
      9600   0.14932387     0.001316958    0.001316958    0              0              890.85902      1693.1189      88.41206       0              357.9667       0              0              9.5623105      9.7046952      0.2            92.799309    
      9700   0.22479282     0.0011559743   0.0011559743   0              0              260.77273      864.8987      -343.55169      0              773.2057       0              0              9.5613453      9.7083079      0.2            92.824485    
      9800   0.20441251     0.0012501303   0.0012501303   0              0              390.66596      751.44094      29.710877      0             -450.35432      0              0              9.5603802      9.7089141      0.2            92.82091     
      9900   0.24455245     0.0010763398   0.0010763398   0              0              1067.6853      1858.8813      276.28938      0             -86.75736       0              0              9.559415       9.7079816      0.2            92.802625    
     10000   0.2069408      0.0011706423   0.0011706423   0              0              950.58331      2091.5381     -190.55682      0              397.47011      0              0              9.5584498      9.7117781      0.2            92.829543    
     10100   0.20355762     0.0014802334   0.0014802334   0              0              442.91593      1190.0295     -304.38924      0              222.98637      0              0              9.5574846      9.7145558      0.2            92.846718    
     10200   0.20128203     0.0015397101   0.0015397101   0              0              1213.4417      2181.7703      244.90182      0              253.54696      0              0              9.5565194      9.7031362      0.2            92.72821     
     10300   0.20245901     0.0012030715   0.0012030715   0              0              1266.0128      2138.5903      393.26427      0              290.9909       0              0              9.5555542      9.7051001      0.2            92.737611    
     10400   0.16737881     0.0011653626   0.0011653626   0              0              250.1945       608.80551     -108.64122      0              500.45711      0              0              9.5545891      9.70663        0.2            92.742861    
     10500   0.1912065      0.001178402    0.001178402    0              0              538.11023      1631.5204     -555.49663      0              494.62431      0              0              9.5536239      9.7093423      0.2            92.759404    
     10600   0.16170895     0.0010113888   0.0010113888   0              0              330.28688      713.80137     -53.455585      0             -6.399568       0              0              9.5526587      9.7107054      0.2            92.763054    
     10700   0.21727928     0.0012760669   0.0012760669   0              0              1104.595       1281.8345      927.15076      0              440.1722       0              0              9.5516935      9.710891       0.2            92.755455    
     10800   0.23581476     0.001334989    0.001334989    0              0              1097.6777      1809.0256      386.15974      0              921.62768      0              0              9.5507283      9.7117556      0.2            92.754339    
     10900   0.21991102     0.0012428628   0.0012428628   0              0              6.7940773      933.5341      -920.13131      0             -193.05548      0              0              9.5497631      9.7282965      0.2            92.902927    
     11000   0.21874183     0.0013550754   0.0013550754   0              0              252.32007      1374.3381     -869.9052       0              91.80912       0              0              9.548798       9.725854       0.2            92.870214    
     11100   0.21811772     0.0012251188   0.0012251188   0              0              1779.6009      2806.866       752.1502       0             -335.85162      0              0              9.5478328      9.7166956      0.2            92.773384    
     11200   0.19007274     0.0010114851   0.0010114851   0              0              1777.3033      2258.831       1295.5639      0             -154.78393      0              0              9.5468676      9.7095177      0.2            92.69548     
     11300   0.2116888      0.0013060646   0.0013060646   0              0              1069.301       2415.331      -276.8989       0              62.517189      0              0              9.5459024      9.7099889      0.2            92.690606    
     11400   0.26768515     0.0011267588   0.0011267588   0              0             -345.87253      871.22776     -1563.183       0             -319.20572      0              0              9.5449372      9.7230666      0.2            92.80606     
     11500   0.16167356     0.0012500199   0.0012500199   0              0              41.330459      298.99411     -216.57771      0             -537.60895      0              0              9.543972       9.7250647      0.2            92.815745    
     11600   0.20649227     0.0013735846   0.0013735846   0              0              1230.6294      870.40987      1590.6587      0              281.05436      0              0              9.5430068      9.7147344      0.2            92.707777    
     11700   0.15717359     0.0014429214   0.0014429214   0              0              960.59933      988.90964      932.09477      0             -205.01545      0              0              9.5420417      9.7186004      0.2            92.73529     
     11800   0.19994006     0.0010002551   0.0010002551   0              0             -122.25018      800.05875     -1044.7528      0             -118.07277      0              0              9.5410765      9.7230377      0.2            92.768247    
     11900   0.19474159     0.001155868    0.001155868    0              0             -360.21654      493.1003      -1213.706       0             -296.03867      0              0              9.5401113      9.7309694      0.2            92.834531    
     12000   0.22049681     0.0011010282   0.0011010282   0              0              566.25129      700.56778      431.71496      0             -502.7722       0              0              9.5391461      9.7166118      0.2            92.688179    
     12100   0.21642679     0.0013232104   0.0013232104   0              0              1039.3477      906.19625      1172.3056      0              314.50241      0              0              9.5381809      9.7096734      0.2            92.612622    
     12200   0.19258659     0.0011924301   0.0011924301   0              0              780.93061      1323.2723      238.38844      0              115.42821      0              0              9.5372157      9.7070082      0.2            92.577832    
     12300   0.16833956     0.00093656369  0.00093656369  0              0             -88.813681      700.65975     -878.48826      0              27.87402       0              0              9.5362506      9.7150424      0.2            92.645079    
     12400   0.17794449     0.0012058254   0.0012058254   0              0              110.95639      979.01211     -757.28916      0              17.731701      0              0              9.5352854      9.7059478      0.2            92.548982    
     12500   0.20825579     0.0008366713   0.0008366713   0              0              718.06685      1154.326       281.6167       0              139.92161      0              0              9.5343202      9.7010248      0.2            92.492677    
     12600   0.18738254     0.0010487785   0.0010487785   0              0              652.80321      481.54922      823.86808      0              128.62383      0              0              9.533355       9.6987794      0.2            92.461908    
     12700   0.17442848     0.0011859089   0.0011859089   0              0              739.83508      1143.5279      335.92602      0              68.184773      0              0              9.5323898      9.7048064      0.2            92.509998    
     12800   0.2080169      0.0011855625   0.0011855625   0              0              259.40026      1129.4771     -610.87754      0              28.730261      0              0              9.5314246      9.7147879      0.2            92.595769    
     12900   0.18512001     0.0012880353   0.0012880353   0              0              424.42969      1506.9074     -658.27192      0             -10.082871      0              0              9.5304595      9.7116729      0.2            92.556704    
     13000   0.19372096     0.0013699997   0.0013699997   0              0              611.42522      997.52129      225.16782      0              113.77988      0              0              9.5294943      9.7060022      0.2            92.493293    
     13100   0.2145905      0.0011220906   0.0011220906   0              0              1358.4617      1954.41        762.32173      0              407.69461      0              0              9.5285291      9.7043258      0.2            92.467951    
     13200   0.22671172     0.0012548883   0.0012548883   0              0              783.73757      1122.3538      444.92612      0              213.47131      0              0              9.5275639      9.6964224      0.2            92.383284    
     13300   0.22149157     0.0011208301   0.0011208301   0              0              388.72788      1303.5731     -526.34371      0             -33.709136      0              0              9.5265987      9.703269       0.2            92.43915     
     13400   0.15904612     0.001280322    0.001280322    0              0              147.12566      1065.609      -771.58179      0             -89.260256      0              0              9.5256335      9.706148       0.2            92.457209    
     13500   0.17860057     0.0012038807   0.0012038807   0              0              1056.9335      1898.6698      214.9898       0              450.13401      0              0              9.5246683      9.693411       0.2            92.326525    
     13600   0.24532176     0.0010796027   0.0010796027   0              0              1192.5606      1533.5547      851.34736      0             -414.025        0              0              9.5237032      9.6885826      0.2            92.271185    
     13700   0.22409082     0.00084700234  0.00084700234  0              0              462.39194      577.34229      347.25255      0              39.518637      0              0              9.522738       9.7002869      0.2            92.373291    
     13800   0.23621073     0.0009959072   0.0009959072   0              0             -195.30575      243.58077     -634.37874      0             -395.31814      0              0              9.5217728      9.7025741      0.2            92.385707    
     13900   0.21943261     0.0012258173   0.0012258173   0              0              37.603817      645.25376     -570.23382      0              260.22045      0              0              9.5208076      9.6972262      0.2            92.325425    
     14000   0.23209482     0.0010653573   0.0010653573   0              0              569.96308      892.36242      247.34832      0              937.50834      0              0              9.5198424      9.6864635      0.2            92.213606    
     14100   0.18224184     0.001314569    0.001314569    0              0              1257.3986      1875.4635      639.14304      0              475.62975      0              0              9.5188772      9.6869652      0.2            92.209033    
     14200   0.21306535     0.0012888924   0.0012888924   0              0              1073.3401      2002.0746      144.39202      0              638.27429      0              0              9.5179121      9.690938       0.2            92.237496    
     14300   0.17188461     0.0013685937   0.0013685937   0              0              75.824867      633.78494     -482.31981      0              350.50951      0              0              9.5169469      9.7003015      0.2            92.317254    
     14400   0.19985796     0.001228077    0.001228077    0              0              336.73825      1213.1725     -539.89247      0             -636.08899      0              0              9.5159817      9.6974143      0.2            92.280417    
     14500   0.16645318     0.001270059    0.001270059    0              0              1069.1676      1964.6297      173.54765      0             -369.16417      0              0              9.5150165      9.7026895      0.2            92.321251    
     14600   0.21040925     0.0012597792   0.0012597792   0              0              799.43367      939.0864       659.55413      0             -261.36664      0              0              9.5140513      9.6991856      0.2            92.278549    
     14700   0.24218289     0.0012285799   0.0012285799   0              0              1006.2951      2065.1291     -52.760762      0             -55.676642      0              0              9.5130861      9.6998041      0.2            92.275072    
     14800   0.2023199      0.0011961982   0.0011961982   0              0              653.23998      1802.8963     -496.60716      0             -560.75538      0              0              9.512121       9.7067296      0.2            92.331586    
     14900   0.23283699     0.001073868    0.001073868    0              0              300.52542      868.08323     -267.25391      0              118.51063      0              0              9.5111558      9.7068086      0.2            92.322969    
     15000   0.22806968     0.0010508527   0.0010508527   0              0              554.04867      998.98489      108.90332      0             -4.3485569      0              0              9.5101906      9.6941647      0.2            92.193354    
     15100   0.17026496     0.0012698422   0.0012698422   0              0              370.82857      460.20529      281.25639      0              280.80163      0              0              9.5092254      9.6990033      0.2            92.230009    
     15200   0.2727448      0.001112209    0.001112209    0              0              464.38456      911.73538      16.842372      0              256.80292      0              0              9.5082602      9.6914225      0.2            92.148567    
     15300   0.20377027     0.0010345671   0.0010345671   0              0              305.01157      922.72486     -312.8762       0             -213.50035      0              0              9.507295       9.700177       0.2            92.222444    
     15400   0.20023861     0.0011135319   0.0011135319   0              0              896.05321      1889.1442     -97.208319      0              468.50238      0              0              9.5063298      9.6999837      0.2            92.211244    
     15500   0.17185064     0.0010862476   0.0010862476   0              0              409.27258      604.6774       213.68578      0              165.58567      0              0              9.5053647      9.689686       0.2            92.103999    
     15600   0.16912144     0.0008839287   0.0008839287   0              0              1043.4771      1928.814       157.95973      0             -326.02982      0              0              9.5043995      9.6901817      0.2            92.099358    
     15700   0.18683566     0.0009103341   0.0009103341   0              0              721.76169      1448.1837     -4.8626588      0             -285.72587      0              0              9.5034343      9.6954857      0.2            92.140411    
     15800   0.18495645     0.00098950711  0.00098950711  0              0              677.74571      1516.3431     -161.10448      0             -73.084798      0              0              9.5024691      9.6936552      0.2            92.113659    
     15900   0.19295419     0.0012202095   0.0012202095   0              0              904.42951      1756.8861      51.746708      0             -537.05503      0              0              9.5015039      9.694305       0.2            92.110477    
     16000   0.21714084     0.0009877509   0.0009877509   0              0              473.92975      633.93945      313.75195      0             -669.26928      0              0              9.5005387      9.6975995      0.2            92.13242     
     16100   0.18647551     0.0011309501   0.0011309501   0              0              738.23631      1550.6072     -74.301812      0              369.98895      0              0              9.4995736      9.6989836      0.2            92.136208    
     16200   0.18248694     0.00087034666  0.00087034666  0              0              964.8473       2283.0367     -353.5424       0              291.3368       0              0              9.4986084      9.706959       0.2            92.202602    
     16300   0.15531228     0.0008750358   0.0008750358   0              0              714.02743      1756.5882     -328.72985      0              171.41221      0              0              9.4976432      9.7149867      0.2            92.269477    
     16400   0.19020531     0.0011116137   0.0011116137   0              0              539.30977      673.00607      405.36909      0              376.92063      0              0              9.496678       9.7083783      0.2            92.197342    
     16500   0.18995843     0.001134893    0.001134893    0              0              817.15436      1084.5646      549.54695      0              331.65683      0              0              9.4957128      9.7090892      0.2            92.194723    
     16600   0.18985181     0.0013398273   0.0013398273   0              0             -27.23968      -56.914059      2.1978661      0              354.9338       0              0              9.4947476      9.7197914      0.2            92.286966    
     16700   0.23549696     0.001169737    0.001169737    0              0              155.81922      701.33978     -389.91153      0              511.00361      0              0              9.4937825      9.712779       0.2            92.211011    
     16800   0.17181636     0.0011889154   0.0011889154   0              0              382.32178      1160.8517     -396.4079       0             -149.29449      0              0              9.4928173      9.7218483      0.2            92.28773     
     16900   0.21395432     0.0010712909   0.0010712909   0              0              671.2942       1113.6109      228.76862      0              280.86031      0              0              9.4918521      9.7188422      0.2            92.249813    
     17000   0.16851152     0.0011425711   0.0011425711   0              0              1315.7352      1851.9497      779.33713      0              226.23593      0              0              9.4908869      9.7170129      0.2            92.22307     
     17100   0.20452492     0.0010804571   0.0010804571   0              0              1059.463       1721.5884      397.1493       0             -193.53792      0              0              9.4899217      9.7159285      0.2            92.203401    
     17200   0.24282986     0.0014097939   0.0014097939   0              0              409.5683       1377.5354     -558.61173      0              75.802581      0              0              9.4889565      9.7153172      0.2            92.188223    
     17300   0.23974921     0.001155912    0.001155912    0              0              90.256489      1087.2066     -906.90011      0              320.17513      0              0              9.4879914      9.7183772      0.2            92.207879    
     17400   0.18206735     0.0012670116   0.0012670116   0              0              644.25433      1129.4468      158.86808      0              138.38654      0              0              9.4870262      9.7106392      0.2            92.125088    
     17500   0.23847108     0.0012312979   0.0012312979   0              0              1155.7038      1170.8631      1140.3482      0             -284.30065      0              0              9.486061       9.7009103      0.2            92.023427    
     17600   0.22715667     0.0010867472   0.0010867472   0              0              1037.4626      1604.7204      470.00889      0             -116.99406      0              0              9.4850958      9.7133341      0.2            92.131905    
     17700   0.20807562     0.0014259748   0.0014259748   0              0             -711.70418     -520.91646     -902.69707      0             -24.492398      0              0              9.4841306      9.7231146      0.2            92.215289    
     17800   0.22408843     0.0012296463   0.0012296463   0              0             -1057.2471     -826.75792     -1287.94        0             -93.695639      0              0              9.4831654      9.7350853      0.2            92.319425    
     17900   0.23767306     0.0013657427   0.0013657427   0              0             -150.98664     -92.20768      -209.99101      0              100.80831      0              0              9.4822002      9.7318167      0.2            92.279035    
     18000   0.21403763     0.0012427499   0.0012427499   0              0              745.06539      296.44655      1193.4793      0             -443.60568      0              0              9.4812351      9.7280863      0.2            92.234273    
     18100   0.21848979     0.0010845069   0.0010845069   0              0              904.40417      578.63096      1229.9879      0              21.807149      0              0              9.4802699      9.7214156      0.2            92.161643    
     18200   0.24237702     0.0012367718   0.0012367718   0              0              156.84844      488.40881     -174.89827      0              607.20538      0              0              9.4793047      9.7241903      0.2            92.178562    
     18300   0.18087924     0.0013872977   0.0013872977   0              0             -799.10511     -299.68559     -1298.7162      0              268.86499      0              0              9.4783395      9.7433822      0.2            92.351085    
     18400   0.22765318     0.00092700485  0.00092700485  0              0             -689.23274     -485.86767     -892.81101      0             -531.25709      0              0              9.4773743      9.7381809      0.2            92.292385    
     18500   0.1813384      0.00092818749  0.00092818749  0              0              407.14753      394.66276      419.42359      0              385.03257      0              0              9.4764091      9.724213       0.2            92.150621    
     18600   0.17289577     0.001100223    0.001100223    0              0              1175.8946      1245.2009      1106.3992      0             -185.11944      0              0              9.475444       9.7162093      0.2            92.065397    
     18700   0.1769581      0.0011859236   0.0011859236   0              0              925.28829      1164.5223      685.88175      0              265.93468      0              0              9.4744788      9.7198945      0.2            92.090934    
     18800   0.19536358     0.0010872129   0.0010872129   0              0              79.176495      652.69692     -494.51982      0              281.483        0              0              9.4735136      9.7336685      0.2            92.212041    
     18900   0.19769329     0.0011394804   0.0011394804   0              0             -404.4488       0.43427008    -809.52215      0              450.67163      0              0              9.4725484      9.7308706      0.2            92.176143    
     19000   0.18683491     0.0010568183   0.0010568183   0              0             -126.72741     -114.08814     -139.53723      0              716.38503      0              0              9.4715832      9.7275305      0.2            92.135115    
     19100   0.20284958     0.0011980587   0.0011980587   0              0              838.25226      1081.162       595.10798      0              73.417385      0              0              9.470618       9.7231806      0.2            92.08453     
     19200   0.19854203     0.001146552    0.001146552    0              0              1068.5544      1528.1657      608.71684      0              412.94468      0              0              9.4696529      9.7208112      0.2            92.052707    
     19300   0.20962764     0.0012838843   0.0012838843   0              0             -11.751062      18.452351     -42.137648      0             -515.78845      0              0              9.4686877      9.725931       0.2            92.091803    
     19400   0.22869931     0.0010612566   0.0010612566   0              0              66.782432      773.59057     -640.24211      0             -320.49963      0              0              9.4677225      9.7306135      0.2            92.126748    
     19500   0.20893127     0.0010802786   0.0010802786   0              0              251.54993      938.69755     -435.78858      0             -70.015071      0              0              9.4667573      9.7225546      0.2            92.041065    
     19600   0.23733261     0.0010047126   0.0010047126   0              0              87.354352      97.323179      77.206087      0             -11.47452       0              0              9.4657921      9.724693       0.2            92.051922    
     19700   0.18382483     0.00098451335  0.00098451335  0              0              961.78788      1402.1965      521.16979      0              856.57944      0              0              9.4648269      9.7275802      0.2            92.069863    
     19800   0.15121177     0.0011000369   0.0011000369   0              0              1033.2476      1502.6516      563.63962      0              721.60425      0              0              9.4638617      9.7275596      0.2            92.06028     
     19900   0.20669562     0.001153275    0.001153275    0              0              685.81229      1322.9853      48.446883      0              190.15624      0              0              9.4628966      9.7214138      0.2            91.992733    
     20000   0.18536297     0.00132479     0.00132479     0              0             -720.27292     -1038.7798     -401.95365      0              762.5741       0              0              9.4619314      9.7312198      0.2            92.076134    
     20100   0.18232562     0.0012212023   0.0012212023   0              0              398.98823      1272.6116     -474.83241      0              235.2226       0              0              9.4609662      9.7213685      0.2            91.973539    
     20200   0.16780152     0.00092062038  0.00092062038  0              0              762.22828      1469.3681      54.891342      0              57.390655      0              0              9.460001       9.7212232      0.2            91.962781    
     20300   0.18225943     0.0014128496   0.0014128496   0              0              962.68222      1399.9135      525.26071      0              526.6201       0              0              9.4590358      9.7196425      0.2            91.938447    
     20400   0.2283692      0.0013169097   0.0013169097   0              0              1266.1089      2101.8914      430.13741      0              1045.9576      0              0              9.4580706      9.724749       0.2            91.977363    
     20500   0.19627132     0.0013202909   0.0013202909   0              0              577.72885      1182.0771     -26.801457      0             -222.13683      0              0              9.4571055      9.7301653      0.2            92.019199    
     20600   0.19780121     0.001222986    0.001222986    0              0             -221.76706     -80.177666     -363.61211      0              84.055717      0              0              9.4561403      9.73877        0.2            92.091175    
     20700   0.20925092     0.0013549477   0.0013549477   0              0              339.64299      1078.0402     -398.93706      0             -313.23802      0              0              9.4551751      9.7304913      0.2            92.003499    
     20800   0.2328635      0.001392877    0.001392877    0              0              215.28593      282.06052      148.3266       0             -507.90587      0              0              9.4542099      9.7319703      0.2            92.00809     
     20900   0.2182712      0.001326721    0.001326721    0              0              547.54767      623.45334      471.43627      0             -71.801193      0              0              9.4532447      9.7298357      0.2            91.978518    
     21000   0.20753732     0.0011368023   0.0011368023   0              0              858.60032      1351.2944      365.7253       0             -144.3512       0              0              9.4522795      9.7311895      0.2            91.981923    
     21100   0.20237798     0.00096253957  0.00096253957  0              0              591.30979      1253.8238     -71.379153      0             -268.22258      0              0              9.4513144      9.7225065      0.2            91.890466    
     21200   0.16773252     0.0011978295   0.0011978295   0              0             -595.19625     -627.91421     -562.69464      0             -384.0562       0              0              9.4503492      9.7265316      0.2            91.91912     
     21300   0.22363026     0.0012965005   0.0012965005   0              0             -138.84987      26.406059     -304.30691      0             -166.06042      0              0              9.449384       9.7218884      0.2            91.865856    
     21400   0.23060929     0.0012650538   0.0012650538   0              0              946.32018      1769.844       122.60511      0             -332.57866      0              0              9.4484188      9.7172677      0.2            91.812815    
     21500   0.21586552     0.0014097171   0.0014097171   0              0              1127.7411      1835.372       419.92107      0              528.94006      0              0              9.4474536      9.7140769      0.2            91.773291    
     21600   0.17091736     0.0014046461   0.0014046461   0              0              903.29898      1285.2366      521.10512      0             -579.61493      0              0              9.4464884      9.7084929      0.2            91.711166    
     21700   0.16940674     0.0015268397   0.0015268397   0              0             -217.9193      -508.10833      72.081112      0              169.84623      0              0              9.4455233      9.7189134      0.2            91.800223    
     21800   0.17540855     0.0011671348   0.0011671348   0              0             -380.60113     -178.05718     -583.33238      0             -333.3034       0              0              9.4445581      9.7268766      0.2            91.866051    
     21900   0.17147557     0.0012465729   0.0012465729   0              0             -169.71553      262.07556     -601.71399      0             -101.43383      0              0              9.4435929      9.7331771      0.2            91.916162    
     22000   0.21009884     0.0013404256   0.0013404256   0              0              246.74868      435.60812      57.701037      0             -282.31579      0              0              9.4426277      9.7330998      0.2            91.906038    
     22100   0.21122892     0.0012772036   0.0012772036   0              0              1208.5547      1587.2239      829.69833      0             -852.83583      0              0              9.4416625      9.7234834      0.2            91.805849    
     22200   0.25412226     0.0014731131   0.0014731131   0              0              1313.7316      2040.6235      586.65561      0              213.47036      0              0              9.4406973      9.7214778      0.2            91.77753     
     22300   0.2414069      0.0013219316   0.0013219316   0              0              695.29969      1570.9629     -180.57507      0             -766.43912      0              0              9.4397321      9.7226228      0.2            91.778955    
     22400   0.21931932     0.001546134    0.001546134    0              0              185.34143      1275.5734     -905.08847      0             -128.68877      0              0              9.438767       9.7275388      0.2            91.815972    
     22500   0.17386059     0.0013941463   0.0013941463   0              0             -11.972156      826.13961     -850.30757      0              27.992413      0              0              9.4378018      9.7258229      0.2            91.790389    
     22600   0.18643738     0.00094227     0.00094227     0              0              940.92953      1687.6962      193.97375      0             -456.45241      0              0              9.4368366      9.7236765      0.2            91.760746    
     22700   0.18981967     0.00098059565  0.00098059565  0              0              1652.0685      2161.0197      1142.9084      0             -30.374532      0              0              9.4358714      9.7223442      0.2            91.738789    
     22800   0.21823481     0.001128241    0.001128241    0              0              1620.7575      2229.5185      1011.8139      0              76.83358       0              0              9.4349062      9.7304944      0.2            91.806302    
     22900   0.2510986      0.001221032    0.001221032    0              0              540.19639      1450.5063     -370.31009      0             -534.71358      0              0              9.433941       9.7344612      0.2            91.834333    
     23000   0.18033131     0.00122071     0.00122071     0              0             -1114.1254     -732.1862      -1496.2802      0             -784.41664      0              0              9.4329759      9.7433876      0.2            91.90914     
     23100   0.208805       0.0009285842   0.0009285842   0              0             -504.09535      217.39173     -1225.8186      0             -887.0138       0              0              9.4320107      9.731054       0.2            91.783405    
     23200   0.19700884     0.0011126748   0.0011126748   0              0              665.03469      704.75976      625.11485      0             -9.3912089      0              0              9.4310455      9.7243708      0.2            91.710983    
     23300   0.20639278     0.0012959068   0.0012959068   0              0              1615.1696      1165.2722      2064.8681      0              434.91554      0              0              9.4300803      9.7143811      0.2            91.607394    
     23400   0.19819279     0.0010619268   0.0010619268   0              0              1383.61        1172.4422      1594.5803      0             -478.7726       0              0              9.4291151      9.7168356      0.2            91.621161    
     23500   0.19840581     0.0011239762   0.0011239762   0              0             -232.32003      278.81953     -743.68296      0             -652.41611      0              0              9.4281499      9.7335691      0.2            91.769549    
     23600   0.16710234     0.0012309362   0.0012309362   0              0             -979.25843      13.974678     -1972.67        0              286.62         0              0              9.4271848      9.7393014      0.2            91.814194    
     23700   0.20186846     0.0012348621   0.0012348621   0              0             -1134.9417     -1185.8058     -1084.2641      0             -689.90609      0              0              9.4262196      9.7374015      0.2            91.786884    
     23800   0.19751385     0.00087639893  0.00087639893  0              0              285.10213     -102.2601       672.22286      0             -593.95754      0              0              9.4252544      9.7260973      0.2            91.670941    
     23900   0.20414932     0.0011327519   0.0011327519   0              0              1738.7852      2008.2058      1469.1909      0              140.30112      0              0              9.4242892      9.7182394      0.2            91.587499    
     24000   0.18852578     0.0010458155   0.0010458155   0              0              572.68041      478.34422      666.82573      0              332.94188      0              0              9.423324       9.7241826      0.2            91.634123    
     24100   0.213128       0.0009790025   0.0009790025   0              0             -201.50643      186.46888     -589.65779      0             -352.49954      0              0              9.4223588      9.7392324      0.2            91.766542    
     24200   0.18159413     0.0010377999   0.0010377999   0              0             -918.03461     -853.51708     -982.76771      0             -599.69702      0              0              9.4213936      9.7399808      0.2            91.764194    
     24300   0.19577367     0.00096549395  0.00096549395  0              0             -71.963815      106.62305     -250.79452      0             -50.790673      0              0              9.4204285      9.7421698      0.2            91.775413    
     24400   0.24146124     0.00098289296  0.00098289296  0              0              409.00802      309.62153      508.21229      0             -221.44507      0              0              9.4194633      9.7448572      0.2            91.791325    
     24500   0.16814061     0.001010051    0.001010051    0              0             -93.181763     -821.78037      635.22626      0             -84.794344      0              0              9.4184981      9.7368555      0.2            91.706555    
     24600   0.22040068     0.0011378565   0.0011378565   0              0             -55.196119     -252.07737      141.48898      0             -599.24102      0              0              9.4175329      9.7373802      0.2            91.702098    
     24700   0.22473645     0.0011657545   0.0011657545   0              0             -148.3285       218.1679      -515.04266      0             -387.24077      0              0              9.4165677      9.7419894      0.2            91.736103    
     24800   0.21766606     0.001224742    0.001224742    0              0             -680.37747     -708.08281     -652.87526      0             -597.2778       0              0              9.4156025      9.7470049      0.2            91.773924    
     24900   0.20035267     0.0011066353   0.0011066353   0              0             -51.704756     -95.515539     -8.0878055      0              423.9997       0              0              9.4146374      9.743285       0.2            91.729495    
     25000   0.19447299     0.0010639992   0.0010639992   0              0              589.35417      750.4001       428.13492      0             -255.85557      0              0              9.4136722      9.743796       0.2            91.724902    
     25100   0.23216346     0.0010199411   0.0010199411   0              0              587.63063      821.22148      353.81855      0             -685.2386       0              0              9.412707       9.7444218      0.2            91.721387    
     25200   0.17045201     0.0011614942   0.0011614942   0              0              146.62287      391.70137     -98.642719      0             -528.49995      0              0              9.4117418      9.7544858      0.2            91.806702    
     25300   0.16130334     0.0010898715   0.0010898715   0              0             -172.72256     -24.590841     -321.00784      0             -295.13186      0              0              9.4107766      9.7503397      0.2            91.758269    
     25400   0.23290647     0.0011628917   0.0011628917   0              0             -308.14003     -271.45903     -344.99076      0             -900.3395       0              0              9.4098114      9.7587998      0.2            91.828466    
     25500   0.19867627     0.0013799396   0.0013799396   0              0              109.45077      187.0732       31.611748      0             -52.528279      0              0              9.4088463      9.7607398      0.2            91.8373      
     25600   0.18852212     0.0013459546   0.0013459546   0              0              281.02789      318.12697      243.69463      0             -118.41229      0              0              9.4078811      9.7484695      0.2            91.712442    
     25700   0.21930009     0.0013720967   0.0013720967   0              0              522.4335       888.48621      156.16524      0              16.352664      0              0              9.4069159      9.7486528      0.2            91.704757    
     25800   0.20677162     0.0012347798   0.0012347798   0              0              585.13585      1331.09       -161.01159      0              34.852799      0              0              9.4059507      9.7556458      0.2            91.761123    
     25900   0.16528719     0.001403356    0.001403356    0              0              154.12674      567.4282      -259.34322      0             -536.29868      0              0              9.4049855      9.7542311      0.2            91.738402    
     26000   0.25310168     0.0010155667   0.0010155667   0              0              113.99355      267.09897     -39.303904      0             -437.37477      0              0              9.4040203      9.7564533      0.2            91.749885    
     26100   0.1868212      0.0011933202   0.0011933202   0              0             -144.43934     -204.32925     -84.727912      0              389.41055      0              0              9.4030552      9.7571507      0.2            91.747026    
     26200   0.20241565     0.0010720337   0.0010720337   0              0              13.111735     -73.448519      99.511252      0             -647.75646      0              0              9.40209        9.7540553      0.2            91.708506    
     26300   0.21664932     0.0012429508   0.0012429508   0              0             -175.34302     -490.65915      139.76253      0             -485.5337       0              0              9.4011248      9.7591603      0.2            91.747084    
     26400   0.21062391     0.0013269047   0.0013269047   0              0              292.34238      384.30483      200.18735      0             -484.21711      0              0              9.4001596      9.7663286      0.2            91.805048    
     26500   0.19072116     0.0010530003   0.0010530003   0              0              547.92671      1004.1579      91.496657      0             -266.00537      0              0              9.3991944      9.7674998      0.2            91.806629    
     26600   0.18584499     0.0010710494   0.0010710494   0              0              229.99479      545.82841     -86.094155      0             -652.1153       0              0              9.3982292      9.7605645      0.2            91.732023    
     26700   0.20111353     0.0013135087   0.0013135087   0              0              682.98983      1520.9918     -155.17286      0             -493.83304      0              0              9.397264       9.7608131      0.2            91.724938    
     26800   0.20568322     0.0014779223   0.0014779223   0              0             -328.91403     -553.49569     -104.54063      0              94.071963      0              0              9.3962989      9.7608038      0.2            91.715429    
     26900   0.20622894     0.00095453499  0.00095453499  0              0             -78.381504     -181.82697      24.845461      0             -671.48968      0              0              9.3953337      9.7539447      0.2            91.641565    
     27000   0.18520244     0.0012288291   0.0012288291   0              0              52.054791     -158.34644      262.21095      0             -1020.877       0              0              9.3943685      9.7425187      0.2            91.524811    
     27100   0.17810438     0.0013594265   0.0013594265   0              0              72.170234     -51.931254      196.10168      0             -114.45201      0              0              9.3934033      9.7437716      0.2            91.527177    
     27200   0.19919639     0.0011392391   0.0011392391   0              0              490.61429      977.37797      3.6582296      0             -741.72804      0              0              9.3924381      9.7483855      0.2            91.561108    
     27300   0.23829258     0.0011466717   0.0011466717   0              0              384.16848      1048.577      -280.41667      0              190.54968      0              0              9.3914729      9.7454665      0.2            91.524285    
     27400   0.20730286     0.0010117157   0.0010117157   0              0             -233.70158     -40.30963      -427.26307      0              414.80958      0              0              9.3905078      9.7503503      0.2            91.560741    
     27500   0.21276623     0.0012934476   0.0012934476   0              0             -738.98723     -1113.118      -365.02816      0              475.94072      0              0              9.3895426      9.7448421      0.2            91.499609    
     27600   0.21978848     0.0012699335   0.0012699335   0              0              69.517006      64.106458      74.711958      0              194.21425      0              0              9.3885774      9.7526718      0.2            91.563714    
     27700   0.25398257     0.001286404    0.001286404    0              0              47.820678     -405.24381      500.6825       0              30.341738      0              0              9.3876122      9.7495732      0.2            91.525212    
     27800   0.20072574     0.001245204    0.001245204    0              0              367.796        151.69331      583.7173       0              245.03601      0              0              9.386647       9.7682746      0.2            91.691346    
     27900   0.21290748     0.0014895651   0.0014895651   0              0             -473.03938     -956.41118      10.153615      0             -982.01027      0              0              9.3856818      9.7658835      0.2            91.659476    
     28000   0.18446902     0.0011188455   0.0011188455   0              0             -862.7333      -1077.7924     -647.88486      0             -237.44006      0              0              9.3847167      9.7727298      0.2            91.7143      
     28100   0.22529059     0.0011794955   0.0011794955   0              0             -681.96513     -506.8838      -857.23798      0             -365.70518      0              0              9.3837515      9.7675172      0.2            91.655954    
[...]
     43100   0.22695615     0.0013103107   0.0013103107   0              0              73.839052      445.74327     -298.2327       0             -123.73774      0              0              9.2389739      9.7770564      0.2            90.329968    
     43200   0.26743418     0.0015332994   0.0015332994   0              0              349.31542      1019.3958     -320.93459      0             -109.48596      0              0              9.2380087      9.7836651      0.2            90.381583    
     43300   0.17803693     0.0013110888   0.0013110888   0              0              429.70773      1163.0887     -303.90176      0              20.024382      0              0              9.2370435      9.7909585      0.2            90.43951     
     43400   0.15868347     0.0013083799   0.0013083799   0              0              550.70553      1412.9398     -311.72079      0             -1147.9565      0              0              9.2360783      9.7836195      0.2            90.362276    
     43500   0.26780669     0.0014564161   0.0014564161   0              0             -29.502461      207.72055     -266.94712      0              56.748196      0              0              9.2351131      9.7868214      0.2            90.382403    
     43600   0.21030887     0.0013193853   0.0013193853   0              0              557.00357      1285.4204     -171.61477      0             -441.23725      0              0              9.2341479      9.7917044      0.2            90.418047    
     43700   0.21132586     0.0010969317   0.0010969317   0              0              477.99092      805.20869      150.59851      0             -285.20426      0              0              9.2331827      9.7812552      0.2            90.312117    
     43800   0.20621756     0.0015006904   0.0015006904   0              0              657.43657      925.08731      389.63684      0              389.32347      0              0              9.2322176      9.767032       0.2            90.171364    
     43900   0.19709756     0.0012801444   0.0012801444   0              0              740.39598      1088.9793      391.61973      0             -1171.4764      0              0              9.2312524      9.7691722      0.2            90.181694    
     44000   0.13939542     0.0014803261   0.0014803261   0              0              1062.9509      1710.6779      415.03745      0             -788.57305      0              0              9.2302872      9.7782409      0.2            90.255972    
     44100   0.19895592     0.0014117043   0.0014117043   0              0              704.15864      1113.4113      294.68411      0             -486.42084      0              0              9.229322       9.7737906      0.2            90.205461    
     44200   0.18363632     0.001370796    0.001370796    0              0              643.66293      998.90796      288.211        0             -1069.6183      0              0              9.2283568      9.7728148      0.2            90.187022    
     44300   0.24042981     0.0012365201   0.0012365201   0              0              608.02662      887.68656      328.16921      0             -472.5081       0              0              9.2273916      9.7716789      0.2            90.167108    
     44400   0.21111812     0.0012653484   0.0012653484   0              0              1054.5341      2010.3512      98.498746      0             -770.90922      0              0              9.2264265      9.7807979      0.2            90.241813    
     44500   0.2302778      0.0012772263   0.0012772263   0              0              456.03243      849.31107      62.54223       0             -71.025388      0              0              9.2254613      9.7844839      0.2            90.266378    
     44600   0.23267497     0.0015023811   0.0015023811   0              0              548.89671      1216.8339     -119.21697      0             -934.97355      0              0              9.2244961      9.7782835      0.2            90.199738    
     44700   0.19003992     0.0013085936   0.0013085936   0              0              184.75385      617.33144     -248.05523      0             -736.73546      0              0              9.2235309      9.7851388      0.2            90.25353     
     44800   0.24772269     0.0011829642   0.0011829642   0              0              708.50289      1849.8561     -433.02245      0             -882.4561       0              0              9.2225657      9.7943625      0.2            90.329152    
     44900   0.24657586     0.0013435158   0.0013435158   0              0              799.74037      2048.5255     -449.26996      0             -1120.158       0              0              9.2216005      9.7809666      0.2            90.196167    
     45000   0.19331533     0.0014163658   0.0014163658   0              0              399.71423      1324.871      -525.64971      0             -1248.3379      0              0              9.2206354      9.7862944      0.2            90.235852    
     45100   0.18478333     0.0011223617   0.0011223617   0              0             -270.26572     -90.159811     -450.53877      0             -600.06602      0              0              9.2196702      9.7873317      0.2            90.23597     
     45200   0.23193549     0.0013313587   0.0013313587   0              0              240.75371      997.26681     -515.97602      0             -1466.3141      0              0              9.218705       9.7925041      0.2            90.274206    
     45300   0.24870514     0.001759377    0.001759377    0              0              346.02259      1079.9707     -388.10741      0             -1002.9649      0              0              9.2177398      9.7846375      0.2            90.192243    
     45400   0.26508659     0.0015076356   0.0015076356   0              0              204.39842      517.31769     -108.71312      0             -1278.8655      0              0              9.2167746      9.7925905      0.2            90.2561      
     45500   0.16254984     0.001272401    0.001272401    0              0              1163.5696      2119.9984      206.922        0             -473.51327      0              0              9.2158094      9.7898715      0.2            90.22159     
     45600   0.25024997     0.001391709    0.001391709    0              0              594.94797      605.26887      584.43418      0             -988.38382      0              0              9.2148443      9.7851195      0.2            90.168352    
     45700   0.20860672     0.0012156511   0.0012156511   0              0              591.20623      299.85015      882.35929      0             -236.64873      0              0              9.2138791      9.7894721      0.2            90.199012    
     45800   0.26269752     0.0011167077   0.0011167077   0              0              959.07254      816.26601      1101.7242      0             -56.262156      0              0              9.2129139      9.7869776      0.2            90.166582    
     45900   0.24710263     0.0012785252   0.0012785252   0              0              1074.9512      1087.1362      1062.5258      0             -604.0456       0              0              9.2119487      9.7796006      0.2            90.089179    
     46000   0.22969985     0.0014930536   0.0014930536   0              0              1223.2204      1447.4496      998.78371      0             -18.149572      0              0              9.2109835      9.783464       0.2            90.115326    
     46100   0.25305801     0.0011030744   0.0011030744   0              0              495.31123      346.69562      643.74049      0             -706.78381      0              0              9.2100183      9.7865584      0.2            90.134382    
     46200   0.20865398     0.0015027219   0.0015027219   0              0              277.80083      379.72182      175.62937      0              258.54199      0              0              9.2090531      9.7884959      0.2            90.142779    
     46300   0.18886673     0.0013095707   0.0013095707   0              0             -71.695489      337.46506     -481.05514      0             -257.59172      0              0              9.208088       9.8038649      0.2            90.27485     
     46400   0.20278486     0.0012691301   0.0012691301   0              0             -308.92504      248.59788     -866.63198      0             -493.54695      0              0              9.2071228      9.8052149      0.2            90.277818    
     46500   0.19020046     0.0015300553   0.0015300553   0              0             -963.55821     -756.76537     -1170.5473      0             -642.61968      0              0              9.2061576      9.8041875      0.2            90.258895    
     46600   0.19003963     0.0014367654   0.0014367654   0              0             -467.13234      269.1045      -1203.5954      0             -294.57488      0              0              9.2051924      9.806786       0.2            90.273352    
     46700   0.16748427     0.0013197718   0.0013197718   0              0             -274.25977      561.11563     -1109.84        0             -478.6928       0              0              9.2042272      9.8062573      0.2            90.259021    
     46800   0.24289656     0.0013523548   0.0013523548   0              0             -337.65797      86.778702     -762.31243      0             -866.98877      0              0              9.203262       9.8043487      0.2            90.23199     
     46900   0.1603113      0.0015036244   0.0015036244   0              0             -728.3269      -879.7232      -577.11259      0             -756.06479      0              0              9.2022969      9.7972508      0.2            90.15721     
     47000   0.20613358     0.0013560323   0.0013560323   0              0              503.15431      1152.5918     -146.4572       0             -4.9511131      0              0              9.2013317      9.8040307      0.2            90.210138    
     47100   0.21011996     0.0011957953   0.0011957953   0              0              578.12602      900.93149      255.13582      0             -191.2327       0              0              9.2003665      9.8005675      0.2            90.168813    
     47200   0.20629012     0.0013338301   0.0013338301   0              0              633.89959      911.1572       356.39752      0             -386.23087      0              0              9.1994013      9.7962257      0.2            90.119412    
     47300   0.21304151     0.0013212612   0.0013212612   0              0              116.47194     -336.58958      569.34183      0             -86.899138      0              0              9.1984361      9.7958924      0.2            90.106891    
     47400   0.20018262     0.0015684835   0.0015684835   0              0              1112.8824      1419.4095      806.13877      0             -823.85943      0              0              9.1974709      9.798351       0.2            90.120049    
     47500   0.1954826      0.0013005699   0.0013005699   0              0              468.55847     -67.907009      1004.8367      0             -600.05367      0              0              9.1965058      9.8077811      0.2            90.197316    
     47600   0.18792851     0.0014681491   0.0014681491   0              0              1085.6832      1264.8327      906.34956      0             -670.50202      0              0              9.1955406      9.806287       0.2            90.17411     
     47700   0.16957841     0.0013567441   0.0013567441   0              0              742.73571      529.56545      955.6683       0             -750.03643      0              0              9.1945754      9.7897739      0.2            90.012814    
     47800   0.19616336     0.001206586    0.001206586    0              0              620.35736      490.36166      750.13996      0             -916.56614      0              0              9.1936102      9.8044411      0.2            90.13821     
     47900   0.20578352     0.0013463127   0.0013463127   0              0              1196.3897      1765.8688      626.73069      0             -551.51803      0              0              9.192645       9.7942624      0.2            90.035178    
     48000   0.16612092     0.0013651589   0.0013651589   0              0              1654.2383      2877.6363      430.64919      0             -949.14069      0              0              9.1916798      9.807921       0.2            90.15127     
     48100   0.20714213     0.0013178708   0.0013178708   0              0              671.9041       1224.2535      119.35528      0             -1133.7523      0              0              9.1907146      9.8004396      0.2            90.073044    
     48200   0.21801452     0.0013401951   0.0013401951   0              0              737.89664      1538.3713     -62.764994      0             -998.46678      0              0              9.1897495      9.7958573      0.2            90.021474    
     48300   0.21004905     0.0015266649   0.0015266649   0              0              1123.3341      2457.8149     -211.38425      0             -519.63642      0              0              9.1887843      9.8005034      0.2            90.054712    
     48400   0.2810066      0.0013513761   0.0013513761   0              0              490.28331      1275.2044     -294.89001      0             -231.99037      0              0              9.1878191      9.7861261      0.2            89.913156    
     48500   0.23641164     0.0013167391   0.0013167391   0              0              315.95782      1032.9148     -401.24279      0             -495.91873      0              0              9.1868539      9.7846043      0.2            89.88973     
     48600   0.18702139     0.0014661783   0.0014661783   0              0              395.27592      1139.7861     -349.40423      0             -87.588356      0              0              9.1858887      9.7971022      0.2            89.99509     
     48700   0.19724852     0.0011328899   0.0011328899   0              0              31.537014      453.90302     -391.03121      0             -901.09119      0              0              9.1849235      9.8040542      0.2            90.049488    
     48800   0.19413334     0.0014904668   0.0014904668   0              0              439.84172      1191.4199     -311.94811      0             -204.83584      0              0              9.1839584      9.8044038      0.2            90.043236    
     48900   0.21742318     0.0012741488   0.0012741488   0              0              665.45978      1505.1339     -174.44765      0             -79.031609      0              0              9.1829932      9.8059438      0.2            90.047915    
     49000   0.1869516      0.0014852156   0.0014852156   0              0              653.73987      1407.3378     -100.06102      0             -115.4394       0              0              9.182028       9.8071928      0.2            90.049919    
     49100   0.26032537     0.0013998321   0.0013998321   0              0              219.79012      496.15837     -56.793694      0             -801.2648       0              0              9.1810628      9.804414       0.2            90.014941    
     49200   0.19600622     0.0013737117   0.0013737117   0              0              373.15779      809.41502     -63.272658      0              564.82246      0              0              9.1800976      9.8072679      0.2            90.031677    
     49300   0.27536264     0.0014810228   0.0014810228   0              0             -333.5588      -497.48603     -169.8445       0             -128.25254      0              0              9.1791324      9.8098065      0.2            90.045513    
     49400   0.18088951     0.0012084372   0.0012084372   0              0              464.30126      874.69504      53.654331      0              553.6811       0              0              9.1781673      9.8090412      0.2            90.029021    
     49500   0.19000077     0.0012945981   0.0012945981   0              0              316.14178      708.54349     -76.468218      0             -389.63434      0              0              9.1772021      9.8152732      0.2            90.076745    
     49600   0.19565527     0.0011473354   0.0011473354   0              0              297.70871      697.69715     -102.48732      0             -305.18554      0              0              9.1762369      9.816992       0.2            90.083044    
     49700   0.20739419     0.0011977986   0.0011977986   0              0              332.91809      767.01582     -101.39909      0             -824.41816      0              0              9.1752717      9.8143742      0.2            90.04955     
     49800   0.23808459     0.0011190539   0.0011190539   0              0              143.95175      205.49362      82.216499      0             -692.37002      0              0              9.1743065      9.8182318      0.2            90.075468    
     49900   0.23053801     0.0011290243   0.0011290243   0              0             -8.1988474      59.958327     -76.561335      0             -1033.1482      0              0              9.1733413      9.8214297      0.2            90.095327    
     50000   0.18933601     0.0016140376   0.0016140376   0              0              386.44356      921.91075     -149.21312      0              51.585137      0              0              9.1723762      9.8097055      0.2            89.978309    
     50100   0.23122871     0.0014338676   0.0014338676   0              0             -193.77315     -232.78036     -154.95595      0             -628.86321      0              0              9.171411       9.8143349      0.2            90.011299    
     50200   0.21211536     0.0014216708   0.0014216708   0              0              537.07167      1290.4617     -216.54682      0             -15.219677      0              0              9.1704458      9.8220161      0.2            90.072266    
     50300   0.19739958     0.0011024975   0.0011024975   0              0              611.60423      1341.2399     -118.27151      0             -665.68446      0              0              9.1694806      9.8244332      0.2            90.08495     
     50324   0.18643424     0.0011243673   0.0011243673   0              0              955.27503      1472.4084      437.97422      0             -674.87346      0              0              9.169249       9.8218566      0.2            90.059048    
Loop time of 1.20736 on 1 procs for 50000 steps with 66 atoms

Performance: 35780.400 ns/day, 0.001 hours/ns, 41412.500 timesteps/s
99.7% CPU use with 1 MPI tasks x 1 OpenMP threads

MPI task timing breakdown:
Section |  min time  |  avg time  |  max time  |%varavg| %total
---------------------------------------------------------------
Pair    | 0          | 0          | 0          |   0.0 |  0.00
Bond    | 0.18138    | 0.18138    | 0.18138    |   0.0 | 15.02
Neigh   | 0          | 0          | 0          |   0.0 |  0.00
Comm    | 0.41021    | 0.41021    | 0.41021    |   0.0 | 33.98
Output  | 0.0074301  | 0.0074301  | 0.0074301  |   0.0 |  0.62
Modify  | 0.57805    | 0.57805    | 0.57805    |   0.0 | 47.88
Other   |            | 0.03029    |            |       |  2.51

Nlocal:             66 ave          66 max          66 min
Histogram: 1 0 0 0 0 0 0 0 0 0
Nghost:            568 ave         568 max         568 min
Histogram: 1 0 0 0 0 0 0 0 0 0
Neighs:              0 ave           0 max           0 min
Histogram: 1 0 0 0 0 0 0 0 0 0

Total # of neighbors = 0
Ave neighs/atom = 0
Ave special neighs/atom = 22.30303
Neighbor list builds = 0
Dangerous builds = 0


Total wall time: 0:00:01
