LAMMPS data file.

     66 atoms
    147 bonds
      0 angles
      0 dihedrals
      0 impropers
      1 atom types
    147 bond types
      0 angle types
      0 dihedral types
      0 improper types
  -4.825920   4.825920 xlo xhi
  -4.825920   4.825920 ylo yhi
  -0.100000   0.100000 zlo zhi

Masses # ['atom_id', 'mass']

1 10000.0

Atoms # ['atomID', 'moleculeID', 'atomType', 'charge', 'x', 'y', 'z']

     34      1      1   0.000000  -3.899042  -3.987902   0.000000
     36      1      1   0.000000  -2.943400  -4.602472   0.000000
     32      1      1   0.000000  -1.805703  -4.611156   0.000000
     54      1      1   0.000000  -1.204448  -3.844878   0.000000
     60      1      1   0.000000  -0.683661  -4.584206   0.000000
     22      1      1   0.000000   0.845560  -4.380706   0.000000
      7      1      1   0.000000   2.231329  -4.398942   0.000000
     75      1      1   0.000000   3.266400  -4.208481   0.000000
     49      1      1   0.000000   3.845070  -3.745369   0.000000
     33      1      1   0.000000   4.712223  -4.523933   0.000000
     55      1      1   0.000000  -4.537714  -3.169988   0.000000
     20      1      1   0.000000  -2.376667  -3.433465   0.000000
     66      1      1   0.000000  -1.403520  -3.163631   0.000000
     58      1      1   0.000000  -0.804988  -2.759500   0.000000
     38      1      1   0.000000  -0.173723  -3.655035   0.000000
     26      1      1   0.000000   1.274761  -3.362858   0.000000
     61      1      1   0.000000   4.610433  -3.709667   0.000000
     39      1      1   0.000000   4.148089  -2.708888   0.000000
      5      1      1   0.000000  -4.642481  -1.873286   0.000000
     29      1      1   0.000000  -3.434917  -1.404432   0.000000
     63      1      1   0.000000  -0.771111  -2.007411   0.000000
     16      1      1   0.000000   0.313794  -2.267062   0.000000
     53      1      1   0.000000   1.518917  -2.417978   0.000000
     21      1      1   0.000000   3.432371  -1.714029   0.000000
     37      1      1   0.000000  -4.269724  -0.548683   0.000000
     14      1      1   0.000000  -2.155990  -0.734232   0.000000
     18      1      1   0.000000  -0.316801  -1.122291   0.000000
     40      1      1   0.000000   0.939361  -0.548197   0.000000
      9      1      1   0.000000   2.133744  -1.272856   0.000000
     43      1      1   0.000000   3.180258  -0.590948   0.000000
     24      1      1   0.000000   4.151656  -0.734429   0.000000
     12      1      1   0.000000  -3.430371   0.589241   0.000000
     45      1      1   0.000000  -2.362483   0.362009   0.000000
     70      1      1   0.000000  -1.151056  -0.456797   0.000000
     42      1      1   0.000000  -1.491355   0.356609   0.000000
     74      1      1   0.000000   0.095038  -0.169652   0.000000
     56      1      1   0.000000  -0.655466   0.026064   0.000000
     13      1      1   0.000000   0.713448   0.707436   0.000000
     15      1      1   0.000000   2.200384   0.164851   0.000000
     30      1      1   0.000000   3.501475   0.326107   0.000000
     47      1      1   0.000000   4.569467   0.340191   0.000000
     78      1      1   0.000000  -4.489579   0.861089   0.000000
     69      1      1   0.000000  -4.069461   1.357369   0.000000
     59      1      1   0.000000  -3.200503   1.680160   0.000000
      6      1      1   0.000000   4.231604   1.518818   0.000000
     10      1      1   0.000000  -4.036996   2.393462   0.000000
     17      1      1   0.000000  -2.590033   2.609691   0.000000
     19      1      1   0.000000  -0.222654   2.650853   0.000000
     44      1      1   0.000000   1.579991   1.544970   0.000000
     50      1      1   0.000000   0.541438   1.887660   0.000000
      8      1      1   0.000000   2.756210   1.651253   0.000000
     72      1      1   0.000000   3.460103   2.420449   0.000000
     62      1      1   0.000000   4.649319   2.541031   0.000000
     67      1      1   0.000000  -3.776859   3.508994   0.000000
     41      1      1   0.000000  -3.101568   3.863448   0.000000
     52      1      1   0.000000  -1.386964   2.654118   0.000000
     57      1      1   0.000000   0.955399   2.918159   0.000000
     64      1      1   0.000000   1.191756   2.221615   0.000000
     27      1      1   0.000000   1.974892   2.520226   0.000000
     11      1      1   0.000000   3.121151   3.417707   0.000000
     76      1      1   0.000000   4.074630   2.677218   0.000000
      2      1      1   0.000000   4.591733   3.657613   0.000000
     25      1      1   0.000000  -3.909707   4.460108   0.000000
     51      1      1   0.000000  -2.327928   4.155976   0.000000
      4      1      1   0.000000  -1.055326   3.826510   0.000000
     31      1      1   0.000000   3.734869   4.671799   0.000000

Bond Coeffs # ['bondID', 'bondCoeff', 'd']

      1   0.689964   1.203890
      2   0.737666   1.164314
      3   0.903285   1.052174
      4   1.010271   0.994904
      5   0.581787   1.311046
      6   0.524239   1.381132
      7   0.647937   1.242320
      8   1.049967   0.975915
      9   0.910387   1.048062
     10   1.037129   0.981937
     11   0.677922   1.214535
     12   0.990988   1.004537
     13   1.985197   0.709738
     14   0.653004   1.237491
     15   2.365222   0.650226
     16   1.820396   0.741169
     17   0.780655   1.131802
     18   0.614383   1.275794
     19   0.780655   1.131802
     20   1.834997   0.738214
     21   1.834997   0.738214
     22   0.645772   1.244401
     23   0.645772   1.244401
     24   0.902815   1.052448
     25   1.059132   0.971684
     26   0.512979   1.396208
     27   0.803576   1.115543
     28   0.820071   1.104268
     29   1.001546   0.999228
     30   1.227342   0.902646
     31   0.772540   1.137731
     32   1.227342   0.902646
     33   0.769982   1.139619
     34   0.769982   1.139619
     35   0.857549   1.079868
     36   0.799955   1.118065
     37   1.461794   0.827098
     38   0.901380   1.053286
     39   0.833001   1.095663
     40   0.716955   1.181011
     41   0.980560   1.009864
     42   0.585428   1.306962
     43   1.703416   0.766196
     44   1.317709   0.871145
     45   1.719230   0.762664
     46   1.423548   0.838135
     47   0.638758   1.251214
     48   0.677054   1.215314
     49   0.697635   1.197253
     50   0.838913   1.091796
     51   0.813955   1.108408
     52   0.520647   1.385888
     53   0.595936   1.295389
     54   1.048200   0.976738
     55   1.048200   0.976738
     56   0.665780   1.225560
     57   0.803610   1.115520
     58   1.848294   0.735554
     59   0.640948   1.249076
     60   1.167983   0.925298
     61   1.605807   0.789139
     62   1.605807   0.789139
     63   0.919855   1.042654
     64   0.592500   1.299140
     65   0.699688   1.195495
     66   0.567283   1.327701
     67   0.804541   1.114874
     68   0.689979   1.203877
     69   0.689979   1.203877
     70   0.399141   1.582838
     71   0.508280   1.402647
     72   0.508280   1.402647
     73   0.694437   1.200007
     74   0.694437   1.200007
     75   0.669269   1.222362
     76   0.872723   1.070439
     77   0.729859   1.170524
     78   0.729859   1.170524
     79   1.237670   0.898871
     80   0.872723   1.070439
     81   1.054086   0.974007
     82   0.878068   1.067176
     83   0.868271   1.073179
     84   0.467190   1.463029
     85   1.084284   0.960348
     86   0.612868   1.277370
     87   0.531614   1.371519
     88   1.222758   0.904336
     89   0.859656   1.078543
     90   0.455721   1.481326
     91   0.591955   1.299737
     92   0.859656   1.078543
     93   0.491968   1.425711
     94   0.491968   1.425711
     95   0.947483   1.027340
     96   0.947483   1.027340
     97   0.834922   1.094403
     98   0.481809   1.440664
     99   0.702979   1.192693
    100   0.819519   1.104640
    101   0.774625   1.136199
    102   2.254413   0.666014
    103   0.688534   1.205139
    104   0.836244   1.093537
    105   1.485021   0.820604
    106   0.920080   1.042527
    107   0.876574   1.068085
    108   1.643186   0.780111
    109   1.917313   0.722193
    110   0.793838   1.122365
    111   0.928604   1.037731
    112   0.928391   1.037850
    113   0.490850   1.427334
    114   0.490850   1.427334
    115   0.476504   1.448661
    116   0.502894   1.410139
    117   0.646216   1.243974
    118   0.665198   1.226096
    119   0.827458   1.099327
    120   0.511340   1.398444
    121   0.857412   1.079954
    122   0.930628   1.036602
    123   1.871120   0.731054
    124   0.500154   1.413996
    125   0.595762   1.295579
    126   0.595762   1.295579
    127   0.732294   1.168577
    128   0.583785   1.308800
    129   0.890159   1.059903
    130   0.673633   1.218395
    131   0.512378   1.397026
    132   0.849649   1.084876
    133   0.849649   1.084876
    134   2.088711   0.691928
    135   0.685278   1.207999
    136   0.528117   1.376052
    137   0.663716   1.227464
    138   0.663716   1.227464
    139   0.479657   1.443892
    140   0.808604   1.112070
    141   0.762147   1.145462
    142   0.482756   1.439250
    143   1.764337   0.752851
    144   0.450417   1.490022
    145   0.397088   1.586926
    146   2.866862   0.590604
    147   1.662340   0.775604

Bonds # ['ID', 'type', 'atom1', 'atom2']

         1         1        17        52
         2         2        19        52
         3         3        44        27
         4         4        63        18
         5         5        15        30
         6         6        18        40
         7         7        54        20
         8         8        26        53
         9         9        54        38
        10        10        43        24
        11        11        16        53
        12        12        41        25
        13        13        54        66
        14        14        43        15
        15        15        78        69
        16        16        75        49
        17        17        36        25
        18        18        40        13
        19        19        25        36
        20        20        55        61
        21        21        61        55
        22        22        37        24
        23        23        24        37
        24        24         7        75
        25        25        43        30
        26        26        11        31
        27        27        63        16
        28        28         6        62
        29        29        12        69
        30        30        75        31
        31        31        36        32
        32        32        31        75
        33        33        78         6
        34        34         6        78
        35        35        49        39
        36        36        62         2
        37        37        41        51
        38        38        72        11
        39        39        58        38
        40        40        44         8
        41        41        20        66
        42        42        16        18
        43        43        49        61
        44        44        45        42
        45        45        67        41
        46        46        64        27
        47        47        22        38
        48        48        21        24
        49        49        18        56
        50        50        12        45
        51        51        76         2
        52        52        22         7
        53        53         5        29
        54        54        10        62
        55        55        62        10
        56        56        39        21
        57        57        14        45
        58        58        57        64
        59        59         9        43
        60        60        40        74
        61        61        47        78
        62        62        78        47
        63        63         8        72
        64        64        36        20
        65        65        29        37
        66        66         2        31
        67        67        12        59
        68        68        34        25
        69        69        25        34
        70        70        13        15
        71        71        25         2
        72        72         2        25
        73        73        39         5
        74        74         5        39
        75        75        58        16
        76        76        55        39
        77        77        34        33
        78        78        33        34
        79        79        42        56
        80        80        39        55
        81        81        32        54
        82        82        18        70
        83        83        74        13
        84        84        10        17
        85        85        67        25
        86        86        14        42
        87        87        21         9
        88        88        54        60
        89        89        33        31
        90        90         6         8
        91        91        53         9
        92        92        31        33
        93        93         5        24
        94        94        24         5
        95        95        32        51
        96        96        51        32
        97        97        57        27
        98        98        19         4
        99        99        13        50
       100       100        22        26
       101       101        34        36
       102       102        72        76
       103       103        13        44
       104       104        12        78
       105       105        33        61
       106       106        14        70
       107       107        30        47
       108       108        44        64
       109       109        66        58
       110       110        32        60
       111       111        34        55
       112       112        18        74
       113       113        32         4
       114       114         4        32
       115       115        40        15
       116       116         7        26
       117       117        24        30
       118       118        47         6
       119       119        59        10
       120       120        30         6
       121       121        19        50
       122       122        69        10
       123       123        50        64
       124       124        37        12
       125       125        60         4
       126       126         4        60
       127       127         8        27
       128       128        32        20
       129       129        60        38
       130       130        52         4
       131       131        40         9
       132       132        36        51
       133       133        51        36
       134       134        70        56
       135       135        19        57
       136       136         5        37
       137       137        33        25
       138       138        25        33
       139       139        29        14
       140       140        59        17
       141       141        10        67
       142       142         9        15
       143       143        58        63
       144       144        11         2
       145       145        15         8
       146       146        62        76
       147       147        74        56
