ITEM: TIMESTEP
250
ITEM: NUMBER OF ATOMS
70
ITEM: BOX BOUNDS pp pp pp
-4.8025750142009365e+00 4.8025750142009365e+00
-4.8017355426320751e+00 4.8017355426320751e+00
-1.0000000000000001e-01 1.0000000000000001e-01
ITEM: ATOMS id type xs ys zs
34 1 0.153224 0.109235 0.500298
11 1 0.261462 0.954764 0.500442
58 1 0.392961 0.0227749 0.49986
51 1 0.685677 0.0522137 0.500338
54 1 0.886406 0.0849319 0.500053
16 1 0.0243283 0.0304689 0.499868
47 1 0.0287301 0.156548 0.500038
73 1 0.228192 0.0633678 0.500656
43 1 0.220274 0.192677 0.49972
1 1 0.325877 0.125051 0.50026
27 1 0.470822 0.10438 0.499756
21 1 0.779324 0.126461 0.500256
57 1 0.892917 0.190775 0.500184
69 1 0.942991 0.137349 0.500221
3 1 0.10968 0.24655 0.500256
23 1 0.281718 0.285262 0.500054
13 1 0.423174 0.23805 0.500023
38 1 0.552887 0.295075 0.500459
17 1 0.779451 0.268971 0.499856
49 1 0.982345 0.234347 0.499673
32 1 0.903324 0.30623 0.500832
10 1 0.0928299 0.391085 0.499371
20 1 0.232507 0.448181 0.49969
15 1 0.382101 0.39008 0.500136
30 1 0.540082 0.428082 0.500053
5 1 0.671474 0.375219 0.499077
50 1 0.79163 0.39781 0.498656
64 1 0.87358 0.396975 0.499501
36 1 0.963796 0.417716 0.499974
62 1 0.130128 0.504499 0.499111
66 1 0.271168 0.56584 0.500121
22 1 0.36156 0.553809 0.501068
76 1 0.429798 0.481438 0.500306
55 1 0.613861 0.500453 0.499226
29 1 0.728624 0.498161 0.499852
35 1 0.846647 0.489625 0.500983
71 1 0.123511 0.666351 0.50019
25 1 0.174604 0.58664 0.499672
33 1 0.302857 0.663761 0.50019
42 1 0.418856 0.647546 0.500217
19 1 0.503772 0.559455 0.500116
14 1 0.655302 0.628763 0.50027
53 1 0.788263 0.590047 0.500424
80 1 0.89643 0.697395 0.500335
37 1 0.891462 0.599705 0.500522
56 1 0.100855 0.72226 0.499506
59 1 0.190112 0.697933 0.500878
60 1 0.153281 0.781825 0.499898
44 1 0.244054 0.760914 0.499694
12 1 0.388213 0.782088 0.500668
31 1 0.50769 0.698655 0.500128
63 1 0.600368 0.726268 0.499458
26 1 0.777595 0.700158 0.499178
52 1 0.870798 0.771283 0.499511
6 1 0.991948 0.744006 0.500845
8 1 0.0851423 0.893047 0.499741
78 1 0.313459 0.863003 0.499795
7 1 0.550389 0.829229 0.500076
40 1 0.688942 0.779949 0.500242
24 1 0.78998 0.846285 0.500508
45 1 0.141576 0.990244 0.499843
67 1 0.186613 0.8915 0.499641
48 1 0.238195 0.832855 0.500793
61 1 0.468239 0.894024 0.500231
39 1 0.381248 0.920336 0.500365
28 1 0.497885 0.975278 0.499603
4 1 0.668693 0.92383 0.499862
9 1 0.802309 0.993261 0.499278
72 1 0.915979 0.0144632 0.49984
18 1 0.929452 0.898142 0.4999
ITEM: TIMESTEP
500
ITEM: NUMBER OF ATOMS
70
ITEM: BOX BOUNDS pp pp pp
-4.8013743200182297e+00 4.8013743200182297e+00
-4.8036545654114660e+00 4.8036545654114660e+00
-1.0000000000000001e-01 1.0000000000000001e-01
ITEM: ATOMS id type xs ys zs
34 1 0.152532 0.109535 0.500568
11 1 0.261606 0.955082 0.501198
58 1 0.39328 0.0233546 0.502071
51 1 0.684971 0.0527254 0.499989
54 1 0.885834 0.0852659 0.499737
16 1 0.0243013 0.0302965 0.499823
47 1 0.0285385 0.15613 0.498556
73 1 0.228262 0.0633879 0.502403
43 1 0.220288 0.192284 0.499917
1 1 0.325935 0.125549 0.498883
27 1 0.470791 0.105595 0.500246
21 1 0.778749 0.127091 0.498128
57 1 0.892632 0.190808 0.502178
69 1 0.942457 0.137178 0.501239
3 1 0.109671 0.247015 0.502627
23 1 0.281447 0.285742 0.501451
13 1 0.423286 0.238655 0.499801
38 1 0.553371 0.295488 0.499103
17 1 0.779184 0.269262 0.498848
49 1 0.982472 0.234002 0.499602
32 1 0.903274 0.306273 0.500691
10 1 0.0932906 0.391823 0.500776
20 1 0.232827 0.448855 0.499968
15 1 0.381662 0.390806 0.501092
30 1 0.539678 0.428 0.499342
5 1 0.671518 0.375405 0.499008
50 1 0.791632 0.397773 0.498653
64 1 0.873346 0.396534 0.499147
36 1 0.963785 0.417049 0.498504
62 1 0.130486 0.504158 0.500908
66 1 0.271126 0.566746 0.500956
22 1 0.361621 0.554257 0.501242
76 1 0.429871 0.4821 0.500659
55 1 0.613824 0.499976 0.498963
29 1 0.728933 0.498395 0.499732
35 1 0.846779 0.489592 0.499806
71 1 0.123589 0.667111 0.4979
25 1 0.174328 0.587008 0.500493
33 1 0.303443 0.664218 0.500524
42 1 0.419042 0.647786 0.500939
19 1 0.5043 0.559427 0.498523
14 1 0.655102 0.628899 0.500222
53 1 0.789087 0.590532 0.500885
80 1 0.895701 0.697549 0.50145
37 1 0.892517 0.599826 0.498838
56 1 0.100757 0.72266 0.501097
59 1 0.190174 0.697951 0.500374
60 1 0.153472 0.782194 0.499
44 1 0.244097 0.761257 0.500158
12 1 0.388608 0.782132 0.500462
31 1 0.507628 0.699395 0.499791
63 1 0.600761 0.72655 0.499074
26 1 0.777447 0.700334 0.499783
52 1 0.870546 0.771655 0.499273
6 1 0.991525 0.744116 0.499593
8 1 0.0861023 0.893032 0.498974
78 1 0.314123 0.863793 0.498327
7 1 0.550752 0.829143 0.498766
40 1 0.689398 0.780392 0.501395
24 1 0.789881 0.846778 0.499015
45 1 0.141487 0.990906 0.500389
67 1 0.187276 0.890162 0.502546
48 1 0.239803 0.833202 0.500461
61 1 0.468479 0.894153 0.501842
39 1 0.381845 0.921135 0.501178
28 1 0.498686 0.975436 0.501137
4 1 0.668539 0.923968 0.499464
9 1 0.802008 0.993753 0.499793
72 1 0.915582 0.014743 0.499748
18 1 0.929608 0.898483 0.499543
ITEM: TIMESTEP
750
ITEM: NUMBER OF ATOMS
70
ITEM: BOX BOUNDS pp pp pp
-4.8001736258355239e+00 4.8001736258355239e+00
-4.8025248073178401e+00 4.8025248073178401e+00
-1.0000000000000001e-01 1.0000000000000001e-01
ITEM: ATOMS id type xs ys zs
34 1 0.153566 0.110169 0.501036
11 1 0.262893 0.954949 0.501919
58 1 0.392911 0.0227205 0.49932
51 1 0.685174 0.0525043 0.501458
54 1 0.886103 0.0859406 0.499366
16 1 0.024615 0.0309843 0.499838
47 1 0.0290119 0.156788 0.497342
73 1 0.228162 0.0634217 0.503682
43 1 0.220996 0.192843 0.500591
1 1 0.326017 0.125133 0.498946
27 1 0.47082 0.105017 0.498985
21 1 0.779019 0.126805 0.495698
57 1 0.893936 0.190512 0.503307
69 1 0.943557 0.136452 0.501083
3 1 0.110802 0.246807 0.503961
23 1 0.281037 0.286909 0.501078
13 1 0.423385 0.238142 0.501455
38 1 0.553086 0.295623 0.499521
17 1 0.779074 0.269594 0.498408
49 1 0.983035 0.234653 0.499382
32 1 0.903453 0.306134 0.501555
10 1 0.0931013 0.391239 0.502416
20 1 0.232888 0.448965 0.49884
15 1 0.382561 0.390769 0.501905
30 1 0.539803 0.428412 0.498251
5 1 0.671631 0.37622 0.499796
50 1 0.79173 0.397658 0.498481
64 1 0.873602 0.397127 0.499577
36 1 0.963579 0.418263 0.501569
62 1 0.130275 0.504058 0.499947
66 1 0.271122 0.566554 0.499905
22 1 0.361622 0.554564 0.502436
76 1 0.430618 0.482078 0.5008
55 1 0.614059 0.500631 0.50014
29 1 0.728979 0.498676 0.500466
35 1 0.847242 0.489535 0.501232
71 1 0.123741 0.66705 0.497636
25 1 0.173837 0.586748 0.500399
33 1 0.302887 0.664214 0.49895
42 1 0.418972 0.648675 0.501772
19 1 0.503922 0.560385 0.498705
14 1 0.655407 0.629459 0.501253
53 1 0.79026 0.590583 0.499958
80 1 0.897462 0.696288 0.503253
37 1 0.893914 0.598921 0.498581
56 1 0.100739 0.722465 0.501365
59 1 0.190236 0.698173 0.500921
60 1 0.153044 0.781912 0.496786
44 1 0.243974 0.761268 0.501181
12 1 0.389268 0.781967 0.499488
31 1 0.508818 0.69921 0.499452
63 1 0.601562 0.726966 0.498999
26 1 0.777739 0.700117 0.500246
52 1 0.870606 0.770207 0.498167
6 1 0.992264 0.744623 0.499456
8 1 0.0852005 0.893234 0.500294
78 1 0.313639 0.862218 0.498698
7 1 0.551117 0.828534 0.49848
40 1 0.690086 0.780804 0.500702
24 1 0.790609 0.846936 0.497555
45 1 0.142167 0.99045 0.501412
67 1 0.186762 0.892139 0.501832
48 1 0.238518 0.833232 0.500063
61 1 0.470106 0.894903 0.502922
39 1 0.382165 0.919794 0.50132
28 1 0.498686 0.976521 0.502648
4 1 0.669505 0.923716 0.499296
9 1 0.802203 0.993853 0.500043
72 1 0.916123 0.0155546 0.498091
18 1 0.929785 0.899302 0.500306
ITEM: TIMESTEP
1000
ITEM: NUMBER OF ATOMS
70
ITEM: BOX BOUNDS pp pp pp
-4.7989729316528180e+00 4.7989729316528180e+00
-4.8068104938117280e+00 4.8068104938117280e+00
-1.0000000000000001e-01 1.0000000000000001e-01
ITEM: ATOMS id type xs ys zs
34 1 0.153781 0.110322 0.500709
11 1 0.262159 0.954177 0.502199
58 1 0.392655 0.0229751 0.498997
51 1 0.686405 0.0531981 0.502082
54 1 0.887057 0.0848122 0.500498
16 1 0.0249936 0.030432 0.499181
47 1 0.0293227 0.156924 0.499182
73 1 0.228132 0.0628557 0.505206
43 1 0.221075 0.193441 0.499442
1 1 0.325285 0.125193 0.498344
27 1 0.470346 0.104997 0.498388
21 1 0.78034 0.12715 0.494256
57 1 0.89437 0.190068 0.501178
69 1 0.94385 0.136513 0.500286
3 1 0.110203 0.246992 0.502238
23 1 0.281303 0.286287 0.501108
13 1 0.422847 0.238128 0.500611
38 1 0.552209 0.296171 0.50056
17 1 0.779495 0.270233 0.497214
49 1 0.983336 0.23457 0.499298
32 1 0.903555 0.305772 0.500129
10 1 0.0934247 0.391287 0.501357
20 1 0.232625 0.448242 0.500952
15 1 0.381884 0.390707 0.502863
30 1 0.539216 0.428867 0.495793
5 1 0.671169 0.376841 0.499758
50 1 0.791806 0.398071 0.497924
64 1 0.873713 0.396272 0.501901
36 1 0.963869 0.417042 0.501561
62 1 0.130082 0.504724 0.499433
66 1 0.271641 0.56687 0.500952
22 1 0.362231 0.554837 0.502403
76 1 0.429733 0.481431 0.502775
55 1 0.61454 0.500283 0.500804
29 1 0.729902 0.49858 0.502118
35 1 0.848345 0.489636 0.499187
71 1 0.124404 0.666155 0.498159
25 1 0.174761 0.586606 0.500057
33 1 0.303328 0.66455 0.497537
42 1 0.419581 0.648396 0.50057
19 1 0.503721 0.559978 0.498412
14 1 0.655309 0.628844 0.500379
53 1 0.790061 0.590646 0.499532
80 1 0.8979 0.69727 0.504299
37 1 0.893349 0.59959 0.499803
56 1 0.101214 0.722031 0.501951
59 1 0.190547 0.698105 0.50212
60 1 0.153286 0.781898 0.495265
44 1 0.244266 0.7614 0.502333
12 1 0.389246 0.782491 0.499046
31 1 0.508771 0.698326 0.499779
63 1 0.601371 0.726197 0.499403
26 1 0.777365 0.700032 0.501358
52 1 0.871045 0.77094 0.498845
6 1 0.992418 0.744146 0.500814
8 1 0.0856898 0.893236 0.500903
78 1 0.314068 0.862594 0.498924
7 1 0.550815 0.828122 0.498684
40 1 0.689726 0.78066 0.499823
24 1 0.790987 0.847263 0.498128
45 1 0.142289 0.990102 0.501098
67 1 0.186981 0.891543 0.502274
48 1 0.238918 0.833317 0.499969
61 1 0.469784 0.894197 0.502373
39 1 0.382482 0.920371 0.502238
28 1 0.498155 0.975812 0.501886
4 1 0.669356 0.924102 0.49937
9 1 0.802858 0.993823 0.500732
72 1 0.916594 0.0149594 0.498009
18 1 0.929986 0.898814 0.500094
ITEM: TIMESTEP
1250
ITEM: NUMBER OF ATOMS
70
ITEM: BOX BOUNDS pp pp pp
-4.7977722374701122e+00 4.7977722374701122e+00
-4.8082827893781559e+00 4.8082827893781559e+00
-1.0000000000000001e-01 1.0000000000000001e-01
ITEM: ATOMS id type xs ys zs
34 1 0.153126 0.109887 0.501646
11 1 0.262781 0.955345 0.503799
58 1 0.392733 0.0226207 0.49838
51 1 0.685208 0.0527246 0.501367
54 1 0.886532 0.0850384 0.499774
16 1 0.024319 0.0299638 0.498795
47 1 0.0292699 0.156079 0.500084
73 1 0.227069 0.0624902 0.505144
43 1 0.220601 0.192963 0.501339
1 1 0.324776 0.123693 0.498215
27 1 0.47106 0.104415 0.498799
21 1 0.779937 0.127076 0.494353
57 1 0.894308 0.189874 0.50161
69 1 0.94363 0.136167 0.501809
3 1 0.109159 0.246707 0.502398
23 1 0.281134 0.286035 0.500644
13 1 0.422307 0.237548 0.503185
38 1 0.552352 0.295292 0.499534
17 1 0.778427 0.269714 0.496509
49 1 0.983689 0.234268 0.498527
32 1 0.903134 0.305401 0.498182
10 1 0.0936759 0.391559 0.501305
20 1 0.233512 0.450165 0.503309
15 1 0.38229 0.390448 0.505695
30 1 0.539329 0.428803 0.494214
5 1 0.670919 0.375724 0.499233
50 1 0.791137 0.398263 0.497761
64 1 0.872985 0.39613 0.501865
36 1 0.963447 0.41677 0.501033
62 1 0.130221 0.504823 0.49862
66 1 0.271271 0.567079 0.501451
22 1 0.3615 0.554721 0.503463
76 1 0.430087 0.481712 0.503843
55 1 0.613978 0.50096 0.499862
29 1 0.728797 0.498899 0.501213
35 1 0.846483 0.489325 0.501344
71 1 0.124963 0.666624 0.498537
25 1 0.174811 0.587199 0.499197
33 1 0.303594 0.664443 0.498734
42 1 0.419205 0.647957 0.501333
19 1 0.503206 0.559967 0.49724
14 1 0.655221 0.628808 0.500538
53 1 0.789778 0.590125 0.499679
80 1 0.89722 0.696255 0.504577
37 1 0.89349 0.598882 0.500397
56 1 0.101677 0.72244 0.499292
59 1 0.190818 0.698512 0.502149
60 1 0.153627 0.782131 0.496962
44 1 0.244463 0.761674 0.501578
12 1 0.38885 0.782017 0.497496
31 1 0.507899 0.698927 0.499359
63 1 0.600823 0.726334 0.499864
26 1 0.777103 0.69974 0.500588
52 1 0.870967 0.769914 0.500125
6 1 0.992508 0.743081 0.500516
8 1 0.0857264 0.893151 0.501431
78 1 0.314396 0.863069 0.497854
7 1 0.551288 0.828776 0.499801
40 1 0.689209 0.780522 0.499424
24 1 0.790462 0.846535 0.499344
45 1 0.142038 0.990203 0.502701
67 1 0.187245 0.891359 0.503095
48 1 0.239499 0.833522 0.500972
61 1 0.47072 0.895039 0.502572
39 1 0.38291 0.919977 0.502016
28 1 0.498197 0.977307 0.502694
4 1 0.669161 0.924353 0.499242
9 1 0.802132 0.993309 0.499713
72 1 0.91579 0.0143851 0.497995
18 1 0.930363 0.898352 0.498937
ITEM: TIMESTEP
1500
ITEM: NUMBER OF ATOMS
70
ITEM: BOX BOUNDS pp pp pp
-4.7965715432874063e+00 4.7965715432874063e+00
-4.8080631354299479e+00 4.8080631354299479e+00
-1.0000000000000001e-01 1.0000000000000001e-01
ITEM: ATOMS id type xs ys zs
34 1 0.153615 0.110526 0.501281
11 1 0.262634 0.955295 0.505008
58 1 0.392118 0.0231907 0.499027
51 1 0.686391 0.0526349 0.500401
54 1 0.8868 0.0845523 0.501864
16 1 0.0247504 0.0307144 0.500272
47 1 0.0297932 0.156981 0.500871
73 1 0.227118 0.0626667 0.507928
43 1 0.220914 0.193233 0.500374
1 1 0.32486 0.124684 0.498902
27 1 0.469977 0.104453 0.499397
21 1 0.779916 0.126626 0.495445
57 1 0.894432 0.189323 0.501604
69 1 0.944242 0.135542 0.501551
3 1 0.10998 0.247785 0.504363
23 1 0.281104 0.286916 0.500308
13 1 0.422 0.237454 0.503577
38 1 0.551717 0.295724 0.501691
17 1 0.778364 0.26908 0.495948
49 1 0.983322 0.234351 0.50033
32 1 0.902777 0.304984 0.497667
10 1 0.093542 0.392282 0.501818
20 1 0.233129 0.449958 0.503257
15 1 0.382415 0.390702 0.504523
30 1 0.539078 0.42833 0.491879
5 1 0.670817 0.375571 0.499182
50 1 0.790821 0.397644 0.497103
64 1 0.872963 0.396254 0.501195
36 1 0.963184 0.415831 0.501179
62 1 0.129798 0.504986 0.497643
66 1 0.271209 0.566599 0.502013
22 1 0.361532 0.554227 0.503825
76 1 0.430209 0.481466 0.501144
55 1 0.613856 0.500059 0.499979
29 1 0.728351 0.498457 0.501527
35 1 0.846587 0.489035 0.502308
71 1 0.123451 0.667441 0.496845
25 1 0.174041 0.587292 0.500723
33 1 0.303371 0.664352 0.497534
42 1 0.419622 0.647227 0.50328
19 1 0.50431 0.55985 0.496196
14 1 0.654637 0.628974 0.500131
53 1 0.788965 0.589776 0.49944
80 1 0.897002 0.696733 0.504745
37 1 0.892269 0.599203 0.500042
56 1 0.10133 0.723307 0.497722
59 1 0.190125 0.698641 0.502875
60 1 0.153464 0.782618 0.496083
44 1 0.244265 0.761605 0.504313
12 1 0.388392 0.782171 0.498867
31 1 0.508578 0.698499 0.50029
63 1 0.601127 0.726704 0.500564
26 1 0.776912 0.699711 0.499959
52 1 0.870214 0.770267 0.499907
6 1 0.992105 0.743728 0.501701
8 1 0.0857623 0.893832 0.50147
78 1 0.314496 0.863366 0.499398
7 1 0.550409 0.828947 0.499322
40 1 0.689288 0.780325 0.499875
24 1 0.790356 0.846451 0.498256
45 1 0.142028 0.991078 0.50421
67 1 0.187226 0.892038 0.502211
48 1 0.23907 0.833557 0.500526
61 1 0.470492 0.896807 0.503953
39 1 0.382731 0.920479 0.499803
28 1 0.498567 0.978817 0.501445
4 1 0.668768 0.924002 0.499214
9 1 0.802661 0.993212 0.499932
72 1 0.916563 0.014376 0.499941
18 1 0.930142 0.898371 0.500098
ITEM: TIMESTEP
1750
ITEM: NUMBER OF ATOMS
70
ITEM: BOX BOUNDS pp pp pp
-4.7953708491047005e+00 4.7953708491047005e+00
-4.8089023513909650e+00 4.8089023513909650e+00
-1.0000000000000001e-01 1.0000000000000001e-01
ITEM: ATOMS id type xs ys zs
34 1 0.153993 0.110695 0.502377
11 1 0.262365 0.954531 0.505914
58 1 0.391835 0.0227598 0.49985
51 1 0.686151 0.0518681 0.500595
54 1 0.886348 0.0848341 0.503493
16 1 0.024443 0.0312789 0.498713
47 1 0.0295288 0.157818 0.500281
73 1 0.227587 0.0625415 0.508739
43 1 0.220517 0.193821 0.499218
1 1 0.324906 0.124974 0.498298
27 1 0.469845 0.104503 0.498415
21 1 0.779354 0.126358 0.495035
57 1 0.896628 0.190106 0.501468
69 1 0.944555 0.134995 0.50055
3 1 0.110461 0.247707 0.506338
23 1 0.28148 0.286192 0.498256
13 1 0.422743 0.23768 0.503479
38 1 0.552299 0.295579 0.502158
17 1 0.778278 0.269098 0.495994
49 1 0.984797 0.236838 0.500342
32 1 0.902507 0.305432 0.496662
10 1 0.0926104 0.392173 0.499931
20 1 0.232179 0.449372 0.504109
15 1 0.382104 0.390137 0.503882
30 1 0.538953 0.428407 0.490801
5 1 0.670542 0.375143 0.499146
50 1 0.790406 0.397394 0.495783
64 1 0.872245 0.395592 0.501961
36 1 0.962603 0.416715 0.502583
62 1 0.129702 0.50566 0.497866
66 1 0.270744 0.566472 0.500286
22 1 0.36157 0.554933 0.502766
76 1 0.4291 0.481846 0.500149
55 1 0.613495 0.500377 0.500835
29 1 0.727797 0.49812 0.502196
35 1 0.845959 0.488643 0.502887
71 1 0.124149 0.66777 0.496972
25 1 0.17406 0.587978 0.500394
33 1 0.302803 0.663961 0.499804
42 1 0.419064 0.647947 0.502943
19 1 0.50346 0.559898 0.495573
14 1 0.654264 0.628765 0.500131
53 1 0.788267 0.5898 0.499076
80 1 0.896696 0.69611 0.503434
37 1 0.891905 0.59845 0.498237
56 1 0.101717 0.723687 0.497716
59 1 0.190329 0.699598 0.501901
60 1 0.153458 0.783211 0.496144
44 1 0.244957 0.761786 0.502188
12 1 0.389216 0.78188 0.499451
31 1 0.508567 0.698618 0.499992
63 1 0.601281 0.726991 0.501169
26 1 0.776856 0.699323 0.500148
52 1 0.870426 0.769866 0.499446
6 1 0.992007 0.743473 0.501939
8 1 0.0860539 0.894141 0.500966
78 1 0.314909 0.86322 0.500486
7 1 0.550983 0.829465 0.499375
40 1 0.68967 0.77953 0.499943
24 1 0.790982 0.846367 0.498188
45 1 0.141926 0.991885 0.504015
67 1 0.187024 0.891814 0.500867
48 1 0.239271 0.833613 0.499297
61 1 0.470527 0.895628 0.502748
39 1 0.382737 0.920004 0.500736
28 1 0.497673 0.977504 0.501689
4 1 0.669524 0.923449 0.499026
9 1 0.802873 0.993274 0.498725
72 1 0.916347 0.014716 0.500922
18 1 0.930532 0.898987 0.499506
ITEM: TIMESTEP
2000
ITEM: NUMBER OF ATOMS
70
ITEM: BOX BOUNDS pp pp pp
-4.7941701549219946e+00 4.7941701549219946e+00
-4.8103801819950274e+00 4.8103801819950274e+00
-1.0000000000000001e-01 1.0000000000000001e-01
ITEM: ATOMS id type xs ys zs
34 1 0.153167 0.110788 0.50078
11 1 0.262798 0.955074 0.505191
58 1 0.392746 0.0230806 0.498435
51 1 0.685879 0.0516607 0.500798
54 1 0.886727 0.0846637 0.502314
16 1 0.0248733 0.0310927 0.497686
47 1 0.0294154 0.157418 0.498703
73 1 0.226999 0.0627234 0.50959
43 1 0.220215 0.193817 0.497531
1 1 0.32471 0.123939 0.498392
27 1 0.470336 0.105031 0.497556
21 1 0.779406 0.126615 0.494913
57 1 0.896346 0.190201 0.502516
69 1 0.944217 0.135216 0.499174
3 1 0.109773 0.248039 0.50594
23 1 0.280804 0.286482 0.499022
13 1 0.421934 0.237334 0.501971
38 1 0.551263 0.295718 0.503035
17 1 0.779202 0.269004 0.495198
49 1 0.984623 0.23606 0.500166
32 1 0.903529 0.305703 0.494497
10 1 0.0922494 0.392204 0.497598
20 1 0.232653 0.449663 0.503795
15 1 0.381914 0.389983 0.504012
30 1 0.538913 0.428364 0.49104
5 1 0.670606 0.375034 0.499945
50 1 0.790895 0.396999 0.494035
64 1 0.873078 0.395843 0.501348
36 1 0.96279 0.418815 0.503009
62 1 0.129804 0.505243 0.497522
66 1 0.270551 0.567317 0.501242
22 1 0.360782 0.553813 0.501165
76 1 0.429258 0.481644 0.500251
55 1 0.613495 0.499769 0.501805
29 1 0.728435 0.498058 0.502352
35 1 0.84658 0.488412 0.5034
71 1 0.122534 0.667742 0.499219
25 1 0.173487 0.588076 0.500764
33 1 0.303159 0.664605 0.500055
42 1 0.418715 0.647318 0.503238
19 1 0.502989 0.559846 0.495758
14 1 0.654667 0.628496 0.50082
53 1 0.789105 0.58954 0.499965
80 1 0.896354 0.695762 0.503804
37 1 0.892486 0.59854 0.498227
56 1 0.100618 0.72367 0.50033
59 1 0.189388 0.698264 0.501258
60 1 0.153444 0.78247 0.496005
44 1 0.243892 0.761184 0.501432
12 1 0.38924 0.782831 0.497982
31 1 0.508186 0.698502 0.498478
63 1 0.600826 0.726528 0.502358
26 1 0.776257 0.699569 0.499203
52 1 0.870178 0.769438 0.501978
6 1 0.991491 0.742681 0.499749
8 1 0.0865775 0.89412 0.502637
78 1 0.314352 0.86322 0.500725
7 1 0.550435 0.828379 0.500013
40 1 0.689007 0.780145 0.499202
24 1 0.790171 0.845615 0.498221
45 1 0.14251 0.99198 0.503098
67 1 0.187929 0.891319 0.50101
48 1 0.239686 0.832937 0.497818
61 1 0.469935 0.895281 0.503381
39 1 0.382482 0.920337 0.49956
28 1 0.498682 0.976914 0.500411
4 1 0.669121 0.923555 0.498364
9 1 0.803001 0.992451 0.499873
72 1 0.916738 0.0144078 0.50282
18 1 0.930747 0.898418 0.499062
ITEM: TIMESTEP
2250
ITEM: NUMBER OF ATOMS
70
ITEM: BOX BOUNDS pp pp pp
-4.7929694607392888e+00 4.7929694607392888e+00
-4.8114546098654154e+00 4.8114546098654154e+00
-1.0000000000000001e-01 1.0000000000000001e-01
ITEM: ATOMS id type xs ys zs
34 1 0.152845 0.110792 0.499668
11 1 0.262213 0.954431 0.506919
58 1 0.393203 0.0227065 0.497301
51 1 0.685689 0.0512279 0.501045
54 1 0.886173 0.0849411 0.502395
16 1 0.0240667 0.0308118 0.496056
47 1 0.0289035 0.157228 0.498722
73 1 0.226808 0.062315 0.507171
43 1 0.220348 0.193021 0.498208
1 1 0.32468 0.124329 0.497212
27 1 0.471043 0.10511 0.497102
21 1 0.778548 0.127064 0.495457
57 1 0.895832 0.190224 0.501871
69 1 0.943847 0.135377 0.49891
3 1 0.110095 0.247056 0.506163
23 1 0.279848 0.286749 0.500485
13 1 0.421589 0.237682 0.500318
38 1 0.551064 0.294989 0.503959
17 1 0.778706 0.268962 0.495203
49 1 0.983975 0.236 0.499927
32 1 0.903247 0.305352 0.495873
10 1 0.0940678 0.391558 0.496393
20 1 0.233235 0.44995 0.503046
15 1 0.381834 0.390308 0.502871
30 1 0.538832 0.427825 0.49205
5 1 0.670505 0.374601 0.500379
50 1 0.790826 0.397056 0.494016
64 1 0.873178 0.395768 0.501067
36 1 0.963933 0.41648 0.503762
62 1 0.129932 0.505135 0.494913
66 1 0.270189 0.567275 0.502924
22 1 0.360567 0.55397 0.503196
76 1 0.429487 0.481362 0.50125
55 1 0.613406 0.499686 0.500743
29 1 0.728472 0.49758 0.502352
35 1 0.847018 0.488485 0.504041
71 1 0.123005 0.667265 0.49796
25 1 0.173769 0.58767 0.502362
33 1 0.302975 0.664755 0.499324
42 1 0.41818 0.646935 0.503057
19 1 0.50341 0.559465 0.496363
14 1 0.654163 0.628389 0.499403
53 1 0.78932 0.589493 0.501455
80 1 0.895536 0.696591 0.505146
37 1 0.892934 0.598594 0.498413
56 1 0.100481 0.723041 0.500441
59 1 0.189367 0.698872 0.500742
60 1 0.152847 0.782598 0.495953
44 1 0.243991 0.76085 0.501955
12 1 0.389257 0.782662 0.498805
31 1 0.507443 0.698481 0.500394
63 1 0.600186 0.725642 0.503169
26 1 0.776885 0.698995 0.50033
52 1 0.86978 0.770511 0.500841
6 1 0.991142 0.74319 0.501481
8 1 0.0861203 0.894639 0.499338
78 1 0.314241 0.863221 0.501815
7 1 0.550074 0.828226 0.501449
40 1 0.688651 0.779507 0.497779
24 1 0.789324 0.845813 0.500189
45 1 0.142312 0.992442 0.503832
67 1 0.187271 0.890919 0.500621
48 1 0.238963 0.832706 0.498602
61 1 0.46999 0.895054 0.504931
39 1 0.382566 0.920368 0.501435
28 1 0.498727 0.976865 0.501859
4 1 0.668252 0.922849 0.50006
9 1 0.802508 0.99284 0.498874
72 1 0.915827 0.0145991 0.501806
18 1 0.929853 0.898253 0.498551
ITEM: TIMESTEP
2500
ITEM: NUMBER OF ATOMS
70
ITEM: BOX BOUNDS pp pp pp
-4.7917687665565829e+00 4.7917687665565829e+00
-4.8115787080518997e+00 4.8115787080518997e+00
-1.0000000000000001e-01 1.0000000000000001e-01
ITEM: ATOMS id type xs ys zs
34 1 0.152748 0.109572 0.498896
11 1 0.261347 0.953948 0.50735
58 1 0.39308 0.022895 0.497826
51 1 0.684925 0.0513505 0.502161
54 1 0.884136 0.0845406 0.501265
16 1 0.0235656 0.0315838 0.49498
47 1 0.027853 0.157598 0.498346
73 1 0.226816 0.0621265 0.507645
43 1 0.220372 0.19241 0.497673
1 1 0.325029 0.123937 0.498272
27 1 0.470857 0.105177 0.497169
21 1 0.777441 0.126709 0.494903
57 1 0.896389 0.189902 0.502493
69 1 0.942872 0.134236 0.499852
3 1 0.110032 0.247175 0.506324
23 1 0.279898 0.286311 0.501229
13 1 0.421049 0.237761 0.499875
38 1 0.551462 0.295009 0.503659
17 1 0.777935 0.268629 0.495979
49 1 0.98372 0.23671 0.49893
32 1 0.902193 0.305736 0.493534
10 1 0.0932532 0.391739 0.495573
20 1 0.231843 0.44952 0.503579
15 1 0.381099 0.389876 0.504265
30 1 0.538936 0.42769 0.492661
5 1 0.670266 0.374955 0.499999
50 1 0.790648 0.396512 0.494139
64 1 0.873146 0.396262 0.49755
36 1 0.963332 0.417123 0.502537
62 1 0.129604 0.505448 0.494463
66 1 0.270982 0.566473 0.504151
22 1 0.361055 0.553722 0.502797
76 1 0.428834 0.481214 0.501154
55 1 0.612963 0.499709 0.501214
29 1 0.727698 0.49701 0.500345
35 1 0.84581 0.488476 0.503258
71 1 0.122578 0.667494 0.497787
25 1 0.173686 0.588065 0.501491
33 1 0.303181 0.66428 0.498892
42 1 0.418998 0.646968 0.499558
19 1 0.503064 0.558912 0.494652
14 1 0.653754 0.627921 0.498646
53 1 0.787626 0.588975 0.502183
80 1 0.89691 0.695606 0.505892
37 1 0.891026 0.598562 0.497625
56 1 0.100393 0.723184 0.499641
59 1 0.189658 0.698522 0.502258
60 1 0.152628 0.782877 0.495582
44 1 0.243905 0.760992 0.498973
12 1 0.388806 0.782397 0.499245
31 1 0.508308 0.698032 0.499549
63 1 0.601121 0.726091 0.503393
26 1 0.776728 0.698008 0.500712
52 1 0.869181 0.768765 0.503834
6 1 0.991358 0.744632 0.502797
8 1 0.0856979 0.894695 0.49832
78 1 0.313685 0.862795 0.501732
7 1 0.549762 0.828229 0.500169
40 1 0.689206 0.779865 0.499212
24 1 0.790544 0.846374 0.500995
45 1 0.141218 0.992326 0.502652
67 1 0.186453 0.890992 0.500603
48 1 0.23886 0.832854 0.497914
61 1 0.468713 0.894451 0.504621
39 1 0.381433 0.920425 0.501212
28 1 0.497966 0.976016 0.502503
4 1 0.668549 0.922926 0.49944
9 1 0.801796 0.992355 0.498011
72 1 0.915081 0.0149255 0.501697
18 1 0.929975 0.899112 0.501052
ITEM: TIMESTEP
2750
ITEM: NUMBER OF ATOMS
70
ITEM: BOX BOUNDS pp pp pp
-4.7905680723738771e+00 4.7905680723738771e+00
-4.8137698260744042e+00 4.8137698260744042e+00
-1.0000000000000001e-01 1.0000000000000001e-01
ITEM: ATOMS id type xs ys zs
34 1 0.152436 0.110852 0.498782
11 1 0.26055 0.954525 0.507846
58 1 0.393095 0.0224655 0.497593
51 1 0.684124 0.0511082 0.504427
54 1 0.883824 0.0864974 0.500322
16 1 0.0239764 0.0322549 0.496154
47 1 0.0282095 0.158442 0.497326
73 1 0.226107 0.0623323 0.507342
43 1 0.220082 0.193762 0.497032
1 1 0.324024 0.124041 0.4987
27 1 0.470232 0.105459 0.496553
21 1 0.776645 0.127223 0.493484
57 1 0.895336 0.191076 0.501983
69 1 0.943052 0.13552 0.500947
3 1 0.109295 0.248161 0.506581
23 1 0.280397 0.287054 0.500592
13 1 0.421312 0.237448 0.500523
38 1 0.551106 0.294944 0.502995
17 1 0.777434 0.268695 0.49556
49 1 0.983556 0.236837 0.49693
32 1 0.902057 0.30633 0.492812
10 1 0.0933755 0.391849 0.496109
20 1 0.232517 0.449934 0.504682
15 1 0.381406 0.390333 0.503628
30 1 0.538806 0.428189 0.491758
5 1 0.669719 0.37442 0.498654
50 1 0.790323 0.396636 0.495193
64 1 0.87226 0.396492 0.496646
36 1 0.962919 0.417745 0.502125
62 1 0.129043 0.504586 0.493586
66 1 0.270251 0.566947 0.504682
22 1 0.360457 0.554021 0.50292
76 1 0.42901 0.482024 0.501831
55 1 0.612915 0.499853 0.501271
29 1 0.727581 0.496585 0.500724
35 1 0.845278 0.488867 0.504258
71 1 0.122384 0.666719 0.500004
25 1 0.172932 0.587525 0.500531
33 1 0.302622 0.664363 0.497611
42 1 0.418526 0.64693 0.500403
19 1 0.50312 0.559909 0.495093
14 1 0.654667 0.627874 0.498567
53 1 0.786632 0.58898 0.503935
80 1 0.896717 0.696124 0.507724
37 1 0.890375 0.598642 0.498912
56 1 0.100356 0.722571 0.500805
59 1 0.189291 0.697896 0.502911
60 1 0.152751 0.781819 0.497654
44 1 0.24345 0.760773 0.499081
12 1 0.388385 0.782283 0.498163
31 1 0.507476 0.698267 0.500826
63 1 0.600826 0.725818 0.502752
26 1 0.776151 0.699059 0.500695
52 1 0.869512 0.769552 0.504257
6 1 0.991482 0.745207 0.503371
8 1 0.0847998 0.894017 0.497536
78 1 0.313516 0.863112 0.500176
7 1 0.549843 0.828603 0.499938
40 1 0.688802 0.780368 0.499199
24 1 0.790219 0.846639 0.503112
45 1 0.1408 0.990601 0.503185
67 1 0.186159 0.89069 0.500474
48 1 0.238394 0.832588 0.496773
61 1 0.468716 0.894349 0.505094
39 1 0.3816 0.920476 0.501178
28 1 0.498139 0.975687 0.502331
4 1 0.668728 0.923002 0.500143
9 1 0.801527 0.993431 0.498497
72 1 0.915424 0.0166906 0.501528
18 1 0.929336 0.900543 0.498746
ITEM: TIMESTEP
3000
ITEM: NUMBER OF ATOMS
70
ITEM: BOX BOUNDS pp pp pp
-4.7893673781911712e+00 4.7893673781911712e+00
-4.8174572297913159e+00 4.8174572297913159e+00
-1.0000000000000001e-01 1.0000000000000001e-01
ITEM: ATOMS id type xs ys zs
34 1 0.153703 0.111192 0.500151
11 1 0.26139 0.954164 0.50884
58 1 0.393028 0.0231729 0.498323
51 1 0.683989 0.0510105 0.503133
54 1 0.88312 0.0856527 0.500716
16 1 0.0237628 0.0315525 0.49714
47 1 0.0274985 0.157308 0.498203
73 1 0.226892 0.0621882 0.505533
43 1 0.22041 0.194481 0.495769
1 1 0.324197 0.12435 0.497269
27 1 0.470131 0.105224 0.496471
21 1 0.776026 0.126672 0.493414
57 1 0.895872 0.190439 0.502135
69 1 0.942553 0.134207 0.501877
3 1 0.109113 0.24731 0.506021
23 1 0.279631 0.287953 0.501399
13 1 0.420499 0.237466 0.500067
38 1 0.550364 0.29471 0.503544
17 1 0.778366 0.268531 0.495708
49 1 0.983973 0.236764 0.496862
32 1 0.902598 0.305765 0.492036
10 1 0.0937496 0.392122 0.497597
20 1 0.232723 0.449863 0.505409
15 1 0.382789 0.390377 0.504262
30 1 0.538691 0.427372 0.494282
5 1 0.669985 0.373599 0.499928
50 1 0.790491 0.396467 0.494123
64 1 0.872763 0.395854 0.49452
36 1 0.963478 0.416241 0.50294
62 1 0.129025 0.505066 0.491935
66 1 0.269988 0.56663 0.504668
22 1 0.360746 0.553543 0.502715
76 1 0.429292 0.481812 0.500997
55 1 0.61292 0.499249 0.501829
29 1 0.727257 0.496243 0.501422
35 1 0.845884 0.488272 0.504222
71 1 0.12356 0.666671 0.500537
25 1 0.173708 0.587463 0.500624
33 1 0.303213 0.664173 0.498997
42 1 0.418349 0.646802 0.499654
19 1 0.50284 0.559125 0.496171
14 1 0.654581 0.627794 0.499362
53 1 0.786604 0.588534 0.50406
80 1 0.898653 0.696723 0.508874
37 1 0.889057 0.599047 0.498534
56 1 0.101008 0.722626 0.500856
59 1 0.190112 0.698059 0.503022
60 1 0.153303 0.781965 0.49717
44 1 0.244612 0.76086 0.498469
12 1 0.389119 0.782372 0.497991
31 1 0.507671 0.698007 0.501236
63 1 0.600805 0.725207 0.502889
26 1 0.776806 0.698441 0.501697
52 1 0.869777 0.769638 0.503309
6 1 0.992233 0.746302 0.501269
8 1 0.0855311 0.893459 0.497635
78 1 0.313884 0.862943 0.500899
7 1 0.550228 0.827745 0.50028
40 1 0.689134 0.77884 0.498757
24 1 0.790239 0.846251 0.504335
45 1 0.141039 0.991624 0.504518
67 1 0.186221 0.890471 0.500505
48 1 0.23918 0.832781 0.496278
61 1 0.469328 0.894183 0.504635
39 1 0.382157 0.920591 0.500177
28 1 0.498199 0.9754 0.499713
4 1 0.667832 0.922466 0.50001
9 1 0.800989 0.992528 0.498732
72 1 0.914933 0.0161127 0.500817
18 1 0.929211 0.900174 0.495864
ITEM: TIMESTEP
3250
ITEM: NUMBER OF ATOMS
70
ITEM: BOX BOUNDS pp pp pp
-4.7881666840084653e+00 4.7881666840084653e+00
-4.8150129694620265e+00 4.8150129694620265e+00
-1.0000000000000001e-01 1.0000000000000001e-01
ITEM: ATOMS id type xs ys zs
34 1 0.154167 0.110647 0.499943
11 1 0.261612 0.954116 0.508912
58 1 0.392777 0.0224081 0.498701
51 1 0.684516 0.0503345 0.501665
54 1 0.883807 0.0856152 0.50024
16 1 0.0241276 0.0314738 0.494014