LAMMPS (23 Jun 2022 - Update 4)
  using 1 OpenMP thread(s) per MPI task
# Compute elastic constant tensor for a crystal
#
# Written by Aidan Thompson (Sandia, athomps@sandia.gov)
#
#  This script uses the following three include files.
#
#   init.mod      (must be modified for different crystal structures)
# 	       	  Define units, deformation parameters and initial
#		  configuration of the atoms and simulation cell.
#
#
#   potential.mod    (must be modified for different pair styles)
# 		     Define pair style and other attributes
#		     not stored in restart file
#
#
#   displace.mod    (displace.mod should not need to be modified)
# 		    Perform positive and negative box displacements
# 		    in direction ${dir} and size ${up}.
# 		    It uses the resultant changes
#		    in stress to compute one
# 		    row of the elastic stiffness tensor
#
#		    Inputs variables:
#		    	   dir = the Voigt deformation component
#		    		    (1,2,3,4,5,6)
#		    Global constants:
#       	    	   up = the deformation magnitude (strain units)
#       		   cfac = conversion from LAMMPS pressure units to
#               	   output units for elastic constants
#
#
#  To run this on a different system, it should only be necessary to
#  modify the files init.mod and potential.mod. In order to calculate
#  the elastic constants correctly, care must be taken to specify
#  the correct units in init.mod (units, cfac and cunits). It is also
#  important to verify that the minimization of energy w.r.t atom
#  positions in the deformed cell is fully converged.
#  One indication of this is that the elastic constants are insensitive
#  to the choice of the variable ${up} in init.mod. Another is to check
#  the final max and two-norm forces reported in the log file. If you know
#  that minimization is not required, you can set maxiter = 0.0 in
#  init.mod.
#



variable dt equal 0.01
variable strain equal 0.05
variable srate equal 1e-4
variable M equal 1000 # averaging time for properties
variable strainsteps equal ${strain}/${dt}/${srate}
variable strainsteps equal 0.05/${dt}/${srate}
variable strainsteps equal 0.05/0.01/${srate}
variable strainsteps equal 0.05/0.01/0.0001


dimension 2
include init.mod
# NOTE: This script can be modified for different atomic structures,
# units, etc. See in.elastic for more info.
#

# Define the finite deformation size. Try several values of this
# variable to verify that results do not depend on it.
variable up equal 1.0e-1

# Define the amount of random jiggle for atoms
# This prevents atoms from staying on saddle points
variable atomjiggle equal 1.0e-6

# Uncomment one of these blocks, depending on what units
# you are using in LAMMPS and for output

# metal units, elastic constants in eV/A^3
#units		metal
#variable cfac equal 6.2414e-7
#variable cunits string eV/A^3

# Choose potential
# metal units, elastic constants in GPa
units		metal
atom_style	full
#pair_style      lj/cut 1.0
#pair_style      yukawa 1.0 2.0
#pair_modify     mix arithmetic
bond_style      harmonic
angle_style     harmonic
dihedral_style  zero
special_bonds   amber
variable cfac equal 1.0e-4
variable cunits string GPa
boundary	p p p

# Need to set mass to something, just to satisfy LAMMPS
#mass 1 1.0e-20
read_data network.lmp
Reading data file ...
  orthogonal box = (-4.802777 -4.802777 -0.1) to (4.802777 4.802777 0.1)
  1 by 1 by 1 MPI processor grid
WARNING: Atom style in data file differs from currently defined atom style (src/read_data.cpp:538)
  reading atoms ...
  70 atoms
WARNING: Bond style in data file differs from currently defined bond style (src/read_data.cpp:630)
  scanning bonds ...
  6 = max bonds/atom
  reading bonds ...
  163 bonds
Finding 1-2 1-3 1-4 neighbors ...
  special bond factors lj:    0        0        0.5     
  special bond factors coul:  0        0        0.8333333333333334
     9 = max # of 1-2 neighbors
    52 = max # of 1-3 neighbors
   326 = max # of 1-4 neighbors
    33 = max # of special neighbors
  special bonds CPU = 0.000 seconds
  read_data CPU = 0.004 seconds

# real units, elastic constants in GPa
#units		real
#variable cfac equal 1.01325e-4
#variable cunits string GPa

# Define minimization parameters
variable etol equal 0.0
variable ftol equal 5.0e-10
variable maxiter equal 100000
variable maxeval equal 20000
variable dmax equal 1.0e-2


include potential.mod
# NOTE: This script can be modified for different pair styles
# See in.elastic for more info.

# Setup neighbor style
neighbor 3.0 nsq
neigh_modify once no every 1 delay 0 check yes
comm_modify cutoff 2.0

# Setup minimization style
min_style	     cg
min_modify	     dmax ${dmax} line quadratic
min_modify	     dmax 0.01 line quadratic

timestep	0.001


# Setup output
thermo		500
thermo_style custom step temp pe ebond eangle edihed press pxx pyy pzz pxy pxz pyz lx ly lz vol
thermo_modify norm no


#change_box all triclinic
comm_modify mode single cutoff 10.0 vel yes
atom_modify sort 0 0



# Compute initial state

#dump rela all atom 1 traj_relax.lmpstrj
fix 3 all box/relax x 0 y 0 # xy 0  #MS comment: relax if the network is periodic
minimize ${etol} ${ftol} ${maxiter} ${maxeval}
minimize 0 ${ftol} ${maxiter} ${maxeval}
minimize 0 5e-10 ${maxiter} ${maxeval}
minimize 0 5e-10 100000 ${maxeval}
minimize 0 5e-10 100000 20000
Neighbor list info ...
  update every 1 steps, delay 0 steps, check yes
  max neighbors/atom: 2000, page size: 100000
  master list distance cutoff = 0
  ghost atom cutoff = 10
  0 neighbor lists, perpetual/occasional/extra = 0 0 0
WARNING: Inconsistent image flags (src/domain.cpp:819)
Per MPI rank memory allocation (min/avg/max) = 9.162 | 9.162 | 9.162 Mbytes
   Step          Temp          PotEng         E_bond        E_angle        E_dihed         Press           Pxx            Pyy            Pzz            Pxy            Pxz            Pyz             Lx             Ly             Lz           Volume    
         0   0              4.1920713e-11  4.1920713e-11  0              0             -0.23827754    -0.13977675    -0.33677833     0             -0.0089361222   0              0              9.605554       9.605554       0.2            92.266668    
       208   0              4.0141011e-13  4.0141011e-13  0              0             -8.6123355e-08 -1.726197e-07   3.7299164e-10  0              0.0026872616   0              0              9.6055535      9.6055536      0.2            92.266659    
Loop time of 0.0169285 on 1 procs for 208 steps with 70 atoms

91.9% CPU use with 1 MPI tasks x 1 OpenMP threads

Minimization stats:
  Stopping criterion = force tolerance
  Energy initial, next-to-last, final = 
    4.19207126129522e-11 4.01410147311346e-13 4.01410112394096e-13
  Force two-norm initial, final = 3.1544093e-05 3.3909375e-10
  Force max component initial, final = 1.9394501e-05 1.0028553e-10
  Final line search alpha, max atom move = 1 1.0028553e-10
  Iterations, force evaluations = 208 416

MPI task timing breakdown:
Section |  min time  |  avg time  |  max time  |%varavg| %total
---------------------------------------------------------------
Pair    | 0          | 0          | 0          |   0.0 |  0.00
Bond    | 0.0028956  | 0.0028956  | 0.0028956  |   0.0 | 17.10
Neigh   | 0          | 0          | 0          |   0.0 |  0.00
Comm    | 0.0051163  | 0.0051163  | 0.0051163  |   0.0 | 30.22
Output  | 0          | 0          | 0          |   0.0 |  0.00
Modify  | 0          | 0          | 0          |   0.0 |  0.00
Other   |            | 0.008917   |            |       | 52.67

Nlocal:             70 ave          70 max          70 min
Histogram: 1 0 0 0 0 0 0 0 0 0
Nghost:            594 ave         594 max         594 min
Histogram: 1 0 0 0 0 0 0 0 0 0
Neighs:              0 ave           0 max           0 min
Histogram: 1 0 0 0 0 0 0 0 0 0

Total # of neighbors = 0
Ave neighs/atom = 0
Ave special neighs/atom = 25.885714
Neighbor list builds = 0
Dangerous builds = 0
#dump rela all atom 1 traj_relax.lmpstrj
thermo 100
unfix 3

fix 2d all enforce2d



#dump dump0 all xyz 1000000 cfg0.xyz
#dump_modify dump0 format line "%d %20.10g %20.10g %20.10g"
#minimize ${etol} ${ftol} ${maxiter} ${maxeval}

#undump rela

#write_restart restart.equil

# These formulas define the derivatives w.r.t. strain components
# Constants uses $, variables use v_


timestep        ${dt}
timestep        0.01
variable nsteps equal round(${strainsteps})
variable nsteps equal round(50000)

fix             4 all nve
fix             5 all langevin 0.1 0.1 1 904297
#fix		6 all press/berendsen y  0.0 0.0 1 x 0.0 0.0 10
fix             6 all nph y 0.0 0.0 10 ptemp 0.1 # x 0.0 0.0 10

# For PLUMED2
# fix 22 all plumed plumedfile plumed.dat outfile plumed.out

#fix             6 all nph x 0.0 0.0 10
fix     	9 all deform 1 x erate -${srate} units box remap x
fix     	9 all deform 1 x erate -0.0001 units box remap x

#fix     8 all deform 1 xy erate ${srate} units box remap x



#fix    10 all ave/time

dump 1 all atom 250 deform_dump.lammpstrj


#To avoid flying ice cube phenomenon:
#fix 21 all momentum 100 linear 1 1 1 angular


run  ${nsteps}
run  50000
WARNING: One or more atoms are time integrated more than once (src/modify.cpp:292)
WARNING: Inconsistent image flags (src/domain.cpp:819)
Per MPI rank memory allocation (min/avg/max) = 8.037 | 8.037 | 8.037 Mbytes
   Step          Temp          PotEng         E_bond        E_angle        E_dihed         Press           Pxx            Pyy            Pzz            Pxy            Pxz            Pyz             Lx             Ly             Lz           Volume    
       208   0              4.0141011e-13  4.0141011e-13  0              0             -8.6123355e-08 -1.726197e-07   3.7299164e-10  0              0.0026872616   0              0              9.6055535      9.6055536      0.2            92.266659    
       300   0.14432188     0.00094534415  0.00094534415  0              0              140.70544      230.17482      51.053924      0              612.32437      0              0              9.6046698      9.6021766      0.2            92.225735    
       400   0.21712527     0.0011000046   0.0011000046   0              0              374.94154      729.43616      20.243807      0              1276.8692      0              0              9.6037092      9.6078801      0.2            92.271287    
       500   0.21823191     0.0012376013   0.0012376013   0              0             -643.02286     -1234.322      -51.926428      0             -13.580717      0              0              9.6027486      9.6073091      0.2            92.256575    
       600   0.25832021     0.0010482809   0.0010482809   0              0             -146.84512     -225.528       -68.377933      0              680.86714      0              0              9.6017881      9.6057188      0.2            92.232076    
       700   0.21780497     0.00099970936  0.00099970936  0              0              191.07801      438.92535     -56.966288      0              583.70882      0              0              9.6008275      9.6062387      0.2            92.227841    
       800   0.15818454     0.0010566007   0.0010566007   0              0             -111.89159     -321.45727      97.489915      0             -373.40241      0              0              9.599867       9.6082758      0.2            92.23817     
       900   0.16847552     0.0010843906   0.0010843906   0              0              795.24496      1244.518       345.73853      0              152.11509      0              0              9.5989064      9.6053903      0.2            92.201243    
      1000   0.17147076     0.0011814068   0.0011814068   0              0              457.32667      528.65117      385.81183      0              331.17827      0              0              9.5979459      9.613621       0.2            92.271014    
      1100   0.19949465     0.001029233    0.001029233    0              0              488.18191      623.57099      352.56631      0              340.70755      0              0              9.5969853      9.6117363      0.2            92.243692    
      1200   0.20469246     0.0012091111   0.0012091111   0              0              369.68805      445.91165      293.26776      0             -109.06824      0              0              9.5960248      9.6109919      0.2            92.227316    
      1300   0.24609913     0.0014133014   0.0014133014   0              0              233.5579       213.94997      252.96674      0             -32.041949      0              0              9.5950642      9.6132115      0.2            92.239382    
      1400   0.19852133     0.0011972468   0.0011972468   0              0             -100.34586     -280.69038      79.754027      0             -22.325409      0              0              9.5941036      9.6131113      0.2            92.229186    
      1500   0.18699808     0.00089402213  0.00089402213  0              0              33.917949      194.44394     -126.81742      0              324.51155      0              0              9.5931431      9.6161263      0.2            92.248875    
      1600   0.20862249     0.0011508327   0.0011508327   0              0              263.59722      794.90287     -267.87237      0             -19.323881      0              0              9.5921825      9.6144899      0.2            92.223943    
      1700   0.24362014     0.0010873661   0.0010873661   0              0              361.66143      1255.5126     -532.3907       0              115.42624      0              0              9.591222       9.6189253      0.2            92.257248    
      1800   0.18593171     0.0010948301   0.0010948301   0              0              230.82128      1146.1585     -684.69771      0              100.32214      0              0              9.5902614      9.6181197      0.2            92.240282    
      1900   0.23989872     0.0011255586   0.0011255586   0              0              218.16448      1017.9819     -581.84973      0              338.48247      0              0              9.5893009      9.6208346      0.2            92.257078    
      2000   0.21301873     0.0011007396   0.0011007396   0              0              46.494443      497.63341     -404.86909      0             -78.767032      0              0              9.5883403      9.6207604      0.2            92.247124    
      2100   0.21075783     0.0010082476   0.0010082476   0              0              372.99319      773.34543     -27.56957       0              15.775661      0              0              9.5873798      9.6221352      0.2            92.251064    
      2200   0.20099684     0.0011320977   0.0011320977   0              0              598.49063      676.16476      520.60972      0             -601.89121      0              0              9.5864192      9.618533       0.2            92.20729     
      2300   0.19891819     0.0012605308   0.0012605308   0              0              853.60107      696.13652      1010.8766      0             -630.7994       0              0              9.5854586      9.6172197      0.2            92.185462    
      2400   0.1687482      0.0011523588   0.0011523588   0              0              816.9519       425.43363      1208.2324      0             -431.38088      0              0              9.5844981      9.6168107      0.2            92.172304    
      2500   0.28200834     0.0012640637   0.0012640637   0              0              1514.9227      1963.7071      1065.9333      0              493.80695      0              0              9.5835375      9.6231574      0.2            92.22389     
      2600   0.26090834     0.0013467372   0.0013467372   0              0              1517.2834      2401.9594      632.42446      0              806.71444      0              0              9.582577       9.6226264      0.2            92.209558    
      2700   0.18145078     0.0013395745   0.0013395745   0              0              476.82628      1029.551      -76.103447      0              503.22166      0              0              9.5816164      9.6273018      0.2            92.245113    
      2800   0.23087964     0.0013810176   0.0013810176   0              0              176.07576      1207.9369     -855.99473      0              460.06278      0              0              9.5806559      9.6334456      0.2            92.294727    
      2900   0.20130692     0.001417382    0.001417382    0              0             -686.8492      -130.48537     -1243.4229      0              935.82069      0              0              9.5796953      9.6390972      0.2            92.339615    
      3000   0.19259631     0.0014689031   0.0014689031   0              0             -1.9642983      1304.751      -1308.8991      0              871.54725      0              0              9.5787348      9.6349145      0.2            92.29029     
      3100   0.18324918     0.0013647384   0.0013647384   0              0              241.98834      1447.2964     -963.49102      0              1014.7592      0              0              9.5777742      9.6366118      0.2            92.297292    
      3200   0.20501823     0.0014876      0.0014876      0              0              858.79414      1973.9811     -256.63354      0              468.09637      0              0              9.5768136      9.6314759      0.2            92.23885     
      3300   0.23359461     0.0012337527   0.0012337527   0              0              1280.427       2012.566       548.08394      0              470.40776      0              0              9.5758531      9.62882        0.2            92.204166    
      3400   0.21940266     0.001350623    0.001350623    0              0              1346.796       1602.2075      1091.1491      0              254.40548      0              0              9.5748925      9.6295902      0.2            92.202292    
      3500   0.25170049     0.0014026763   0.0014026763   0              0              1922.3197      2548.8664      1295.5922      0              754.41128      0              0              9.573932       9.627707       0.2            92.175012    
      3600   0.21248989     0.0015743357   0.0015743357   0              0              1607.1604      2240.2559      973.87244      0             -45.975826      0              0              9.5729714      9.6289729      0.2            92.177882    
      3700   0.1610877      0.0015646802   0.0015646802   0              0              1268.0763      2207.5623      328.39811      0              324.66756      0              0              9.5720109      9.6289572      0.2            92.168483    
      3800   0.17923524     0.0016509915   0.0016509915   0              0              620.19065      1596.1001     -355.93386      0              114.63247      0              0              9.5710503      9.640044       0.2            92.265346    
      3900   0.21476684     0.0015688684   0.0015688684   0              0             -514.04011     -288.33437     -739.98316      0              26.073012      0              0              9.5700898      9.6369063      0.2            92.226059    
      4000   0.24861236     0.0013809529   0.0013809529   0              0             -223.29419      460.92724     -907.76813      0              613.50245      0              0              9.5691292      9.6306517      0.2            92.15695     
      4100   0.19184943     0.0012542407   0.0012542407   0              0              213.45917      1106.2462     -679.54253      0              234.89206      0              0              9.5681686      9.6386391      0.2            92.224125    
      4200   0.23673645     0.0017385342   0.0017385342   0              0              817.6807       1695.8411     -60.716628      0              618.54772      0              0              9.5672081      9.6347888      0.2            92.17803     
      4300   0.24656096     0.0013446639   0.0013446639   0              0              581.68228      713.22101      449.92495      0             -314.20703      0              0              9.5662475      9.6301871      0.2            92.124754    
      4400   0.22922256     0.0015319537   0.0015319537   0              0              491.28549      186.00413      796.35959      0             -54.158597      0              0              9.565287       9.6274711      0.2            92.089524    
      4500   0.24992358     0.0017582646   0.0017582646   0              0              306.51988     -138.00709      750.82029      0              187.63035      0              0              9.5643264      9.6272864      0.2            92.07851     
      4600   0.21470866     0.0017201111   0.0017201111   0              0              762.97634      977.38135      548.36782      0              445.4578       0              0              9.5633659      9.6286786      0.2            92.082577    
      4700   0.21941824     0.0013656159   0.0013656159   0              0              919.97546      1629.3017      210.431        0              1021.3351      0              0              9.5624053      9.6290901      0.2            92.077262    
      4800   0.22873543     0.0013330237   0.0013330237   0              0              501.30812      1351.8018     -349.37426      0              225.26193      0              0              9.5614448      9.6303358      0.2            92.079924    
      4900   0.21856052     0.0013841201   0.0013841201   0              0              835.64469      2266.2561     -595.16229      0              373.94154      0              0              9.5604842      9.6258955      0.2            92.028222    
      5000   0.22115051     0.0014539636   0.0014539636   0              0              290.00182      1264.2546     -684.45781      0              17.430871      0              0              9.5595236      9.6299382      0.2            92.057622    
      5100   0.24318856     0.0012792458   0.0012792458   0              0             -91.141735      363.00403     -545.47941      0              168.70255      0              0              9.5585631      9.6322819      0.2            92.070775    
      5200   0.21690216     0.001384266    0.001384266    0              0              428.21261      953.04338     -96.802325      0              12.669271      0              0              9.5576025      9.6344715      0.2            92.082449    
      5300   0.1812703      0.0012188891   0.0012188891   0              0              1242.9731      2132.5813      353.18689      0              668.79042      0              0              9.556642       9.6349491      0.2            92.077759    
      5400   0.20705936     0.0014216632   0.0014216632   0              0              1038.1087      1439.6174      636.38991      0             -120.09142      0              0              9.5556814      9.6321642      0.2            92.041892    
      5500   0.25481257     0.0014451235   0.0014451235   0              0              1714.5349      2818.0208      610.85314      0              92.071631      0              0              9.5547209      9.6328331      0.2            92.039032    
      5600   0.24812481     0.0015635521   0.0015635521   0              0              1663.1728      3009.3009      316.81559      0              468.79884      0              0              9.5537603      9.6358042      0.2            92.058164    
      5700   0.21249011     0.0018538546   0.0018538546   0              0              878.88611      1725.3263      32.212951      0             -504.17347      0              0              9.5527998      9.629796       0.2            91.991513    
      5800   0.18503769     0.001458301    0.001458301    0              0              955.41771      2248.6663     -338.03394      0              455.85736      0              0              9.5518392      9.6368888      0.2            92.050012    
      5900   0.23529015     0.0015723041   0.0015723041   0              0             -135.52514      407.92616     -679.17581      0              308.89794      0              0              9.5508787      9.6401964      0.2            92.072346    
      6000   0.17857576     0.0012881225   0.0012881225   0              0              812.05153      2309.3356     -685.43044      0             -323.10995      0              0              9.5499181      9.6408766      0.2            92.069582    
      6100   0.20607741     0.0013841423   0.0013841423   0              0              939.45155      2210.508      -331.79255      0              427.11379      0              0              9.5489575      9.63591        0.2            92.012895    
      6200   0.15178085     0.0014433393   0.0014433393   0              0              1131.1862      2202.9096      59.224638      0              408.78388      0              0              9.547997       9.6358902      0.2            92.00345     
      6300   0.21170354     0.0015724761   0.0015724761   0              0              903.58346      1238.7102      568.22084      0              281.72879      0              0              9.5470364      9.6370789      0.2            92.005543    
      6400   0.17594271     0.0015066028   0.0015066028   0              0              1522.2669      2352.1038      692.27926      0             -107.44197      0              0              9.5460759      9.6319239      0.2            91.947077    
      6500   0.18466429     0.0015322789   0.0015322789   0              0              1327.5762      2028.3196      626.60689      0             -256.94023      0              0              9.5451153      9.6356608      0.2            91.973494    
      6600   0.18431311     0.0012470438   0.0012470438   0              0              1155.743       2073.1456      238.15092      0              630.43245      0              0              9.5441548      9.6326577      0.2            91.935576    
      6700   0.21015596     0.0016022215   0.0016022215   0              0              572.76723      1272.922      -127.63808      0              512.70233      0              0              9.5431942      9.63819        0.2            91.979119    
      6800   0.19767793     0.0015129981   0.0015129981   0              0              752.10369      1993.5767     -489.57429      0              10.950988      0              0              9.5422337      9.6366187      0.2            91.954867    
      6900   0.16322971     0.0015975341   0.0015975341   0              0              802.30108      2094.9786     -490.62923      0             -152.75236      0              0              9.5412731      9.6418248      0.2            91.995284    
      7000   0.20665112     0.0015313286   0.0015313286   0              0              1462.4416      3213.0052     -288.31559      0             -208.09654      0              0              9.5403125      9.6390225      0.2            91.959287    
      7100   0.21909609     0.0014434203   0.0014434203   0              0              1643.462       3268.0016      18.718709      0             -540.17809      0              0              9.539352       9.6296989      0.2            91.861088    
      7200   0.20824139     0.0015042774   0.0015042774   0              0              1289.8104      2356.9149      222.47792      0             -452.76337      0              0              9.5383914      9.628366       0.2            91.839124    
      7300   0.15323389     0.0016160027   0.0016160027   0              0              1938.1543      3604.0719      272.03138      0             -785.87737      0              0              9.5374309      9.6263112      0.2            91.810278    
      7400   0.19201892     0.0013836632   0.0013836632   0              0              1709.5776      3178.9344      240.01188      0              281.43717      0              0              9.5364703      9.6345427      0.2            91.87953     
      7500   0.20980556     0.0014581692   0.0014581692   0              0              878.59895      1683.01        73.984878      0              302.36095      0              0              9.5355098      9.641184       0.2            91.933604    
      7600   0.21078151     0.0014585614   0.0014585614   0              0              1418.3573      2793.9677      42.545062      0              911.46145      0              0              9.5345492      9.6402966      0.2            91.915882    
      7700   0.20728483     0.001646879    0.001646879    0              0              1296.5743      2629.2494     -36.338165      0              620.26099      0              0              9.5335887      9.6379877      0.2            91.884611    
      7800   0.23716031     0.0014301888   0.0014301888   0              0              1182.7497      2509.7831     -144.49489      0              103.81146      0              0              9.5326281      9.6438028      0.2            91.930786    
      7900   0.20874944     0.0015957438   0.0015957438   0              0              750.71452      1656.3841     -155.17832      0             -211.66824      0              0              9.5316675      9.6457383      0.2            91.939971    
      8000   0.22935273     0.0015608557   0.0015608557   0              0              794.68077      1751.3038     -162.18453      0              858.34709      0              0              9.530707       9.6508973      0.2            91.979874    
      8100   0.21747525     0.0014766224   0.0014766224   0              0              539.81395      1056.914       22.527989      0              601.792        0              0              9.5297464      9.6524211      0.2            91.985125    
      8200   0.21585983     0.001730796    0.001730796    0              0              884.48518      1577.7435      190.99786      0             -229.88353      0              0              9.5287859      9.6452753      0.2            91.907763    
      8300   0.2099707      0.0015231589   0.0015231589   0              0              1246.8213      2261.3645      232.0728       0              24.691195      0              0              9.5278253      9.6506359      0.2            91.949574    
      8400   0.23139123     0.0017892832   0.0017892832   0              0              1121.9694      1990.8665      252.87355      0              193.51276      0              0              9.5268648      9.651704       0.2            91.950479    
      8500   0.22402777     0.0015973619   0.0015973619   0              0              1073.7303      2132.1763      15.057921      0              22.416457      0              0              9.5259042      9.6542046      0.2            91.965028    
      8600   0.18918798     0.0017236329   0.0017236329   0              0              726.43382      1608.2749     -155.63475      0              769.09195      0              0              9.5249437      9.6552809      0.2            91.966006    
      8700   0.19837584     0.0015031294   0.0015031294   0              0              1304.1206      2767.4688     -159.43491      0             -453.31563      0              0              9.5239831      9.6596479      0.2            91.998324    
      8800   0.2101997      0.0019101652   0.0019101652   0              0              1143.6059      2449.6284     -162.60559      0             -124.99815      0              0              9.5230225      9.6573225      0.2            91.9669      
      8900   0.2435308      0.0017169738   0.0017169738   0              0              810.44145      1769.6921     -148.98371      0              244.46575      0              0              9.522062       9.6541496      0.2            91.927411    
      9000   0.1914143      0.001636631    0.001636631    0              0              1256.6392      2617.2137     -104.14541      0             -472.91951      0              0              9.5211014      9.6623802      0.2            91.996502    
      9100   0.20919754     0.001569638    0.001569638    0              0              1343.5054      2658.2432      28.572303      0             -190.53649      0              0              9.5201409      9.6576646      0.2            91.942328    
      9200   0.23773271     0.0018373887   0.0018373887   0              0              952.71289      1859.0958      46.131688      0             -163.96153      0              0              9.5191803      9.6590861      0.2            91.946583    
      9300   0.23224309     0.001555745    0.001555745    0              0              1403.5162      2607.1689      199.62216      0              1008.3042      0              0              9.5182198      9.6577768      0.2            91.924842    
      9400   0.1840373      0.0017796054   0.0017796054   0              0              1352.2492      2593.3495      110.94729      0              672.84052      0              0              9.5172592      9.6594636      0.2            91.931619    
      9500   0.1516238      0.0019057267   0.0019057267   0              0              1613.6923      3265.5881     -38.409693      0             -30.086323      0              0              9.5162987      9.6574686      0.2            91.903355    
      9600   0.18297448     0.0016580218   0.0016580218   0              0              1609.6333      3410.8241     -191.79111      0             -205.62358      0              0              9.5153381      9.654354       0.2            91.864443    
      9700   0.17145785     0.0017399121   0.0017399121   0              0              810.19656      2020.8356     -400.61956      0             -48.307275      0              0              9.5143775      9.6605239      0.2            91.913872    
      9800   0.22232222     0.001591241    0.001591241    0              0              1185.3952      2741.1447     -370.60002      0             -678.99273      0              0              9.513417       9.6665099      0.2            91.961539    
      9900   0.19830259     0.0015980769   0.0015980769   0              0              1609.2421      3313.0907     -94.825248      0             -644.85947      0              0              9.5124564      9.6649721      0.2            91.937627    
     10000   0.24878796     0.0014927486   0.0014927486   0              0              1528.2106      2945.9748      110.24083      0             -205.18861      0              0              9.5114959      9.6660461      0.2            91.938558    
     10100   0.19952974     0.0020997813   0.0020997813   0              0              1767.9369      3042.5429      493.09603      0              259.47723      0              0              9.5105353      9.6642992      0.2            91.912659    
     10200   0.21680622     0.0017537101   0.0017537101   0              0              2048.8552      3536.5039      560.95029      0              367.34602      0              0              9.5095748      9.6661152      0.2            91.920645    
     10300   0.21747509     0.001746718    0.001746718    0              0              1775.514       3272.5852      278.2498       0             -304.3944       0              0              9.5086142      9.6653625      0.2            91.904203    
     10400   0.18670675     0.0018578013   0.0018578013   0              0              1177.7873      2590.8096     -235.43938      0             -579.58734      0              0              9.5076537      9.6626384      0.2            91.869019    
     10500   0.16411139     0.0018631806   0.0018631806   0              0              1075.2658      3007.8774     -857.57421      0              59.244616      0              0              9.5066931      9.6690541      0.2            91.92073     
     10600   0.23107506     0.0018680751   0.0018680751   0              0              614.16072      2253.3226     -1025.2212      0             -458.30482      0              0              9.5057326      9.6711318      0.2            91.931192    
     10700   0.20147499     0.0020785535   0.0020785535   0              0              901.43344      2346.3244     -543.64758      0              452.97487      0              0              9.504772       9.666791       0.2            91.880644    
     10800   0.17851947     0.0017844916   0.0017844916   0              0              1371.3514      2221.58        520.92429      0              212.22346      0              0              9.5038114      9.6704076      0.2            91.90573     
     10900   0.21399005     0.0019709292   0.0019709292   0              0              2368.0766      3253.1644      1482.7424      0             -120.4017       0              0              9.5028509      9.6564537      0.2            91.76384     
     11000   0.18476982     0.0022480909   0.0022480909   0              0              3244.2458      4951.7523      1536.4897      0             -335.06524      0              0              9.5018903      9.6521188      0.2            91.713374    
     11100   0.23584046     0.0019670809   0.0019670809   0              0              2390.9072      4160.0554      621.5877       0             -120.39656      0              0              9.5009298      9.6652769      0.2            91.829117    
     11200   0.2151869      0.0019292636   0.0019292636   0              0              1523.4689      3768.0614     -721.39025      0             -29.802326      0              0              9.4999692      9.6703932      0.2            91.868438    
     11300   0.15613327     0.0019350737   0.0019350737   0              0              914.69518      3340.144      -1510.9706      0             -363.69116      0              0              9.4990087      9.6753927      0.2            91.906639    
     11400   0.20757654     0.0019121235   0.0019121235   0              0              629.05581      2598.8272     -1340.915       0              134.77484      0              0              9.4980481      9.6745428      0.2            91.889273    
     11500   0.21209236     0.0019604932   0.0019604932   0              0              986.09481      2357.7651     -385.77182      0             -432.11546      0              0              9.4970876      9.669765       0.2            91.834605    
     11600   0.19155094     0.0021518061   0.0021518061   0              0              1535.6427      2417.2266      653.81942      0              154.464        0              0              9.496127       9.6673223      0.2            91.80212     
     11700   0.23341493     0.0020507809   0.0020507809   0              0              2242.0643      3190.4129      1293.488       0             -84.851918      0              0              9.4951664      9.6644621      0.2            91.765676    
     11800   0.20890146     0.0022934314   0.0022934314   0              0              2400.128       3688.6863      1111.3675      0             -19.14441       0              0              9.4942059      9.6710079      0.2            91.81854     
     11900   0.21639269     0.0019746966   0.0019746966   0              0              1350.1688      2274.4551      425.67331      0              133.19468      0              0              9.4932453      9.6680025      0.2            91.780719    
     12000   0.18843725     0.0019048364   0.0019048364   0              0              1153.474       2961.6861     -654.96895      0              814.56474      0              0              9.4922848      9.6745029      0.2            91.833136    
     12100   0.22939469     0.0021251322   0.0021251322   0              0              610.54168      2455.309      -1234.4601      0              91.912145      0              0              9.4913242      9.6773196      0.2            91.850578    
     12200   0.2118229      0.0020136277   0.0020136277   0              0              818.27742      2545.2071     -908.88074      0              758.10395      0              0              9.4903637      9.678018       0.2            91.84791     
     12300   0.1918027      0.0018354682   0.0018354682   0              0              1602.6606      3270.6353     -65.525924      0             -88.027815      0              0              9.4894031      9.6743425      0.2            91.803735    
     12400   0.19400663     0.0020222174   0.0020222174   0              0              2152.7365      3461.3028      843.96719      0              1146.3054      0              0              9.4884426      9.6760768      0.2            91.810899    
     12500   0.19437759     0.0022273917   0.0022273917   0              0              2136.8425      3067.7198      1205.7033      0              362.40853      0              0              9.487482       9.6692875      0.2            91.737191    
     12600   0.22078625     0.0022971074   0.0022971074   0              0              2181.6381      3600.4045      762.65325      0             -174.83829      0              0              9.4865214      9.6699588      0.2            91.734271    
     12700   0.1858085      0.0020521661   0.0020521661   0              0              1148.078       2518.735      -222.79222      0             -120.96564      0              0              9.4855609      9.6786123      0.2            91.807066    
     12800   0.1764491      0.0022562977   0.0022562977   0              0              510.13461      1982.4267     -962.3839       0             -441.19847      0              0              9.4846003      9.6838847      0.2            91.847776    
     12900   0.22592353     0.0022275524   0.0022275524   0              0              788.65286      2596.9494     -1019.89        0              51.418815      0              0              9.4836398      9.6824578      0.2            91.824942    
     13000   0.17207997     0.0020674891   0.0020674891   0              0              1101.2549      2654.9931     -452.69797      0              413.24458      0              0              9.4826792      9.6763743      0.2            91.757954    
     13100   0.2150028      0.0019189085   0.0019189085   0              0              1294.2827      2282.729       305.61724      0              381.80691      0              0              9.4817187      9.6734047      0.2            91.720502    
     13200   0.15105354     0.0021907848   0.0021907848   0              0              1820.9362      2809.2727      832.36347      0              351.01343      0              0              9.4807581      9.6717387      0.2            91.695416    
     13300   0.20395226     0.0018466061   0.0018466061   0              0              1225.9577      1801.4344      650.25494      0              71.655622      0              0              9.4797976      9.6724989      0.2            91.693331    
     13400   0.19509979     0.0020483901   0.0020483901   0              0              1613.3289      3157.323       69.111125      0              446.68683      0              0              9.478837       9.6779195      0.2            91.735422    
     13500   0.21551213     0.0020210531   0.0020210531   0              0              1165.1645      2857.9463     -527.84435      0              814.50461      0              0              9.4778764      9.6776355      0.2            91.723433    
     13600   0.20679507     0.002090746    0.002090746    0              0              1005.933       2812.9597     -801.32003      0              774.47708      0              0              9.4769159      9.6833628      0.2            91.768414    
     13700   0.20034268     0.002010802    0.002010802    0              0              1383.901       3256.2195     -488.62958      0              99.083023      0              0              9.4759553      9.6781173      0.2            91.709408    
     13800   0.18281359     0.001984463    0.001984463    0              0              1469.5766      2823.1022      115.85922      0             -71.454891      0              0              9.4749948      9.6765374      0.2            91.685141    
     13900   0.19423877     0.0021146144   0.0021146144   0              0              1698.4692      2725.441       671.29337      0             -351.86957      0              0              9.4740342      9.6697394      0.2            91.611442    
     14000   0.20185149     0.0022511048   0.0022511048   0              0              1727.8368      2776.4376      679.00497      0             -199.54916      0              0              9.4730737      9.6682612      0.2            91.588151    
     14100   0.17784518     0.0026678933   0.0026678933   0              0              1562.4209      2823.9608      300.67125      0             -47.928885      0              0              9.4721131      9.6777218      0.2            91.668476    
     14200   0.21668133     0.0024688161   0.0024688161   0              0              1628.2795      3370.2511     -113.89177      0             -724.89049      0              0              9.4711526      9.6792723      0.2            91.673865    
     14300   0.2079963      0.0024037237   0.0024037237   0              0              1397.2099      3380.0894     -585.91333      0              435.02731      0              0              9.470192       9.6843936      0.2            91.713067    
     14400   0.2150317      0.0023966294   0.0023966294   0              0              1338.6482      3195.441      -518.34531      0             -288.02116      0              0              9.4692314      9.6855875      0.2            91.71507     
     14500   0.20195723     0.0022674085   0.0022674085   0              0              1587.0627      3251.2247     -77.288641      0             -183.22066      0              0              9.4682709      9.6789399      0.2            91.642825    
     14600   0.21800042     0.0025454366   0.0025454366   0              0              1523.6135      2610.2356      436.78278      0             -633.24191      0              0              9.4673103      9.6786762      0.2            91.631032    
     14700   0.2208434      0.0027129348   0.0027129348   0              0              1781.6504      3065.4369      497.66648      0             -293.28333      0              0              9.4663498      9.6759655      0.2            91.596074    
     14800   0.21556969     0.0024828503   0.0024828503   0              0              1807.3999      3306.5194      308.04948      0             -92.173165      0              0              9.4653892      9.6793522      0.2            91.618836    
     14900   0.193905       0.0026666532   0.0026666532   0              0              1566.5012      3338.7452     -205.96625      0             -179.29323      0              0              9.4644287      9.6805381      0.2            91.620762    
     15000   0.18865499     0.0026108402   0.0026108402   0              0              1832.66        4095.2039     -430.10907      0              488.59888      0              0              9.4634681      9.6807666      0.2            91.613626    
     15100   0.22012063     0.0025681103   0.0025681103   0              0              1294.9901      2841.8925     -252.11986      0             -298.43494      0              0              9.4625076      9.6790034      0.2            91.587643    
     15200   0.23777452     0.0024571718   0.0024571718   0              0              1936.5425      3729.5313      143.34836      0             -380.34392      0              0              9.461547       9.6822338      0.2            91.60891     
     15300   0.21856273     0.0026781241   0.0026781241   0              0              1746.6283      3020.2439      472.782        0              778.3166       0              0              9.4605864      9.6774175      0.2            91.554045    
     15400   0.23033387     0.0024137238   0.0024137238   0              0              1550.4832      2669.7212      431.06132      0             -149.17699      0              0              9.4596259      9.6843283      0.2            91.610122    
     15500   0.18053032     0.0026303811   0.0026303811   0              0              1227.567       2481.4132     -26.508919      0             -2.0219542      0              0              9.4586653      9.6857475      0.2            91.614244    
     15600   0.20886636     0.0023179984   0.0023179984   0              0              779.13941      2063.7351     -505.64766      0              28.533659      0              0              9.4577048      9.6896941      0.2            91.642267    
     15700   0.18123571     0.0027379544   0.0027379544   0              0              1223.6408      2949.9953     -502.87124      0              678.13528      0              0              9.4567442      9.6859965      0.2            91.597992    
     15800   0.21239702     0.002493215    0.002493215    0              0              2075.609       4094.0245      57.034121      0              225.02771      0              0              9.4557837      9.6876331      0.2            91.604162    
     15900   0.16450878     0.002494867    0.002494867    0              0              2535.669       4454.6781      616.45974      0              665.6283       0              0              9.4548231      9.6829159      0.2            91.550257    
     16000   0.16702558     0.0027234999   0.0027234999   0              0              1984.9128      3480.9465      488.67711      0              452.0437       0              0              9.4538626      9.6864316      0.2            91.574194    
     16100   0.22324654     0.0027233241   0.0027233241   0              0              1924.2846      3899.8838     -51.531111      0              819.66846      0              0              9.452902       9.6903919      0.2            91.602325    
     16200   0.23796586     0.0027000527   0.0027000527   0              0              939.69032      2588.628      -709.44743      0              745.34522      0              0              9.4519415      9.6967394      0.2            91.653013    
     16300   0.16766522     0.0030984689   0.0030984689   0              0              1426.3732      3578.076      -725.53009      0              478.11047      0              0              9.4509809      9.6977865      0.2            91.653595    
     16400   0.16798848     0.0028263788   0.0028263788   0              0              1281.9016      2744.0297     -180.42062      0              567.11188      0              0              9.4500203      9.692574       0.2            91.595022    
     16500   0.18766601     0.0027551683   0.0027551683   0              0              2306.0134      3910.0194      701.81367      0              668.02694      0              0              9.4490598      9.685897       0.2            91.52262     
     16600   0.21698694     0.0028269528   0.0028269528   0              0              2537.5939      3970.1993      1104.7664      0              895.10425      0              0              9.4480992      9.6828391      0.2            91.484425    
     16700   0.22212802     0.0026885543   0.0026885543   0              0              2272.5812      4010.699       534.28141      0              401.31717      0              0              9.4471387      9.6873432      0.2            91.517674    
     16800   0.16088168     0.0027986174   0.0027986174   0              0              1743.1684      4181.4618     -695.3264       0              872.66407      0              0              9.4461781      9.6939113      0.2            91.570413    
     16900   0.18813284     0.0029191191   0.0029191191   0              0              698.51915      2689.3337     -1292.4799      0              489.03958      0              0              9.4452176      9.7027226      0.2            91.644326    
     17000   0.2194174      0.0028489895   0.0028489895   0              0              1075.4205      3091.2323     -940.645        0              639.31399      0              0              9.444257       9.7024824      0.2            91.632737    
     17100   0.2031345      0.0026728341   0.0026728341   0              0              1947.7979      3619.358       276.00966      0              646.93741      0              0              9.4432965      9.7009225      0.2            91.608687    
     17200   0.22270214     0.0027810541   0.0027810541   0              0              2680.2011      3961.7802      1398.387       0              249.90643      0              0              9.4423359      9.6946525      0.2            91.540165    
     17300   0.18355797     0.0028124231   0.0028124231   0              0              2962.2645      4436.7536      1487.5549      0             -141.91295      0              0              9.4413753      9.6898113      0.2            91.485146    
     17400   0.21764366     0.0024692731   0.0024692731   0              0              2037.0656      3805.1496      268.7508       0              338.53251      0              0              9.4404148      9.7015355      0.2            91.586519    
     17500   0.16849076     0.0026852489   0.0026852489   0              0              1112.6505      3293.5964     -1068.5291      0             -26.872344      0              0              9.4394542      9.7070807      0.2            91.629544    
     17600   0.1882135      0.0028699881   0.0028699881   0              0              1159.4152      3875.9265     -1557.2881      0              383.45563      0              0              9.4384937      9.7097131      0.2            91.645066    
     17700   0.20085532     0.002984169    0.002984169    0              0              1519.5944      3772.679      -733.73498      0             -303.81135      0              0              9.4375331      9.7054493      0.2            91.5955      
     17800   0.14710009     0.0028868373   0.0028868373   0              0              2561.3544      4430.3062      692.19077      0             -69.82812       0              0              9.4365726      9.6976103      0.2            91.512203    
     17900   0.18793402     0.0027363163   0.0027363163   0              0              2608.8732      3855.8533      1361.6597      0             -44.72199       0              0              9.435612       9.6973411      0.2            91.500348    
     18000   0.18465285     0.0030936602   0.0030936602   0              0              2809.9955      4657.5362      962.21539      0              198.02676      0              0              9.4346515      9.6990129      0.2            91.506806    
     18100   0.22152763     0.0031376249   0.0031376249   0              0              1431.3733      2998.4361     -135.85891      0              55.418615      0              0              9.4336909      9.7086098      0.2            91.588024    
     18200   0.20610675     0.0030932083   0.0030932083   0              0              1141.3173      3346.244      -1063.8225      0              434.38182      0              0              9.4327303      9.7129145      0.2            91.619303    
     18300   0.17612037     0.0033146781   0.0033146781   0              0              1273.1491      3436.6593     -890.5755       0              119.65566      0              0              9.4317698      9.705612       0.2            91.541098    
     18400   0.20002526     0.003325063    0.003325063    0              0              2044.4806      4226.4366     -137.71085      0              257.25393      0              0              9.4308092      9.7108166      0.2            91.580859    
     18500   0.1930888      0.0031792235   0.0031792235   0              0              2722.3586      4924.5065      520.00723      0              94.855563      0              0              9.4298487      9.7016332      0.2            91.484933    
     18600   0.20273193     0.002813785    0.002813785    0              0              2221.7377      3795.5221      647.69307      0             -514.32617      0              0              9.4288881      9.6948592      0.2            91.411743    
     18700   0.20761589     0.0032991736   0.0032991736   0              0              2400.7225      4418.2272      383.01923      0             -518.89944      0              0              9.4279276      9.6975008      0.2            91.427335    
     18800   0.19038576     0.0033467291   0.0033467291   0              0              2165.1471      4476.2665     -146.22787      0              903.23175      0              0              9.426967       9.7005089      0.2            91.446377    
     18900   0.21218032     0.0028562758   0.0028562758   0              0              1192.1496      2759.1202     -375.00606      0              220.21916      0              0              9.4260065      9.7033543      0.2            91.46388     
     19000   0.18451458     0.0032635912   0.0032635912   0              0              1782.719       3861.7566     -296.52557      0             -503.49931      0              0              9.4250459      9.7041205      0.2            91.461781    
     19100   0.22383723     0.0032008659   0.0032008659   0              0              1243.9855      2491.9056     -4.15387        0             -391.45777      0              0              9.4240853      9.7040685      0.2            91.45197     
     19200   0.19504024     0.0033385649   0.0033385649   0              0              1241.7595      2408.0401      75.296042      0             -751.53914      0              0              9.4231248      9.6993924      0.2            91.398585    
     19300   0.22221312     0.0030714138   0.0030714138   0              0              2078.1561      3937.0127      219.09915      0             -197.53217      0              0              9.4221642      9.7076409      0.2            91.466987    
     19400   0.19425503     0.0033432536   0.0033432536   0              0              2794.4687      5474.0027      114.74905      0             -296.19207      0              0              9.4212037      9.7129945      0.2            91.508099    
     19500   0.15307399     0.0033601737   0.0033601737   0              0              2249.1359      4656.3887     -158.32779      0             -330.99851      0              0              9.4202431      9.714208       0.2            91.510201    
     19600   0.20449406     0.003324988    0.003324988    0              0              2190.6916      4687.1535     -305.97342      0              67.8246        0              0              9.4192826      9.7135791      0.2            91.494946    
     19700   0.21552512     0.0033085495   0.0033085495   0              0              1795.4805      3817.7864     -227.01676      0              302.55195      0              0              9.418322       9.7057408      0.2            91.411792    
     19800   0.21737674     0.003616308    0.003616308    0              0              1653.648       3264.14        42.956307      0             -181.00945      0              0              9.4173615      9.697967       0.2            91.32926     
     19900   0.23078093     0.0034897353   0.0034897353   0              0              2163.8446      4090.8761      236.59423      0             -352.64292      0              0              9.4164009      9.7013004      0.2            91.351334    
     20000   0.19689832     0.0033949473   0.0033949473   0              0              2659.5891      5129.0963      189.88338      0              200.33295      0              0              9.4154403      9.7024679      0.2            91.353008    
     20100   0.19180026     0.0034337045   0.0034337045   0              0              2107.0012      4375.3564     -161.57373      0             -310.00014      0              0              9.4144798      9.7096743      0.2            91.411532    
     20200   0.17883967     0.003411202    0.003411202    0              0              2641.1741      5570.1065     -287.96396      0              185.57144      0              0              9.4135192      9.7075182      0.2            91.381909    
     20300   0.21894253     0.0034250642   0.0034250642   0              0              2474.5427      5228.8889     -280.01043      0              337.04265      0              0              9.4125587      9.7135144      0.2            91.429024    
     20400   0.24093201     0.0036515205   0.0036515205   0              0              2374.063       4781.6632     -33.757935      0             -171.03417      0              0              9.4115981      9.711757       0.2            91.403154    
     20500   0.18136139     0.0037325102   0.0037325102   0              0              2250.4462      4150.5794      350.06869      0             -220.65541      0              0              9.4106376      9.7152293      0.2            91.426502    
     20600   0.16325198     0.0037116437   0.0037116437   0              0              2698.484       5145.9696      250.79013      0             -223.60758      0              0              9.409677       9.7196799      0.2            91.459049    
     20700   0.19394262     0.0039618529   0.0039618529   0              0              2613.1064      5278.1608     -52.209949      0              237.83148      0              0              9.4087165      9.7247604      0.2            91.497513    
     20800   0.22917069     0.0038596495   0.0038596495   0              0              1383.4708      3145.8034     -379.0829       0             -191.02121      0              0              9.4077559      9.7286939      0.2            91.525177    
     20900   0.2035747      0.0038189592   0.0038189592   0              0              2208.0054      4619.0033     -203.2003       0             -13.819288      0              0              9.4067953      9.7235956      0.2            91.467874    
     21000   0.19148749     0.0038128254   0.0038128254   0              0              2540.8005      4937.7266      143.68101      0              64.761046      0              0              9.4058348      9.7187455      0.2            91.412915    
     21100   0.18537331     0.0036516683   0.0036516683   0              0              2373.2052      4305.0561      441.14867      0             -209.36123      0              0              9.4048742      9.7201099      0.2            91.416411    
     21200   0.2136625      0.0034726419   0.0034726419   0              0              2211.1709      4248.6996      173.43239      0             -214.65753      0              0              9.4039137      9.721361       0.2            91.41884     
     21300   0.18723377     0.0037329237   0.0037329237   0              0              1642.3237      3574.9984     -290.52456      0             -1133.7127      0              0              9.4029531      9.7156933      0.2            91.356209    
     21400   0.19182346     0.003702181    0.003702181    0              0              611.69896      1834.9287     -611.73826      0             -725.90877      0              0              9.4019926      9.7172968      0.2            91.361952    
     21500   0.2185025      0.003676284    0.003676284    0              0              1076.1504      2432.7659     -280.69224      0             -159.65602      0              0              9.401032       9.7138358      0.2            91.320082    
     21600   0.19770462     0.0037817793   0.0037817793   0              0              2124.1939      3720.2865      527.86885      0             -909.51967      0              0              9.4000715      9.7147385      0.2            91.319236    
     21700   0.22725217     0.0039158564   0.0039158564   0              0              2243.4171      3668.6979      817.93035      0             -224.0628       0              0              9.3991109      9.7123429      0.2            91.287388    
     21800   0.23210095     0.0039388547   0.0039388547   0              0              2160.256       4033.2869      287.00003      0             -177.47365      0              0              9.3981504      9.7126456      0.2            91.280904    
     21900   0.17923811     0.0038192303   0.0038192303   0              0              1923.2705      4590.6782     -744.35287      0             -394.787        0              0              9.3971898      9.7208684      0.2            91.348845    
     22000   0.23367374     0.0038801934   0.0038801934   0              0              1465.9399      4005.5915     -1073.9609      0              11.518231      0              0              9.3962292      9.7269551      0.2            91.3967      
     22100   0.23352964     0.0038692497   0.0038692497   0              0              1971.9557      4130.5591     -186.83801      0              235.04405      0              0              9.3952687      9.7190566      0.2            91.313148    
     22200   0.20798772     0.0039837012   0.0039837012   0              0              2486.5565      3940.9623      1031.8976      0              653.204        0              0              9.3943081      9.7147863      0.2            91.263696    
     22300   0.19738506     0.0038589584   0.0038589584   0              0              2997.2757      5048.7008      945.66369      0             -312.41816      0              0              9.3933476      9.7120685      0.2            91.228835    
     22400   0.21171607     0.004083754    0.004083754    0              0              2007.0244      4099.6259     -85.755111      0              35.960959      0              0              9.392387       9.7215495      0.2            91.308556    
     22500   0.23188378     0.0039374868   0.0039374868   0              0              1178.1477      3464.9663     -1108.871       0             -331.94014      0              0              9.3914265      9.723452       0.2            91.317085    
     22600   0.20653255     0.0039873254   0.0039873254   0              0              882.32869      2702.884      -938.47688      0             -329.74525      0              0              9.3904659      9.7271853      0.2            91.342802    
     22700   0.23957424     0.0041803261   0.0041803261   0              0              1551.2931      2835.5755      266.78973      0             -634.31603      0              0              9.3895054      9.7217117      0.2            91.282064    
     22800   0.22453174     0.0039569188   0.0039569188   0              0              2372.5358      3647.8342      1097.013       0             -4.9424109      0              0              9.3885448      9.7134234      0.2            91.194911    
     22900   0.21471135     0.0039181155   0.0039181155   0              0              2375.3043      4135.6701      614.75622      0             -667.21783      0              0              9.3875842      9.714069       0.2            91.191641    
     23000   0.21762172     0.0041248876   0.0041248876   0              0              1948.644       4292.3327     -395.28292      0              60.748549      0              0              9.3866237      9.7220144      0.2            91.256891    
     23100   0.20930524     0.004256518    0.004256518    0              0              1552.2123      3879.7464     -775.53765      0             -1056.3498      0              0              9.3856631      9.7200561      0.2            91.229172    
     23200   0.21216507     0.0043320854   0.0043320854   0              0              2190.8045      4737.04       -355.67453      0             -861.02905      0              0              9.3847026      9.7235951      0.2            91.253048    
     23300   0.21265973     0.004267692    0.004267692    0              0              3038.4209      5667.9755      408.66793      0             -230.35479      0              0              9.383742       9.719072       0.2            91.201265    
     23400   0.22137732     0.0042446604   0.0042446604   0              0              2933.7008      5146.9437      720.26106      0             -820.32664      0              0              9.3827815      9.7132749      0.2            91.137536    
     23500   0.21848257     0.0042735719   0.0042735719   0              0              2909.1425      5552.6044      265.43975      0             -358.48493      0              0              9.3818209      9.722883       0.2            91.218347    
     23600   0.1985856      0.0041803004   0.0041803004   0              0              2098.2797      4612.468      -416.08485      0             -537.69384      0              0              9.3808604      9.7209784      0.2            91.191141    
     23700   0.20297454     0.0041790281   0.0041790281   0              0              1289.9649      3181.8982     -602.19791      0             -571.53395      0              0              9.3798998      9.7278433      0.2            91.246196    
     23800   0.19500726     0.0042729536   0.0042729536   0              0              2323.0891      4727.8926     -81.937376      0             -878.70426      0              0              9.3789392      9.7312573      0.2            91.268871    
     23900   0.17975035     0.0042642715   0.0042642715   0              0              2793.2963      5106.6891      479.70069      0             -1012.5121      0              0              9.3779787      9.7261553      0.2            91.211677    
     24000   0.21823666     0.0045941213   0.0045941213   0              0              2411.0651      4306.7901      515.17631      0             -385.45181      0              0              9.3770181      9.732235       0.2            91.259344    
     24100   0.19156603     0.004300853    0.004300853    0              0              2064.793       4216.4834     -87.123724      0              32.698529      0              0              9.3760576      9.7400532      0.2            91.3233      
     24200   0.16812344     0.0042994053   0.0042994053   0              0              1836.5333      4189.4983     -516.68199      0              179.90451      0              0              9.375097       9.7350976      0.2            91.267484    
     24300   0.22145026     0.0043322955   0.0043322955   0              0              1778.6489      3960.5568     -403.46064      0             -304.10453      0              0              9.3741365      9.74274        0.2            91.329775    
     24400   0.19447676     0.0043482268   0.0043482268   0              0              2165.0245      4239.9623      89.898136      0             -79.847667      0              0              9.3731759      9.7386469      0.2            91.28205     
     24500   0.20399039     0.0044016338   0.0044016338   0              0              2187.4818      3673.6962      701.04995      0              386.51028      0              0              9.3722154      9.7354647      0.2            91.242872    
     24600   0.19717189     0.004648665    0.004648665    0              0              2449.8074      4349.5167      549.94068      0             -762.19538      0              0              9.3712548      9.7336589      0.2            91.216598    
     24700   0.1734633      0.0044458336   0.0044458336   0              0              1428.2931      3281.717      -425.3516       0             -720.73094      0              0              9.3702942      9.7347557      0.2            91.217525    
     24800   0.23831377     0.0044897164   0.0044897164   0              0              1452.9497      3867.3942     -961.69073      0              239.97459      0              0              9.3693337      9.7364485      0.2            91.224035    
     24900   0.21016501     0.0045681683   0.0045681683   0              0              2382.67        5135.1184     -369.97392      0             -420.58005      0              0              9.3683731      9.7306522      0.2            91.160381    
     25000   0.20393435     0.0047858625   0.0047858625   0              0              3231.4113      5815.0012      647.64355      0             -598.47219      0              0              9.3674126      9.7261009      0.2            91.1084      
     25100   0.22482705     0.0046387705   0.0046387705   0              0              2732.937       4475.6295      990.02404      0              626.40376      0              0              9.366452       9.7301636      0.2            91.137111    
     25200   0.16513669     0.0045228227   0.0045228227   0              0              2495.2563      4906.3279      83.965276      0              491.70209      0              0              9.3654915      9.7310567      0.2            91.136128    
     25300   0.20647464     0.0046178285   0.0046178285   0              0              2393.9425      5753.5713     -965.94458      0             -167.34079      0              0              9.3645309      9.7347199      0.2            91.161085    
     25400   0.22864828     0.004558432    0.004558432    0              0              1618.7969      4268.8561     -1031.4746      0              643.10783      0              0              9.3635704      9.7387016      0.2            91.189018    
     25500   0.17891541     0.0045733456   0.0045733456   0              0              3018.1886      5846.3236      189.80726      0              152.3977       0              0              9.3626098      9.7328434      0.2            91.124815    
     25600   0.18515528     0.0048292288   0.0048292288   0              0              3149.841       5063.4176      1236.0822      0              324.01372      0              0              9.3616492      9.7281012      0.2            91.071071    
     25700   0.19785278     0.0047681159   0.0047681159   0              0              2992.7049      5322.2297      662.90146      0              145.18715      0              0              9.3606887      9.7337744      0.2            91.114832    
     25800   0.21676719     0.0045020277   0.0045020277   0              0              1700.7547      4357.9159     -956.62124      0              1381.4053      0              0              9.3597281      9.7392683      0.2            91.156904    
     25900   0.2122797      0.0050014753   0.0050014753   0              0              1923.1609      5045.8008     -1199.6844      0              777.36649      0              0              9.3587676      9.7370556      0.2            91.12684     
     26000   0.23657965     0.0048393303   0.0048393303   0              0              2353.8141      4593.2885      114.09728      0              339.48759      0              0              9.357807       9.7373402      0.2            91.12015     
     26100   0.25408989     0.0046732886   0.0046732886   0              0              3040.1278      4906.6726      1173.386       0              341.40457      0              0              9.3568465      9.7289988      0.2            91.032748    
     26200   0.2074545      0.0050490122   0.0050490122   0              0              2524.5546      4377.7914      671.10547      0             -188.16758      0              0              9.3558859      9.7246697      0.2            90.9829      
     26300   0.24398733     0.0049398807   0.0049398807   0              0              1522.7935      3575.2761     -529.88098      0              620.21459      0              0              9.3549254      9.7377021      0.2            91.095476    
     26400   0.21428635     0.0049272578   0.0049272578   0              0              1633.5102      4217.2461     -950.44613      0              46.692553      0              0              9.3539648      9.7333885      0.2            91.045774    
     26500   0.21051508     0.0047808984   0.0047808984   0              0              2083.9767      4411.0459     -243.26148      0              180.42211      0              0              9.3530043      9.734946       0.2            91.050991    
     26600   0.23277036     0.0046066874   0.0046066874   0              0              2789.3194      4975.0817      603.32059      0              590.38641      0              0              9.3520437      9.7259773      0.2            90.957765    
     26700   0.21141566     0.0049416965   0.0049416965   0              0              2889.9502      5192.551       587.08101      0              785.28632      0              0              9.3510831      9.7263729      0.2            90.952122    
     26800   0.22931922     0.0047658024   0.0047658024   0              0              2066.4715      4351.5175     -218.76328      0             -69.907748      0              0              9.3501226      9.7303982      0.2            90.980416    
     26900   0.18481587     0.0048431376   0.0048431376   0              0              1733.067       4015.7325     -549.79882      0             -315.65818      0              0              9.349162       9.7338851      0.2            91.003669    
     27000   0.1699943      0.0048421694   0.0048421694   0              0              2202.9644      4664.2942     -258.61281      0              416.28024      0              0              9.3482015      9.7355802      0.2            91.010165    
     27100   0.18559452     0.0053447281   0.0053447281   0              0              2078.0848      3806.4935      349.47327      0              174.01465      0              0              9.3472409      9.738972       0.2            91.032517    
     27200   0.19236314     0.0053524873   0.0053524873   0              0              2461.1259      4562.1721      359.87263      0              1400.9753      0              0              9.3462804      9.7405148      0.2            91.037582    
     27300   0.17756881     0.005201668    0.005201668    0              0              2449.2045      5033.6909     -135.48563      0              253.63588      0              0              9.3453198      9.7423348      0.2            91.045235    
     27400   0.21512441     0.0051201461   0.0051201461   0              0              2939.6105      6140.2748     -261.28703      0              373.12479      0              0              9.3443593      9.7404168      0.2            91.017954    
     27500   0.23891393     0.0050572335   0.0050572335   0              0              2601.726       5357.9863     -154.74496      0             -233.95059      0              0              9.3433987      9.7380058      0.2            90.986071    
     27600   0.20993148     0.0052407193   0.0052407193   0              0              3328.5331      6490.5652      166.30088      0              275.06122      0              0              9.3424381      9.7390954      0.2            90.986896    
     27700   0.16859667     0.0055220447   0.0055220447   0              0              2809.8074      5299.2854      320.11         0              952.05939      0              0              9.3414776      9.7356518      0.2            90.945373    
     27800   0.22620116     0.0054430361   0.0054430361   0              0              2966.3582      5853.4138      79.084004      0              152.30927      0              0              9.340517       9.7421512      0.2            90.996729    
     27900   0.22175097     0.0051803964   0.0051803964   0              0              2320.4872      4810.4687     -169.71122      0             -586.8492       0              0              9.3395565      9.741495       0.2            90.981243    
     28000   0.19775093     0.0056846715   0.0056846715   0              0              2960.9977      6118.2073     -196.38958      0             -336.42898      0              0              9.3385959      9.7387001      0.2            90.945785    
[...]
     43000   0.21408303     0.0098642518   0.0098642518   0              0              4305.8424      8307.4817      304.01525      0              845.99213      0              0              9.1945126      9.776831       0.2            89.893196    
     43100   0.22245512     0.010288162    0.010288162    0              0              4102.7454      7672.2186      533.04775      0              719.33654      0              0              9.1935521      9.7791723      0.2            89.90533     
     43200   0.22228878     0.0099711845   0.0099711845   0              0              3050.6436      6627.1799     -526.13492      0              741.57644      0              0              9.1925915      9.7798539      0.2            89.902202    
     43300   0.20050364     0.010143643    0.010143643    0              0              3209.9227      6789.8638     -370.22126      0              587.03169      0              0              9.191631       9.7817903      0.2            89.910606    
     43400   0.20827854     0.01016953     0.01016953     0              0              3662.5979      6763.7746      561.18373      0              866.35844      0              0              9.1906704      9.77178        0.2            89.809209    
     43500   0.23496464     0.010284275    0.010284275    0              0              3259.896       6270.6763      248.91009      0              638.79153      0              0              9.1897098      9.7758108      0.2            89.836865    
     43600   0.22777588     0.010215023    0.010215023    0              0              3169.6505      6883.0921     -543.99018      0              1015.8279      0              0              9.1887493      9.7794341      0.2            89.860768    
     43700   0.26999177     0.010275558    0.010275558    0              0              3879.8963      7880.6704     -121.0823       0              1249.7537      0              0              9.1877887      9.7769429      0.2            89.828485    
     43800   0.23252546     0.010302946    0.010302946    0              0              4224.3436      7838.4664      609.99512      0              1132.2568      0              0              9.1868282      9.7755288      0.2            89.806103    
     43900   0.23182457     0.010266947    0.010266947    0              0              3479.559       7036.3639     -77.46727       0              829.22452      0              0              9.1858676      9.7785757      0.2            89.824702    
     44000   0.19838048     0.010379951    0.010379951    0              0              3115.0362      6759.8038     -529.95873      0              683.65279      0              0              9.1849071      9.7822014      0.2            89.848611    
     44100   0.23122046     0.010633515    0.010633515    0              0              3872.683       7451.8199      293.31567      0              623.78516      0              0              9.1839465      9.7766764      0.2            89.788473    
     44200   0.26375797     0.010600335    0.010600335    0              0              3717.72        6996.8879      438.35674      0              775.01328      0              0              9.182986       9.7808617      0.2            89.817515    
     44300   0.20017858     0.010772271    0.010772271    0              0              3062.5894      6520.658      -395.71238      0              843.93057      0              0              9.1820254      9.7858387      0.2            89.85382     
     44400   0.23622998     0.010593105    0.010593105    0              0              2845.2179      5965.2145     -274.97595      0              909.44697      0              0              9.1810648      9.7854282      0.2            89.840651    
     44500   0.23291654     0.010570007    0.010570007    0              0              3786.4134      6964.6766      607.96767      0              631.03087      0              0              9.1801043      9.7784359      0.2            89.767061    
     44600   0.2034411      0.010364881    0.010364881    0              0              3389.626       6613.0521      165.96436      0              591.1674       0              0              9.1791437      9.7809351      0.2            89.78061     
     44700   0.21056474     0.010545104    0.010545104    0              0              3059.1618      6743.4368     -625.35607      0              880.93821      0              0              9.1781832      9.7820553      0.2            89.781496    
     44800   0.18835856     0.010607871    0.010607871    0              0              3563.9904      7075.287       52.483565      0             -204.39011      0              0              9.1772226      9.7827982      0.2            89.778917    
     44900   0.15374617     0.01096448     0.01096448     0              0              4152.0491      7693.2747      610.595        0              559.46049      0              0              9.1762621      9.7767134      0.2            89.713685    
     45000   0.20232412     0.010853088    0.010853088    0              0              3043.0605      6360.4301     -274.5384       0             -102.86466      0              0              9.1753015      9.7778359      0.2            89.714593    
     45100   0.23679618     0.011098722    0.011098722    0              0              2899.2804      6233.7434     -435.37463      0              587.6395       0              0              9.174341       9.7837538      0.2            89.759493    
     45200   0.21357892     0.010994183    0.010994183    0              0              4018.1653      7575.2009      460.91086      0              146.88483      0              0              9.1733804      9.7792887      0.2            89.709135    
     45300   0.21353984     0.010770074    0.010770074    0              0              3649.9338      6893.3634      406.287        0              252.28518      0              0              9.1724198      9.7782275      0.2            89.690008    
     45400   0.1952852      0.011074625    0.011074625    0              0              3424.7209      7452.5356     -603.25731      0              1214.6383      0              0              9.1714593      9.7838673      0.2            89.732341    
     45500   0.18497935     0.011259537    0.011259537    0              0              3328.6887      6838.1842     -181.03408      0              337.83059      0              0              9.1704987      9.7822667      0.2            89.708264    
     45600   0.20382127     0.01091255     0.01091255     0              0              3818.1566      7042.1306      594.00866      0              377.84089      0              0              9.1695382      9.7816966      0.2            89.693641    
     45700   0.23351143     0.01133221     0.01133221     0              0              4059.5548      8266.5845     -147.68579      0              419.06878      0              0              9.1685776      9.7795561      0.2            89.664619    
     45800   0.27633044     0.01134473     0.01134473     0              0              3362.4088      7312.5748     -587.96358      0              935.20421      0              0              9.1676171      9.7911131      0.2            89.761175    
     45900   0.19906639     0.011430571    0.011430571    0              0              4096.9245      7773.3888      420.23677      0              1336.0537      0              0              9.1666565      9.7784405      0.2            89.635606    
     46000   0.22509146     0.011204176    0.011204176    0              0              3477.3897      6665.6343      288.94054      0              826.2407       0              0              9.165696       9.7798515      0.2            89.639146    
     46100   0.16693957     0.011100907    0.011100907    0              0              3704.9406      7917.7884     -508.10443      0              948.74893      0              0              9.1647354      9.7873349      0.2            89.698335    
     46200   0.18587226     0.011039324    0.011039324    0              0              3688.5487      7375.1326      1.7122662      0              1062.2231      0              0              9.1637748      9.7841251      0.2            89.659519    
     46300   0.19098183     0.011364073    0.011364073    0              0              3846.0088      7157.9509      533.86718      0              1116.0477      0              0              9.1628143      9.7803826      0.2            89.61583     
     46400   0.19919199     0.01152314     0.01152314     0              0              3300.029       6806.2709     -206.43022      0              733.35215      0              0              9.1618537      9.7885328      0.2            89.681106    
     46500   0.24224717     0.011705425    0.011705425    0              0              3430.0695      7302.5009     -442.62625      0              1680.0696      0              0              9.1608932      9.7928801      0.2            89.711528    
     46600   0.23180458     0.011587754    0.011587754    0              0              3936.5758      7722.0915      150.86636      0              987.32145      0              0              9.1599326      9.7909576      0.2            89.684512    
     46700   0.20389835     0.011669548    0.011669548    0              0              3699.9375      7112.5901      287.04389      0              1202.4368      0              0              9.1589721      9.7923835      0.2            89.688167    
     46800   0.19841196     0.01155156     0.01155156     0              0              2928.1285      6052.4409     -196.37302      0              991.58024      0              0              9.1580115      9.788999       0.2            89.647766    
     46900   0.21144728     0.011702253    0.011702253    0              0              3078.4753      6308.3784     -151.65884      0              119.52336      0              0              9.157051       9.7907223      0.2            89.654143    
     47000   0.22822512     0.011539386    0.011539386    0              0              3210.8124      6209.2079      212.21393      0              810.03775      0              0              9.1560904      9.7869438      0.2            89.610143    
     47100   0.20977343     0.011632652    0.011632652    0              0              3196.3654      6323.7476      68.77266       0              1086.5441      0              0              9.1551298      9.7852342      0.2            89.58509     
     47200   0.22648101     0.01182597     0.01182597     0              0              3829.6441      7833.9624     -174.90898      0              1392.6516      0              0              9.1541693      9.7883958      0.2            89.604632    
     47300   0.2075023      0.011864344    0.011864344    0              0              3420.2282      6696.3285      143.93033      0              624.13985      0              0              9.1532087      9.7859144      0.2            89.572518    
     47400   0.1639164      0.011876874    0.011876874    0              0              3479.7088      6772.541       186.66351      0              166.8599       0              0              9.1522482      9.7863205      0.2            89.566834    
     47500   0.18522526     0.011797229    0.011797229    0              0              3416.4146      6987.2518     -154.65538      0              502.40203      0              0              9.1512876      9.7916727      0.2            89.606413    
     47600   0.2065271      0.01181697     0.01181697     0              0              3362.7749      6843.0063     -117.68195      0              140.46472      0              0              9.1503271      9.7946668      0.2            89.624405    
     47700   0.20317069     0.012006568    0.012006568    0              0              3579.5182      6828.834       330.01614      0              747.07275      0              0              9.1493665      9.7856492      0.2            89.532491    
     47800   0.22412202     0.011971419    0.011971419    0              0              2816.7998      5708.9828     -75.575513      0              684.29214      0              0              9.148406       9.7849239      0.2            89.516456    
     47900   0.1991406      0.012053098    0.012053098    0              0              2735.5313      5763.2684     -292.43672      0              1094.5863      0              0              9.1474454      9.7900884      0.2            89.554299    
     48000   0.23585353     0.012434972    0.012434972    0              0              3187.5535      6147.4948      227.41424      0              91.0609        0              0              9.1464849      9.7823697      0.2            89.474296    
     48100   0.22810426     0.012117071    0.012117071    0              0              3774.3338      7492.4804      55.963203      0              1183.1056      0              0              9.1455243      9.7828378      0.2            89.46918     
     48200   0.21589408     0.012090789    0.012090789    0              0              3034.5705      6292.5474     -223.63828      0              1024.6087      0              0              9.1445637      9.7778544      0.2            89.414212    
     48300   0.18650665     0.011934313    0.011934313    0              0              3652.9678      7205.4469      100.26958      0              1225.2156      0              0              9.1436032      9.7818052      0.2            89.440945    
     48400   0.19684168     0.012263844    0.012263844    0              0              3505.8063      6941.3097      70.112719      0              27.081986      0              0              9.1426426      9.7881013      0.2            89.489112    
     48500   0.19824401     0.012262393    0.012262393    0              0              3536.45        7270.0352     -197.31288      0              895.64482      0              0              9.1416821      9.7908574      0.2            89.504906    
     48600   0.17525212     0.012248633    0.012248633    0              0              3415.8398      6743.4375      88.050776      0             -241.07624      0              0              9.1407215      9.7862544      0.2            89.453426    
     48700   0.2676841      0.012157652    0.012157652    0              0              3987.7965      7751.38        223.99018      0              820.14516      0              0              9.139761       9.788095       0.2            89.460848    
     48800   0.17381001     0.012360801    0.012360801    0              0              3731.959       7675.6286     -211.9406       0              180.4489       0              0              9.1388004      9.790056       0.2            89.469368    
     48900   0.23037698     0.012483645    0.012483645    0              0              3887.3136      7956.1133     -181.69198      0              293.71338      0              0              9.1378399      9.7874985      0.2            89.436594    
     49000   0.18968647     0.012554493    0.012554493    0              0              3576.8568      6748.396       405.07156      0              367.67969      0              0              9.1368793      9.7846252      0.2            89.400939    
     49100   0.20775857     0.012413233    0.012413233    0              0              3231.6217      6585.7613     -122.69289      0             -100.10713      0              0              9.1359187      9.783918       0.2            89.385079    
     49200   0.18477108     0.012384618    0.012384618    0              0              3314.906       7134.3778     -504.80398      0              684.38041      0              0              9.1349582      9.7942599      0.2            89.470154    
     49300   0.21772066     0.012676388    0.012676388    0              0              3737.9072      7066.2285      409.36345      0              1178.5676      0              0              9.1339976      9.7913402      0.2            89.434078    
     49400   0.24107923     0.012566383    0.012566383    0              0              3796.8556      7389.5268      203.95252      0              518.74242      0              0              9.1330371      9.7867029      0.2            89.38232     
     49500   0.20806539     0.012496814    0.012496814    0              0              3134.2527      6851.761      -583.48928      0              100.23551      0              0              9.1320765      9.7855414      0.2            89.362313    
     49600   0.19640388     0.012552944    0.012552944    0              0              3805.1821      7408.5639      201.59095      0              1064.0426      0              0              9.131116       9.7803871      0.2            89.305849    
     49700   0.22156455     0.012525887    0.012525887    0              0              3367.1112      6367.2659      366.70171      0              1241.1152      0              0              9.1301554      9.7896808      0.2            89.381307    
     49800   0.1927628      0.012590575    0.012590575    0              0              3155.1443      6624.9188     -314.83716      0              898.314        0              0              9.1291949      9.7945301      0.2            89.416174    
     49900   0.23940952     0.012642886    0.012642886    0              0              3197.594       6587.7015     -192.73003      0              696.59722      0              0              9.1282343      9.7878066      0.2            89.345392    
     50000   0.21548029     0.012762753    0.012762753    0              0              3417.5175      6468.1557      366.69002      0              864.78224      0              0              9.1272737      9.7913535      0.2            89.368364    
     50100   0.19513434     0.012694813    0.012694813    0              0              3471.0433      7023.6356     -81.704417      0              845.21534      0              0              9.1263132      9.7920847      0.2            89.365632    
     50200   0.17732392     0.013117543    0.013117543    0              0              3884.9992      7962.9211     -193.16373      0              1200.1299      0              0              9.1253526      9.7917792      0.2            89.353438    
     50208   0.15892349     0.013180474    0.013180474    0              0              4151.3229      8208.5293      93.892766      0              1101.0676      0              0              9.1252758      9.7898394      0.2            89.334984    
Loop time of 1.27369 on 1 procs for 50000 steps with 70 atoms

Performance: 33917.178 ns/day, 0.001 hours/ns, 39255.992 timesteps/s
99.2% CPU use with 1 MPI tasks x 1 OpenMP threads

MPI task timing breakdown:
Section |  min time  |  avg time  |  max time  |%varavg| %total
---------------------------------------------------------------
Pair    | 0          | 0          | 0          |   0.0 |  0.00
Bond    | 0.19623    | 0.19623    | 0.19623    |   0.0 | 15.41
Neigh   | 0          | 0          | 0          |   0.0 |  0.00
Comm    | 0.4372     | 0.4372     | 0.4372     |   0.0 | 34.33
Output  | 0.0096224  | 0.0096224  | 0.0096224  |   0.0 |  0.76
Modify  | 0.60129    | 0.60129    | 0.60129    |   0.0 | 47.21
Other   |            | 0.02934    |            |       |  2.30

Nlocal:             70 ave          70 max          70 min
Histogram: 1 0 0 0 0 0 0 0 0 0
Nghost:            594 ave         594 max         594 min
Histogram: 1 0 0 0 0 0 0 0 0 0
Neighs:              0 ave           0 max           0 min
Histogram: 1 0 0 0 0 0 0 0 0 0

Total # of neighbors = 0
Ave neighs/atom = 0
Ave special neighs/atom = 25.885714
Neighbor list builds = 0
Dangerous builds = 0


Total wall time: 0:00:01
