ITEM: TIMESTEP
250
ITEM: NUMBER OF ATOMS
27
ITEM: BOX BOUNDS pp pp pp
-4.8158004673263877e+00 4.8158004673263877e+00
-4.8128097146658924e+00 4.8128097146658924e+00
-1.0000000000000001e-01 1.0000000000000001e-01
ITEM: ATOMS id type xs ys zs
15 1 0.117067 0.00679188 0.499925
53 1 0.201286 0.110745 0.499893
20 1 0.268212 0.994463 0.498504
14 1 0.428497 0.0358449 0.501496
47 1 0.112024 0.138493 0.499349
12 1 0.308079 0.139352 0.500332
37 1 0.0690892 0.262358 0.498349
30 1 0.162146 0.352603 0.500869
40 1 0.182905 0.224238 0.499547
50 1 0.271436 0.287238 0.497913
61 1 0.336922 0.249193 0.49901
41 1 0.408013 0.229127 0.499666
34 1 0.0447294 0.379021 0.500796
22 1 0.26839 0.402254 0.50093
44 1 0.386782 0.319027 0.500715
28 1 0.140168 0.46716 0.50066
23 1 0.289657 0.503677 0.499823
36 1 0.388825 0.434679 0.499741
10 1 0.179442 0.607022 0.499929
38 1 0.32947 0.622902 0.500227
16 1 0.0905404 0.72994 0.500983
9 1 0.243881 0.730655 0.500661
13 1 0.396122 0.744926 0.499351
32 1 0.32088 0.867093 0.500822
26 1 0.45226 0.87995 0.499526
18 1 0.179317 0.857613 0.499849
71 1 0.366961 0.935216 0.501275
ITEM: TIMESTEP
500
ITEM: NUMBER OF ATOMS
27
ITEM: BOX BOUNDS pp pp pp
-4.8145962956419659e+00 4.8145962956419659e+00
-4.8165244100649351e+00 4.8165244100649351e+00
-1.0000000000000001e-01 1.0000000000000001e-01
ITEM: ATOMS id type xs ys zs
15 1 0.117214 0.00803804 0.501174
53 1 0.200415 0.11166 0.49873
20 1 0.26859 0.995277 0.499303
14 1 0.428813 0.0355084 0.502537
47 1 0.111527 0.139847 0.499353
12 1 0.308142 0.139126 0.500522
37 1 0.0708356 0.262293 0.499239
30 1 0.163215 0.353628 0.49997
40 1 0.18399 0.224744 0.49955
50 1 0.272421 0.28785 0.49817
61 1 0.337379 0.249146 0.499062
41 1 0.408618 0.228444 0.498389
34 1 0.0456442 0.378811 0.501281
22 1 0.268698 0.402689 0.500951
44 1 0.387584 0.318603 0.500596
28 1 0.139558 0.467712 0.50111
23 1 0.289323 0.50413 0.500172
36 1 0.389307 0.433842 0.499841
10 1 0.178603 0.607001 0.500268
38 1 0.329205 0.623855 0.499873
16 1 0.090618 0.731075 0.501267
9 1 0.243306 0.731139 0.499888
13 1 0.395988 0.745119 0.501142
32 1 0.321136 0.867853 0.502807
26 1 0.452817 0.88026 0.501612
18 1 0.179642 0.858198 0.500954
71 1 0.36691 0.935438 0.501937
ITEM: TIMESTEP
750
ITEM: NUMBER OF ATOMS
27
ITEM: BOX BOUNDS pp pp pp
-4.8133921239575441e+00 4.8133921239575441e+00
-4.8091626357642232e+00 4.8091626357642232e+00
-1.0000000000000001e-01 1.0000000000000001e-01
ITEM: ATOMS id type xs ys zs
15 1 0.116546 0.00776568 0.502246
53 1 0.201227 0.110874 0.497663
20 1 0.268263 0.996558 0.499207
14 1 0.429197 0.0364314 0.502313
47 1 0.112027 0.139986 0.501199
12 1 0.308824 0.139002 0.501576
37 1 0.0703382 0.261038 0.498287
30 1 0.162052 0.352484 0.498141
40 1 0.184372 0.224831 0.499786
50 1 0.272808 0.288123 0.497841
61 1 0.33756 0.248652 0.499348
41 1 0.409016 0.228819 0.498687
34 1 0.0444114 0.377883 0.501439
22 1 0.268623 0.403236 0.500928
44 1 0.388828 0.318106 0.500727
28 1 0.139082 0.468105 0.49955
23 1 0.289113 0.503987 0.503935
36 1 0.389065 0.433807 0.500624
10 1 0.180341 0.607916 0.500969
38 1 0.328852 0.623662 0.498708
16 1 0.0912923 0.731202 0.501952
9 1 0.244612 0.731747 0.499002
13 1 0.395645 0.745833 0.501653
32 1 0.321292 0.868446 0.502394
26 1 0.452332 0.880662 0.502005
18 1 0.180024 0.858893 0.499285
71 1 0.366735 0.93671 0.500093
ITEM: TIMESTEP
1000
ITEM: NUMBER OF ATOMS
27
ITEM: BOX BOUNDS pp pp pp
-4.8121879522731232e+00 4.8121879522731232e+00
-4.8060342669206406e+00 4.8060342669206406e+00
-1.0000000000000001e-01 1.0000000000000001e-01
ITEM: ATOMS id type xs ys zs
15 1 0.117911 0.00688333 0.501823
53 1 0.201653 0.110771 0.49786
20 1 0.268912 0.996154 0.501357
14 1 0.429737 0.0363554 0.500547
47 1 0.112138 0.138945 0.499739
12 1 0.309523 0.139324 0.50139
37 1 0.069965 0.261966 0.499981
30 1 0.161946 0.353715 0.498556
40 1 0.184343 0.225289 0.499875
50 1 0.273395 0.288087 0.498597
61 1 0.337912 0.248816 0.500721
41 1 0.409174 0.229149 0.498309
34 1 0.0438559 0.378591 0.501248
22 1 0.268032 0.403465 0.502041
44 1 0.388457 0.318723 0.499345
28 1 0.137983 0.468458 0.500341
23 1 0.289317 0.504588 0.503248
36 1 0.388419 0.434191 0.499651
10 1 0.180034 0.607329 0.50199
38 1 0.329656 0.624001 0.499957
16 1 0.0911122 0.730581 0.503041
9 1 0.244091 0.730942 0.497236
13 1 0.396947 0.746331 0.501733
32 1 0.321718 0.868432 0.503229
26 1 0.453582 0.881681 0.501039
18 1 0.180093 0.858466 0.49792
71 1 0.367407 0.936429 0.500224
ITEM: TIMESTEP
1250
ITEM: NUMBER OF ATOMS
27
ITEM: BOX BOUNDS pp pp pp
-4.8109837805887015e+00 4.8109837805887015e+00
-4.7996677821233815e+00 4.7996677821233815e+00
-1.0000000000000001e-01 1.0000000000000001e-01
ITEM: ATOMS id type xs ys zs
15 1 0.118941 0.0067883 0.500201
53 1 0.202559 0.111245 0.498479
20 1 0.27033 0.996494 0.501345
14 1 0.43037 0.0365847 0.499851
47 1 0.113031 0.138872 0.500469
12 1 0.309648 0.139237 0.502247
37 1 0.0701784 0.261272 0.500595
30 1 0.16228 0.353439 0.497299
40 1 0.184605 0.225547 0.501361
50 1 0.274044 0.28733 0.497818
61 1 0.338842 0.248624 0.500675
41 1 0.410289 0.229204 0.49968
34 1 0.0443686 0.377833 0.499599
22 1 0.268046 0.403054 0.501925
44 1 0.388268 0.319144 0.498193
28 1 0.138183 0.468402 0.499433
23 1 0.28884 0.504137 0.504089
36 1 0.389111 0.434879 0.497624
10 1 0.180272 0.607859 0.503669
38 1 0.329683 0.623363 0.499103
16 1 0.0912758 0.731508 0.502731
9 1 0.244326 0.732494 0.499443
13 1 0.396843 0.745671 0.503134
32 1 0.322394 0.868287 0.503453
26 1 0.45415 0.880884 0.501039
18 1 0.18025 0.860082 0.497917
71 1 0.368614 0.93626 0.500333
ITEM: TIMESTEP
1500
ITEM: NUMBER OF ATOMS
27
ITEM: BOX BOUNDS pp pp pp
-4.8097796089042797e+00 4.8097796089042797e+00
-4.7950412766594495e+00 4.7950412766594495e+00
-1.0000000000000001e-01 1.0000000000000001e-01
ITEM: ATOMS id type xs ys zs
15 1 0.118886 0.00632272 0.500442
53 1 0.203035 0.11054 0.498737
20 1 0.270412 0.997181 0.50241
14 1 0.431113 0.0357324 0.498754
47 1 0.113777 0.138387 0.498385
12 1 0.310475 0.139493 0.501396
37 1 0.0702489 0.261374 0.498785
30 1 0.161601 0.353324 0.500596
40 1 0.184684 0.224598 0.500019
50 1 0.273563 0.287152 0.497732
61 1 0.339185 0.249303 0.500106
41 1 0.410662 0.229437 0.497581
34 1 0.043992 0.378619 0.499173
22 1 0.26775 0.403123 0.500732
44 1 0.389967 0.319355 0.500021
28 1 0.138238 0.468417 0.501191
23 1 0.288056 0.504523 0.504581
36 1 0.388298 0.43484 0.498607
10 1 0.179535 0.608002 0.503602
38 1 0.329892 0.623613 0.50082
16 1 0.090841 0.732166 0.502878
9 1 0.244634 0.732656 0.498224
13 1 0.397343 0.745547 0.504033
32 1 0.321965 0.868119 0.50281
26 1 0.453961 0.880354 0.500073
18 1 0.180146 0.859993 0.497918
71 1 0.36833 0.93589 0.501494
ITEM: TIMESTEP
1750
ITEM: NUMBER OF ATOMS
27
ITEM: BOX BOUNDS pp pp pp
-4.8085754372198579e+00 4.8085754372198579e+00
-4.8019347296948851e+00 4.8019347296948851e+00
-1.0000000000000001e-01 1.0000000000000001e-01
ITEM: ATOMS id type xs ys zs
15 1 0.119667 0.00638243 0.499736
53 1 0.203767 0.110038 0.498386
20 1 0.270664 0.996212 0.500332
14 1 0.431164 0.0365959 0.497437
47 1 0.114408 0.137362 0.499232
12 1 0.311469 0.14022 0.499737
37 1 0.0712491 0.261593 0.498217
30 1 0.163083 0.353333 0.49962
40 1 0.184864 0.224265 0.500006
50 1 0.274231 0.287002 0.497709
61 1 0.340455 0.250228 0.500712
41 1 0.411735 0.22903 0.497534
34 1 0.0447536 0.378201 0.500543
22 1 0.268713 0.402384 0.501143
44 1 0.391933 0.319646 0.501109
28 1 0.13933 0.467887 0.500559
23 1 0.288658 0.504124 0.505749
36 1 0.389091 0.435024 0.497732
10 1 0.177489 0.607734 0.505265
38 1 0.328984 0.623355 0.502517
16 1 0.0899251 0.732149 0.504148
9 1 0.24325 0.73159 0.498693
13 1 0.395782 0.745392 0.505958
32 1 0.322543 0.868493 0.502076
26 1 0.454563 0.879848 0.501873
18 1 0.180368 0.859519 0.49783
71 1 0.369099 0.936224 0.50027
ITEM: TIMESTEP
2000
ITEM: NUMBER OF ATOMS
27
ITEM: BOX BOUNDS pp pp pp
-4.8073712655354370e+00 4.8073712655354370e+00
-4.8014189513552124e+00 4.8014189513552124e+00
-1.0000000000000001e-01 1.0000000000000001e-01
ITEM: ATOMS id type xs ys zs
15 1 0.119334 0.00565036 0.499903
53 1 0.203346 0.110023 0.49739
20 1 0.270461 0.996444 0.500156
14 1 0.430888 0.0368682 0.497691
47 1 0.113737 0.137578 0.498784
12 1 0.310761 0.140255 0.499521
37 1 0.0702113 0.261629 0.499235
30 1 0.162734 0.352506 0.498932
40 1 0.184827 0.223966 0.499557
50 1 0.273918 0.286155 0.497943
61 1 0.340604 0.249984 0.499406
41 1 0.411867 0.229139 0.497866
34 1 0.0446062 0.378835 0.500778
22 1 0.269048 0.401685 0.501089
44 1 0.392061 0.319071 0.502575
28 1 0.139717 0.467353 0.502266
23 1 0.288812 0.503475 0.503745
36 1 0.389226 0.434238 0.498808
10 1 0.179292 0.607861 0.505771
38 1 0.328491 0.623177 0.501636
16 1 0.0902577 0.731993 0.50397
9 1 0.243697 0.731945 0.497802
13 1 0.396302 0.74544 0.506625
32 1 0.322543 0.867847 0.503488
26 1 0.454266 0.880302 0.500536
18 1 0.179691 0.860022 0.497785
71 1 0.368832 0.936524 0.499862
ITEM: TIMESTEP
2250
ITEM: NUMBER OF ATOMS
27
ITEM: BOX BOUNDS pp pp pp
-4.8061670938510153e+00 4.8061670938510153e+00
-4.8054058307432141e+00 4.8054058307432141e+00
-1.0000000000000001e-01 1.0000000000000001e-01
ITEM: ATOMS id type xs ys zs
15 1 0.118396 0.00699389 0.498256
53 1 0.203031 0.110501 0.497804
20 1 0.270141 0.996894 0.499557
14 1 0.429886 0.0366584 0.49645
47 1 0.11371 0.137956 0.498027
12 1 0.309938 0.141026 0.49954
37 1 0.0700339 0.261905 0.498096
30 1 0.163217 0.352959 0.497549
40 1 0.184196 0.224692 0.499596
50 1 0.273935 0.286517 0.497882
61 1 0.340403 0.250249 0.498601
41 1 0.411517 0.229016 0.498191
34 1 0.0451726 0.378487 0.50127
22 1 0.269814 0.401997 0.502548
44 1 0.392774 0.318802 0.502253
28 1 0.139294 0.467623 0.50193
23 1 0.289631 0.503742 0.502589
36 1 0.390104 0.434516 0.497095
10 1 0.1785 0.608235 0.505727
38 1 0.328644 0.623514 0.50197
16 1 0.0902173 0.732684 0.501515
9 1 0.242911 0.73193 0.499083
13 1 0.395478 0.745792 0.509085
32 1 0.321556 0.86866 0.503289
26 1 0.453358 0.879827 0.500769
18 1 0.179566 0.860111 0.499156
71 1 0.368409 0.936068 0.502075
ITEM: TIMESTEP
2500
ITEM: NUMBER OF ATOMS
27
ITEM: BOX BOUNDS pp pp pp
-4.8049629221665935e+00 4.8049629221665935e+00
-4.8074359418240382e+00 4.8074359418240382e+00
-1.0000000000000001e-01 1.0000000000000001e-01
ITEM: ATOMS id type xs ys zs
15 1 0.117714 0.00619921 0.502111
53 1 0.202514 0.109911 0.498768
20 1 0.269344 0.996087 0.49933
14 1 0.430143 0.0367621 0.498789
47 1 0.112861 0.138006 0.499569
12 1 0.309351 0.141048 0.499643
37 1 0.0710665 0.261826 0.498571
30 1 0.162639 0.352863 0.497906
40 1 0.185054 0.22394 0.49975
50 1 0.273824 0.286853 0.499266
61 1 0.340091 0.250392 0.496992
41 1 0.410803 0.22928 0.497971
34 1 0.0441817 0.378178 0.498517
22 1 0.268952 0.401967 0.503309
44 1 0.39209 0.319376 0.502801
28 1 0.138104 0.467612 0.503556
23 1 0.289311 0.503286 0.502008
36 1 0.389943 0.434344 0.497828
10 1 0.177278 0.60743 0.506192
38 1 0.329494 0.622888 0.503177
16 1 0.090171 0.731733 0.501822
9 1 0.243205 0.730166 0.498032
13 1 0.396358 0.745255 0.508519
32 1 0.322181 0.868247 0.503552
26 1 0.453776 0.880048 0.501608
18 1 0.180039 0.858035 0.498013
71 1 0.36808 0.936378 0.500021
ITEM: TIMESTEP
2750
ITEM: NUMBER OF ATOMS
27
ITEM: BOX BOUNDS pp pp pp
-4.8037587504821726e+00 4.8037587504821726e+00
-4.8104423771061082e+00 4.8104423771061082e+00
-1.0000000000000001e-01 1.0000000000000001e-01
ITEM: ATOMS id type xs ys zs
15 1 0.117885 0.0065437 0.501277
53 1 0.201929 0.110135 0.497383
20 1 0.269564 0.996355 0.499848
14 1 0.430111 0.0373434 0.499373
47 1 0.112141 0.138213 0.499367
12 1 0.309651 0.140742 0.502391
37 1 0.0705326 0.26065 0.497965
30 1 0.162497 0.352377 0.496453
40 1 0.18405 0.223836 0.500506
50 1 0.27306 0.286922 0.497732
61 1 0.339513 0.250711 0.497554
41 1 0.410791 0.229445 0.498216
34 1 0.0446107 0.377588 0.499727
22 1 0.269084 0.401504 0.503328
44 1 0.391701 0.319901 0.502044
28 1 0.139257 0.466724 0.503108
23 1 0.289702 0.503071 0.503218
36 1 0.39005 0.435099 0.497877
10 1 0.177086 0.607028 0.507951
38 1 0.329807 0.622244 0.502288
16 1 0.0892971 0.731536 0.500773
9 1 0.243278 0.729209 0.499188
13 1 0.395944 0.744969 0.508215
32 1 0.322359 0.868727 0.504857
26 1 0.453578 0.879568 0.502107
18 1 0.181155 0.857749 0.50035
71 1 0.368414 0.936447 0.50138
ITEM: TIMESTEP
3000
ITEM: NUMBER OF ATOMS
27
ITEM: BOX BOUNDS pp pp pp
-4.8025545787977508e+00 4.8025545787977508e+00
-4.8092119213652396e+00 4.8092119213652396e+00
-1.0000000000000001e-01 1.0000000000000001e-01
ITEM: ATOMS id type xs ys zs
15 1 0.116797 0.00602723 0.499962
53 1 0.201642 0.109409 0.497914
20 1 0.268385 0.994903 0.498755
14 1 0.427551 0.0383385 0.498633
47 1 0.112647 0.137742 0.50131
12 1 0.307729 0.142576 0.502919
37 1 0.0695592 0.260211 0.496398
30 1 0.162125 0.351824 0.499227
40 1 0.184145 0.22341 0.500291
50 1 0.273063 0.287702 0.499366
61 1 0.339965 0.250838 0.49843
41 1 0.410369 0.228645 0.499645
34 1 0.044066 0.377304 0.499991
22 1 0.267514 0.402809 0.505337
44 1 0.39295 0.318932 0.501539
28 1 0.137702 0.466554 0.50461
23 1 0.288748 0.504152 0.503919
36 1 0.388615 0.434296 0.498621
10 1 0.176918 0.607509 0.509426
38 1 0.329502 0.623078 0.505767
16 1 0.0903853 0.731078 0.499283
9 1 0.243811 0.730368 0.497965
13 1 0.396074 0.745753 0.509447
32 1 0.322428 0.86828 0.506298
26 1 0.453558 0.880137 0.500744
18 1 0.180846 0.857522 0.502135
71 1 0.36792 0.936502 0.502072
ITEM: TIMESTEP
3250
ITEM: NUMBER OF ATOMS
27
ITEM: BOX BOUNDS pp pp pp
-4.8013504071133291e+00 4.8013504071133291e+00
-4.8129738417835988e+00 4.8129738417835988e+00
-1.0000000000000001e-01 1.0000000000000001e-01
ITEM: ATOMS id type xs ys zs
15 1 0.11684 0.0072734 0.501356
53 1 0.201487 0.110769 0.497569
20 1 0.268039 0.995367 0.500424
14 1 0.427932 0.0379974 0.495557
47 1 0.111727 0.138701 0.498449
12 1 0.307628 0.142738 0.505526
37 1 0.070237 0.260784 0.495241
30 1 0.162766 0.352056 0.497405
40 1 0.184381 0.223877 0.500947
50 1 0.273244 0.28704 0.499997
61 1 0.340368 0.25107 0.497096
41 1 0.411287 0.228584 0.500269
34 1 0.0444924 0.377285 0.500706
22 1 0.268376 0.402178 0.503521
44 1 0.39315 0.319189 0.501396
28 1 0.138425 0.46663 0.50213
23 1 0.288184 0.503758 0.50525
36 1 0.389506 0.435004 0.500089
10 1 0.178224 0.60705 0.51134
38 1 0.330403 0.623222 0.504939
16 1 0.0899827 0.730906 0.499494
9 1 0.243685 0.730648 0.496832
13 1 0.395985 0.745746 0.508982
32 1 0.321802 0.868068 0.50609
26 1 0.452764 0.880311 0.498936
18 1 0.179379 0.857887 0.502601
71 1 0.367568 0.936584 0.502561
ITEM: TIMESTEP
3500
ITEM: NUMBER OF ATOMS
27
ITEM: BOX BOUNDS pp pp pp
-4.8001462354289073e+00 4.8001462354289073e+00
-4.8051612079075223e+00 4.8051612079075223e+00
-1.0000000000000001e-01 1.0000000000000001e-01
ITEM: ATOMS id type xs ys zs
15 1 0.115895 0.006882 0.501193
53 1 0.20145 0.110031 0.497298
20 1 0.267464 0.995768 0.500582
14 1 0.427594 0.0377347 0.496766
47 1 0.112391 0.13863 0.497254
12 1 0.308203 0.142488 0.504607
37 1 0.070287 0.261665 0.496681
30 1 0.163216 0.352722 0.498566
40 1 0.184086 0.224255 0.50139
50 1 0.273768 0.286852 0.498337
61 1 0.340768 0.251179 0.496378
41 1 0.411806 0.228979 0.501365
34 1 0.0455347 0.378732 0.500477
22 1 0.269412 0.401484 0.503125
44 1 0.393049 0.319482 0.500311
28 1 0.139699 0.467533 0.50083
23 1 0.288798 0.503495 0.504301
36 1 0.389818 0.434762 0.500947
10 1 0.180113 0.607215 0.510803
38 1 0.33035 0.622998 0.504365
16 1 0.0903843 0.72986 0.499499
9 1 0.243816 0.730881 0.498267
13 1 0.396431 0.745968 0.509779
32 1 0.32121 0.86805 0.505868
26 1 0.452794 0.881131 0.500656
18 1 0.179454 0.858519 0.502595
71 1 0.367027 0.936569 0.502577
ITEM: TIMESTEP
3750
ITEM: NUMBER OF ATOMS
27
ITEM: BOX BOUNDS pp pp pp
-4.7989420637444864e+00 4.7989420637444864e+00
-4.8094284671679466e+00 4.8094284671679466e+00
-1.0000000000000001e-01 1.0000000000000001e-01
ITEM: ATOMS id type xs ys zs
15 1 0.116723 0.00767209 0.501789
53 1 0.201238 0.110879 0.497766
20 1 0.268091 0.995246 0.499852
14 1 0.427838 0.0381759 0.49539
47 1 0.112 0.139003 0.496273
12 1 0.308506 0.142255 0.505376
37 1 0.0696145 0.262002 0.496038
30 1 0.16265 0.352321 0.500424
40 1 0.184025 0.224601 0.499829
50 1 0.273803 0.285941 0.497851
61 1 0.34122 0.251211 0.495574
41 1 0.411771 0.229147 0.50065
34 1 0.044431 0.378746 0.500162
22 1 0.268937 0.401378 0.50383
44 1 0.394296 0.319622 0.498997
28 1 0.140136 0.466875 0.498668
23 1 0.288478 0.502944 0.505145
36 1 0.389385 0.434616 0.501964
10 1 0.179499 0.606984 0.509345
38 1 0.328941 0.622907 0.503522
16 1 0.0910139 0.730302 0.498804
9 1 0.243959 0.731212 0.498393
13 1 0.396729 0.745676 0.509957
32 1 0.321737 0.868296 0.506514
26 1 0.454003 0.880451 0.500601
18 1 0.179429 0.858143 0.501659
71 1 0.367897 0.936449 0.502257
ITEM: TIMESTEP
4000
ITEM: NUMBER OF ATOMS
27
ITEM: BOX BOUNDS pp pp pp
-4.7977378920600646e+00 4.7977378920600646e+00
-4.8133820813101540e+00 4.8133820813101540e+00
-1.0000000000000001e-01 1.0000000000000001e-01
ITEM: ATOMS id type xs ys zs
15 1 0.116978 0.00688753 0.502052
53 1 0.201093 0.110629 0.498641
20 1 0.268072 0.994872 0.499218
14 1 0.427683 0.037806 0.495989
47 1 0.111741 0.138257 0.495103
12 1 0.308346 0.142659 0.506587
37 1 0.0697653 0.261694 0.49715
30 1 0.162775 0.352848 0.497602
40 1 0.183229 0.224504 0.501624
50 1 0.272724 0.286456 0.497536
61 1 0.340302 0.251771 0.4966
41 1 0.41095 0.229195 0.502091
34 1 0.0446794 0.378545 0.500378
22 1 0.269523 0.401427 0.505895
44 1 0.393376 0.319861 0.498058
28 1 0.139727 0.468213 0.496914
23 1 0.288051 0.503585 0.50521
36 1 0.389387 0.435212 0.501083
10 1 0.18006 0.607235 0.509756
38 1 0.328356 0.623056 0.501116
16 1 0.0899213 0.730165 0.49966
9 1 0.242959 0.731198 0.497514
13 1 0.39537 0.744995 0.50814
32 1 0.321885 0.868167 0.505978
26 1 0.453521 0.880182 0.500527
18 1 0.17917 0.858231 0.501085
71 1 0.367701 0.93625 0.502336
ITEM: TIMESTEP
4250
ITEM: NUMBER OF ATOMS
27
ITEM: BOX BOUNDS pp pp pp
-4.7965337203756429e+00 4.7965337203756429e+00
-4.7929200080395802e+00 4.7929200080395802e+00
-1.0000000000000001e-01 1.0000000000000001e-01
ITEM: ATOMS id type xs ys zs
15 1 0.116136 0.00701755 0.50256
53 1 0.200686 0.110484 0.497392
20 1 0.267665 0.99579 0.500968
14 1 0.427478 0.0386207 0.49474
47 1 0.111195 0.138908 0.495048
12 1 0.307488 0.142583 0.50554
37 1 0.069177 0.261763 0.497876
30 1 0.161563 0.353544 0.497518
40 1 0.183595 0.224836 0.501633
50 1 0.273883 0.286011 0.49635
61 1 0.341237 0.25061 0.494415
41 1 0.411899 0.228333 0.503598
34 1 0.042734 0.37887 0.501121
22 1 0.268933 0.401891 0.505341
44 1 0.394033 0.319336 0.49808
28 1 0.137774 0.467772 0.495967
23 1 0.288017 0.503827 0.507106
36 1 0.389109 0.435264 0.499221
10 1 0.178543 0.607017 0.509201
38 1 0.328839 0.62282 0.500529
16 1 0.0901468 0.730282 0.499244
9 1 0.243819 0.731749 0.497132
13 1 0.396707 0.74551 0.50713
32 1 0.321571 0.868477 0.506555
26 1 0.453786 0.88115 0.498854
18 1 0.178946 0.859074 0.500745
71 1 0.367278 0.936597 0.502028
ITEM: TIMESTEP
4500
ITEM: NUMBER OF ATOMS
27
ITEM: BOX BOUNDS pp pp pp
-4.7953295486912220e+00 4.7953295486912220e+00
-4.8036314987563360e+00 4.8036314987563360e+00
-1.0000000000000001e-01 1.0000000000000001e-01
ITEM: ATOMS id type xs ys zs
15 1 0.115854 0.00681532 0.504235
53 1 0.200968 0.110561 0.498122
20 1 0.267596 0.995999 0.501067
14 1 0.427025 0.0386697 0.495866
47 1 0.111846 0.138593 0.49746
12 1 0.307608 0.143097 0.505941
37 1 0.0692134 0.260967 0.4982
30 1 0.16117 0.35289 0.497131
40 1 0.183944 0.224803 0.500653
50 1 0.274014 0.287508 0.497241
61 1 0.341401 0.251315 0.495296
41 1 0.412161 0.228074 0.504334
34 1 0.0432585 0.378002 0.502126
22 1 0.267353 0.402877 0.50587
44 1 0.394917 0.319001 0.496523
28 1 0.137514 0.467949 0.495383
23 1 0.288502 0.504538 0.505436
36 1 0.388691 0.434747 0.498202
10 1 0.179619 0.607061 0.510494
38 1 0.330217 0.623617 0.49766
16 1 0.0898001 0.73016 0.500405
9 1 0.243657 0.730889 0.496856
13 1 0.397042 0.746246 0.508573
32 1 0.321936 0.868241 0.509053
26 1 0.453562 0.881322 0.498119
18 1 0.18022 0.857867 0.500289
71 1 0.367037 0.936729 0.502741
ITEM: TIMESTEP
4750
ITEM: NUMBER OF ATOMS
27
ITEM: BOX BOUNDS pp pp pp
-4.7941253770068002e+00 4.7941253770068002e+00
-4.7997376876768945e+00 4.7997376876768945e+00
-1.0000000000000001e-01 1.0000000000000001e-01
ITEM: ATOMS id type xs ys zs
15 1 0.115364 0.00600725 0.505483
53 1 0.201052 0.109708 0.497527
20 1 0.267658 0.995544 0.501233
14 1 0.427735 0.0379606 0.496207
47 1 0.111814 0.138549 0.496665
12 1 0.307508 0.142743 0.503647
37 1 0.0702336 0.259774 0.49901
30 1 0.161581 0.352195 0.498165
40 1 0.184974 0.224118 0.498922
50 1 0.27428 0.286887 0.496887
61 1 0.341512 0.250966 0.495515
41 1 0.411879 0.227844 0.505769
34 1 0.0425672 0.37609 0.501523
22 1 0.267534 0.402136 0.506856
44 1 0.39472 0.31866 0.493634
28 1 0.136084 0.467035 0.493761
23 1 0.287498 0.503628 0.505278
36 1 0.388083 0.434004 0.497117
10 1 0.179102 0.606617 0.509615
38 1 0.329862 0.622568 0.496965
16 1 0.0894442 0.729781 0.499954
9 1 0.242881 0.729929 0.4965
13 1 0.396059 0.745576 0.5081
32 1 0.320947 0.868226 0.51063
26 1 0.453424 0.880015 0.497863
18 1 0.179345 0.857305 0.501187
71 1 0.367746 0.936143 0.501423
ITEM: TIMESTEP
5000
ITEM: NUMBER OF ATOMS
27
ITEM: BOX BOUNDS pp pp pp
-4.7929212053223784e+00 4.7929212053223784e+00
-4.8099574953339488e+00 4.8099574953339488e+00
-1.0000000000000001e-01 1.0000000000000001e-01
ITEM: ATOMS id type xs ys zs
15 1 0.116422 0.00777674 0.503814
53 1 0.201422 0.109849 0.49576
20 1 0.267613 0.994405 0.499768
14 1 0.426956 0.0371998 0.497228
47 1 0.11239 0.139314 0.496191
12 1 0.308122 0.142662 0.504286
37 1 0.0701491 0.259851 0.499478
30 1 0.161488 0.352156 0.498195
40 1 0.185355 0.22421 0.49782
50 1 0.274943 0.287239 0.498154
61 1 0.341484 0.250596 0.496135
41 1 0.411999 0.227584 0.506558
34 1 0.0428315 0.3761 0.501289
22 1 0.267291 0.402148 0.509122
44 1 0.394523 0.318681 0.49125
28 1 0.137223 0.466084 0.496226
23 1 0.286694 0.503552 0.505299
36 1 0.387773 0.434127 0.498213
10 1 0.177523 0.60632 0.509832
38 1 0.32831 0.622559 0.495712
16 1 0.0891664 0.729477 0.499703
9 1 0.242494 0.730123 0.495803
13 1 0.395359 0.744822 0.509736
32 1 0.321438 0.86687 0.510963
26 1 0.45307 0.879904 0.494948
18 1 0.17885 0.85794 0.502351
71 1 0.367032 0.935494 0.500903
ITEM: TIMESTEP
5250
ITEM: NUMBER OF ATOMS
27
ITEM: BOX BOUNDS pp pp pp
-4.7917170336379566e+00 4.7917170336379566e+00
-4.8143741780746137e+00 4.8143741780746137e+00
-1.0000000000000001e-01 1.0000000000000001e-01
ITEM: ATOMS id type xs ys zs
15 1 0.114484 0.00807662 0.503839
53 1 0.20144 0.110216 0.495142
20 1 0.266174 0.994721 0.499329
14 1 0.426699 0.0364417 0.496645
47 1 0.112588 0.139564 0.498669
12 1 0.308339 0.142605 0.504812
37 1 0.0699342 0.258545 0.504316
30 1 0.161387 0.351382 0.497237
40 1 0.18578 0.223906 0.498787
50 1 0.274352 0.2872 0.498336
61 1 0.341386 0.251182 0.493238
41 1 0.412085 0.228548 0.506802
34 1 0.0430988 0.375711 0.500862
22 1 0.267044 0.402037 0.507615
44 1 0.394484 0.318803 0.491012
28 1 0.137248 0.466072 0.495432
23 1 0.288794 0.503222 0.506067
36 1 0.388644 0.433835 0.498822
10 1 0.178216 0.60625 0.510851
38 1 0.328389 0.622907 0.496605
16 1 0.0885163 0.729682 0.501178
9 1 0.241903 0.730158 0.49628
13 1 0.394584 0.745552 0.509149
32 1 0.319734 0.867181 0.510888
26 1 0.451383 0.880894 0.49529
18 1 0.177791 0.857456 0.50287
71 1 0.365631 0.93547 0.501404
ITEM: TIMESTEP
5500
ITEM: NUMBER OF ATOMS
27
ITEM: BOX BOUNDS pp pp pp
-4.7905128619535358e+00 4.7905128619535358e+00
-4.8058289185416410e+00 4.8058289185416410e+00
-1.0000000000000001e-01 1.0000000000000001e-01
ITEM: ATOMS id type xs ys zs
15 1 0.114691 0.00744975 0.503358
53 1 0.201389 0.109498 0.494638
20 1 0.266217 0.995116 0.500858
14 1 0.426853 0.0363158 0.495717
47 1 0.112156 0.138983 0.499313
12 1 0.308041 0.141083 0.506285
37 1 0.0703345 0.25976 0.503532
30 1 0.161159 0.3519 0.495664
40 1 0.185628 0.223651 0.497704
50 1 0.274869 0.286568 0.496914
61 1 0.341569 0.249429 0.49384
41 1 0.412166 0.227418 0.505419
34 1 0.0431188 0.376604 0.500138
22 1 0.266901 0.401472 0.506537
44 1 0.395042 0.317447 0.491029
28 1 0.137572 0.466881 0.495082
23 1 0.288144 0.502872 0.507328
36 1 0.388655 0.432185 0.499648
10 1 0.176612 0.607206 0.509909
38 1 0.327136 0.622633 0.49584
16 1 0.0864016 0.728864 0.500883
9 1 0.240854 0.73058 0.495797
13 1 0.393709 0.745379 0.508683
32 1 0.318411 0.867584 0.509127
26 1 0.450974 0.880273 0.494842
18 1 0.176527 0.857608 0.502314
71 1 0.364882 0.935823 0.500788
ITEM: TIMESTEP
5750
ITEM: NUMBER OF ATOMS
27
ITEM: BOX BOUNDS pp pp pp
-4.7893086902691140e+00 4.7893086902691140e+00
-4.8143861687762115e+00 4.8143861687762115e+00
-1.0000000000000001e-01 1.0000000000000001e-01
ITEM: ATOMS id type xs ys zs
15 1 0.114549 0.00817249 0.503845
53 1 0.200777 0.109716 0.495701
20 1 0.265995 0.99463 0.500898
14 1 0.42641 0.0362816 0.496493
47 1 0.111142 0.139306 0.498467
12 1 0.307671 0.142932 0.505826
37 1 0.0697469 0.258915 0.505608
30 1 0.16149 0.351514 0.496153
40 1 0.184782 0.223225 0.497476
50 1 0.273877 0.286171 0.497409
61 1 0.341142 0.250447 0.493346
41 1 0.412083 0.227522 0.505365
34 1 0.0423408 0.375725 0.501431
22 1 0.267793 0.401329 0.506454
44 1 0.394406 0.318058 0.490093
28 1 0.136525 0.465948 0.493814
23 1 0.288789 0.502741 0.507018
36 1 0.388976 0.432949 0.498341
10 1 0.176775 0.605598 0.509868
38 1 0.325789 0.622886 0.496377
16 1 0.0868761 0.729389 0.499809
9 1 0.240214 0.730423 0.495201
13 1 0.393363 0.744779 0.509405
32 1 0.318951 0.867024 0.509458
26 1 0.451289 0.879312 0.495038
18 1 0.176728 0.857797 0.501072
71 1 0.364988 0.935191 0.501463
ITEM: TIMESTEP
6000
ITEM: NUMBER OF ATOMS
27
ITEM: BOX BOUNDS pp pp pp
-4.7881045185846922e+00 4.7881045185846922e+00
-4.7970920821420684e+00 4.7970920821420684e+00
-1.0000000000000001e-01 1.0000000000000001e-01
ITEM: ATOMS id type xs ys zs
15 1 0.11335 0.00645035 0.502137
53 1 0.199482 0.108743 0.495177
20 1 0.265633 0.995543 0.500968
14 1 0.426322 0.0373473 0.4964
47 1 0.110494 0.138771 0.499775
12 1 0.30633 0.142332 0.507494
37 1 0.0697935 0.258651 0.504432
30 1 0.161211 0.351641 0.497179
40 1 0.184643 0.222896 0.497386
50 1 0.274047 0.285989 0.496531
61 1 0.341162 0.250064 0.492786
41 1 0.411599 0.226848 0.507107
34 1 0.0423232 0.375641 0.50068
22 1 0.267507 0.40128 0.505198
44 1 0.394705 0.317375 0.489217
28 1 0.135687 0.466778 0.493576
23 1 0.288563 0.502831 0.50733
36 1 0.388399 0.433169 0.49841
10 1 0.175896 0.60694 0.510131
38 1 0.327652 0.622946 0.497082
16 1 0.0861022 0.730162 0.500229
9 1 0.240432 0.730542 0.494114
13 1 0.393445 0.745043 0.50878
32 1 0.318751 0.867354 0.509573
26 1 0.45142 0.8797 0.495184
18 1 0.17601 0.858129 0.500131
71 1 0.365299 0.935567 0.501258
ITEM: TIMESTEP
6250
ITEM: NUMBER OF ATOMS
27
ITEM: BOX BOUNDS pp pp pp
-4.7869003469002704e+00 4.7869003469002704e+00
-4.8093965465731232e+00 4.8093965465731232e+00
-1.0000000000000001e-01 1.0000000000000001e-01
ITEM: ATOMS id type xs ys zs
15 1 0.113373 0.00817488 0.503747
53 1 0.19973 0.109868 0.495614
20 1 0.265247 0.995455 0.500492
14 1 0.426161 0.0374117 0.495002
47 1 0.110553 0.139815 0.501364
12 1 0.306461 0.142001 0.50677
37 1 0.0685334 0.259399 0.504704
30 1 0.159904 0.351824 0.497565
40 1 0.183706 0.223809 0.498115
50 1 0.272736 0.286366 0.495992
61 1 0.339651 0.250258 0.492958
41 1 0.410667 0.227602 0.507856
34 1 0.0414959 0.376032 0.500608
22 1 0.266246 0.401345 0.505548
44 1 0.392819 0.318091 0.491331
28 1 0.135906 0.466546 0.495609
23 1 0.287561 0.503047 0.509521
36 1 0.387443 0.432979 0.498513
10 1 0.17487 0.606996 0.511364
38 1 0.326689 0.622724 0.496062
16 1 0.0862323 0.730783 0.500713
9 1 0.24018 0.730502 0.494773
13 1 0.392933 0.745317 0.507769
32 1 0.318636 0.867885 0.507857
26 1 0.450721 0.881071 0.494743
18 1 0.176686 0.858117 0.500145
71 1 0.364649 0.936729 0.502674
ITEM: TIMESTEP
6500
ITEM: NUMBER OF ATOMS
27
ITEM: BOX BOUNDS pp pp pp
-4.7856961752158496e+00 4.7856961752158496e+00
-4.8177875579607150e+00 4.8177875579607150e+00
-1.0000000000000001e-01 1.0000000000000001e-01
ITEM: ATOMS id type xs ys zs
15 1 0.114318 0.00797703 0.502815
53 1 0.199565 0.110768 0.495502
20 1 0.266189 0.995322 0.500416
14 1 0.426912 0.0368063 0.493449
47 1 0.110315 0.139448 0.502361
12 1 0.30743 0.141775 0.507652
37 1 0.0685321 0.259832 0.504447
30 1 0.160109 0.352073 0.499217
40 1 0.183314 0.224288 0.497067
50 1 0.272567 0.287153 0.498377
61 1 0.339506 0.250214 0.493743
41 1 0.410457 0.22803 0.507608
34 1 0.0418898 0.376479 0.500547
22 1 0.266236 0.402249 0.506239
44 1 0.392602 0.318307 0.488284
28 1 0.136595 0.466344 0.495759
23 1 0.287454 0.503312 0.508749
36 1 0.387181 0.433367 0.499076
10 1 0.173443 0.607964 0.514119
38 1 0.32572 0.623054 0.49633
16 1 0.0857142 0.731864 0.501102
9 1 0.239221 0.731064 0.492953
13 1 0.39234 0.746175 0.507411
32 1 0.318878 0.868588 0.509133
26 1 0.451489 0.879683 0.49477
18 1 0.175891 0.858929 0.499704
71 1 0.365566 0.935797 0.502678
ITEM: TIMESTEP
6750
ITEM: NUMBER OF ATOMS
27
ITEM: BOX BOUNDS pp pp pp
-4.7844920035314278e+00 4.7844920035314278e+00
-4.8152864606139829e+00 4.8152864606139829e+00
-1.0000000000000001e-01 1.0000000000000001e-01
ITEM: ATOMS id type xs ys zs
15 1 0.113853 0.00689519 0.502993
53 1 0.199564 0.110025 0.495929
20 1 0.265469 0.994993 0.501047
14 1 0.426604 0.0367729 0.493653
47 1 0.110004 0.138562 0.502965
12 1 0.30728 0.141415 0.506852
37 1 0.0694032 0.260067 0.504838
30 1 0.161032 0.352025 0.497095
40 1 0.183777 0.223869 0.496011
50 1 0.272838 0.287155 0.498353
61 1 0.339418 0.249967 0.495521
41 1 0.41047 0.227843 0.507043
34 1 0.0427595 0.376829 0.501674
22 1 0.267444 0.401684 0.506404
44 1 0.391719 0.318527 0.488411
28 1 0.1379 0.466431 0.494843
23 1 0.288156 0.50272 0.507638
36 1 0.389062 0.433904 0.499143
10 1 0.171367 0.607666 0.514018
38 1 0.326431 0.622608 0.495714
16 1 0.0844227 0.731563 0.501044
9 1 0.238704 0.729848 0.4936
13 1 0.391768 0.745337 0.505833
32 1 0.318796 0.868363 0.507877
26 1 0.45123 0.878902 0.494821
18 1 0.176055 0.857471 0.499108
71 1 0.365551 0.935926 0.502106
ITEM: TIMESTEP
7000
ITEM: NUMBER OF ATOMS
27
ITEM: BOX BOUNDS pp pp pp
-4.7832878318470060e+00 4.7832878318470060e+00
-4.8140515563302353e+00 4.8140515563302353e+00
-1.0000000000000001e-01 1.0000000000000001e-01
ITEM: ATOMS id type xs ys zs