LAMMPS (23 Jun 2022 - Update 4)
  using 1 OpenMP thread(s) per MPI task
# Compute elastic constant tensor for a crystal
#
# Written by Aidan Thompson (Sandia, athomps@sandia.gov)
#
#  This script uses the following three include files.
#
#   init.mod      (must be modified for different crystal structures)
# 	       	  Define units, deformation parameters and initial
#		  configuration of the atoms and simulation cell.
#
#
#   potential.mod    (must be modified for different pair styles)
# 		     Define pair style and other attributes
#		     not stored in restart file
#
#
#   displace.mod    (displace.mod should not need to be modified)
# 		    Perform positive and negative box displacements
# 		    in direction ${dir} and size ${up}.
# 		    It uses the resultant changes
#		    in stress to compute one
# 		    row of the elastic stiffness tensor
#
#		    Inputs variables:
#		    	   dir = the Voigt deformation component
#		    		    (1,2,3,4,5,6)
#		    Global constants:
#       	    	   up = the deformation magnitude (strain units)
#       		   cfac = conversion from LAMMPS pressure units to
#               	   output units for elastic constants
#
#
#  To run this on a different system, it should only be necessary to
#  modify the files init.mod and potential.mod. In order to calculate
#  the elastic constants correctly, care must be taken to specify
#  the correct units in init.mod (units, cfac and cunits). It is also
#  important to verify that the minimization of energy w.r.t atom
#  positions in the deformed cell is fully converged.
#  One indication of this is that the elastic constants are insensitive
#  to the choice of the variable ${up} in init.mod. Another is to check
#  the final max and two-norm forces reported in the log file. If you know
#  that minimization is not required, you can set maxiter = 0.0 in
#  init.mod.
#



variable dt equal 0.01
variable strain equal 0.05
variable srate equal 1e-4
variable M equal 1000 # averaging time for properties
variable strainsteps equal ${strain}/${dt}/${srate}
variable strainsteps equal 0.05/${dt}/${srate}
variable strainsteps equal 0.05/0.01/${srate}
variable strainsteps equal 0.05/0.01/0.0001


dimension 2
include init.mod
# NOTE: This script can be modified for different atomic structures,
# units, etc. See in.elastic for more info.
#

# Define the finite deformation size. Try several values of this
# variable to verify that results do not depend on it.
variable up equal 1.0e-1

# Define the amount of random jiggle for atoms
# This prevents atoms from staying on saddle points
variable atomjiggle equal 1.0e-6

# Uncomment one of these blocks, depending on what units
# you are using in LAMMPS and for output

# metal units, elastic constants in eV/A^3
#units		metal
#variable cfac equal 6.2414e-7
#variable cunits string eV/A^3

# Choose potential
# metal units, elastic constants in GPa
units		metal
atom_style	full
#pair_style      lj/cut 1.0
#pair_style      yukawa 1.0 2.0
#pair_modify     mix arithmetic
bond_style      harmonic
angle_style     harmonic
dihedral_style  zero
special_bonds   amber
variable cfac equal 1.0e-4
variable cunits string GPa
boundary	p p p

# Need to set mass to something, just to satisfy LAMMPS
#mass 1 1.0e-20
read_data network.lmp
Reading data file ...
  orthogonal box = (-4.816686 -4.816686 -0.1) to (4.816686 4.816686 0.1)
  1 by 1 by 1 MPI processor grid
WARNING: Atom style in data file differs from currently defined atom style (src/read_data.cpp:538)
  reading atoms ...
  27 atoms
WARNING: Bond style in data file differs from currently defined bond style (src/read_data.cpp:630)
  scanning bonds ...
  5 = max bonds/atom
  reading bonds ...
  52 bonds
Finding 1-2 1-3 1-4 neighbors ...
  special bond factors lj:    0        0        0.5     
  special bond factors coul:  0        0        0.8333333333333334
     7 = max # of 1-2 neighbors
    25 = max # of 1-3 neighbors
   117 = max # of 1-4 neighbors
    19 = max # of special neighbors
  special bonds CPU = 0.000 seconds
  read_data CPU = 0.003 seconds

# real units, elastic constants in GPa
#units		real
#variable cfac equal 1.01325e-4
#variable cunits string GPa

# Define minimization parameters
variable etol equal 0.0
variable ftol equal 5.0e-10
variable maxiter equal 100000
variable maxeval equal 20000
variable dmax equal 1.0e-2


include potential.mod
# NOTE: This script can be modified for different pair styles
# See in.elastic for more info.

# Setup neighbor style
neighbor 3.0 nsq
neigh_modify once no every 1 delay 0 check yes
comm_modify cutoff 2.0

# Setup minimization style
min_style	     cg
min_modify	     dmax ${dmax} line quadratic
min_modify	     dmax 0.01 line quadratic

timestep	0.001


# Setup output
thermo		500
thermo_style custom step temp pe ebond eangle edihed press pxx pyy pzz pxy pxz pyz lx ly lz vol
thermo_modify norm no


#change_box all triclinic
comm_modify mode single cutoff 10.0 vel yes
atom_modify sort 0 0



# Compute initial state

#dump rela all atom 1 traj_relax.lmpstrj
fix 3 all box/relax x 0 y 0 # xy 0  #MS comment: relax if the network is periodic
minimize ${etol} ${ftol} ${maxiter} ${maxeval}
minimize 0 ${ftol} ${maxiter} ${maxeval}
minimize 0 5e-10 ${maxiter} ${maxeval}
minimize 0 5e-10 100000 ${maxeval}
minimize 0 5e-10 100000 20000
Neighbor list info ...
  update every 1 steps, delay 0 steps, check yes
  max neighbors/atom: 2000, page size: 100000
  master list distance cutoff = 0
  ghost atom cutoff = 10
  0 neighbor lists, perpetual/occasional/extra = 0 0 0
WARNING: Inconsistent image flags (src/domain.cpp:819)
Per MPI rank memory allocation (min/avg/max) = 8.122 | 8.122 | 8.122 Mbytes
   Step          Temp          PotEng         E_bond        E_angle        E_dihed         Press           Pxx            Pyy            Pzz            Pxy            Pxz            Pyz             Lx             Ly             Lz           Volume    
         0   0              6.4996876e-12  6.4996876e-12  0              0             -0.024934096   -0.021737245   -0.028130947    0              0.041962221    0              0              9.633372       9.633372       0.2            92.801856    
        66   0              2.2465749e-20  2.2465749e-20  0              0              2.295782e-06   3.3379819e-06  1.2535821e-06  0             -5.548254e-07   0              0              9.6333735      9.6333713      0.2            92.801864    
Loop time of 0.00160523 on 1 procs for 66 steps with 27 atoms

100.0% CPU use with 1 MPI tasks x 1 OpenMP threads

Minimization stats:
  Stopping criterion = force tolerance
  Energy initial, next-to-last, final = 
    6.4996875828522e-12 5.82898785193952e-20 2.24657494349983e-20
  Force two-norm initial, final = 7.4065015e-06 3.866525e-10
  Force max component initial, final = 3.7750206e-06 1.933438e-10
  Final line search alpha, max atom move = 1 1.933438e-10
  Iterations, force evaluations = 66 132

MPI task timing breakdown:
Section |  min time  |  avg time  |  max time  |%varavg| %total
---------------------------------------------------------------
Pair    | 0          | 0          | 0          |   0.0 |  0.00
Bond    | 0.00019533 | 0.00019533 | 0.00019533 |   0.0 | 12.17
Neigh   | 0          | 0          | 0          |   0.0 |  0.00
Comm    | 0.00048248 | 0.00048248 | 0.00048248 |   0.0 | 30.06
Output  | 0          | 0          | 0          |   0.0 |  0.00
Modify  | 0          | 0          | 0          |   0.0 |  0.00
Other   |            | 0.0009274  |            |       | 57.78

Nlocal:             27 ave          27 max          27 min
Histogram: 1 0 0 0 0 0 0 0 0 0
Nghost:            225 ave         225 max         225 min
Histogram: 1 0 0 0 0 0 0 0 0 0
Neighs:              0 ave           0 max           0 min
Histogram: 1 0 0 0 0 0 0 0 0 0

Total # of neighbors = 0
Ave neighs/atom = 0
Ave special neighs/atom = 16
Neighbor list builds = 0
Dangerous builds = 0
#dump rela all atom 1 traj_relax.lmpstrj
thermo 100
unfix 3

fix 2d all enforce2d



#dump dump0 all xyz 1000000 cfg0.xyz
#dump_modify dump0 format line "%d %20.10g %20.10g %20.10g"
#minimize ${etol} ${ftol} ${maxiter} ${maxeval}

#undump rela

#write_restart restart.equil

# These formulas define the derivatives w.r.t. strain components
# Constants uses $, variables use v_


timestep        ${dt}
timestep        0.01
variable nsteps equal round(${strainsteps})
variable nsteps equal round(50000)

fix             4 all nve
fix             5 all langevin 0.1 0.1 1 904297
#fix		6 all press/berendsen y  0.0 0.0 1 x 0.0 0.0 10
fix             6 all nph y 0.0 0.0 10 ptemp 0.1 # x 0.0 0.0 10

# For PLUMED2
# fix 22 all plumed plumedfile plumed.dat outfile plumed.out

#fix             6 all nph x 0.0 0.0 10
fix     	9 all deform 1 x erate -${srate} units box remap x
fix     	9 all deform 1 x erate -0.0001 units box remap x

#fix     8 all deform 1 xy erate ${srate} units box remap x



#fix    10 all ave/time

dump 1 all atom 250 deform_dump.lammpstrj


#To avoid flying ice cube phenomenon:
#fix 21 all momentum 100 linear 1 1 1 angular


run  ${nsteps}
run  50000
WARNING: One or more atoms are time integrated more than once (src/modify.cpp:292)
WARNING: Inconsistent image flags (src/domain.cpp:819)
Per MPI rank memory allocation (min/avg/max) = 6.997 | 6.997 | 6.997 Mbytes
   Step          Temp          PotEng         E_bond        E_angle        E_dihed         Press           Pxx            Pyy            Pzz            Pxy            Pxz            Pyz             Lx             Ly             Lz           Volume    
        66   0              2.2465749e-20  2.2465749e-20  0              0              2.295782e-06   3.3379819e-06  1.2535821e-06  0             -5.548254e-07   0              0              9.6333735      9.6333713      0.2            92.801864    
       100   0.15341261     7.3932963e-05  7.3932963e-05  0              0             -97.278835     -198.92743      4.3031526      0              104.03387      0              0              9.6330459      9.6303962      0.2            92.770049    
       200   0.19201852     0.00041338027  0.00041338027  0              0             -472.72346     -940.16301     -5.3617316      0             -172.33409      0              0              9.6320826      9.6283768      0.2            92.741321    
       300   0.20740896     0.00031417283  0.00031417283  0              0              96.729967      236.25314     -42.863711      0              327.11233      0              0              9.6311193      9.635102       0.2            92.796817    
       400   0.18948844     0.00028903194  0.00028903194  0              0              388.14098      696.84809      79.368273      0             -372.80793      0              0              9.6301559      9.6435828      0.2            92.869206    
       500   0.17488565     0.00050443659  0.00050443659  0              0              2.2507712      61.705911     -57.268405      0              405.44147      0              0              9.6291926      9.6330488      0.2            92.758482    
       600   0.16594415     0.00038423017  0.00038423017  0              0              279.78756      663.65795     -104.16873      0              120.87729      0              0              9.6282293      9.6284536      0.2            92.704958    
       700   0.24001424     0.00042995064  0.00042995064  0              0              39.870878      23.828237      55.835237      0              9.0380571      0              0              9.6272659      9.618128       0.2            92.596276    
       800   0.21026121     0.00042120804  0.00042120804  0              0             -177.79969     -357.72421      2.0602284      0              315.49901      0              0              9.6263026      9.6143679      0.2            92.550814    
       900   0.1618853      0.00039171772  0.00039171772  0              0              39.08585       153.17889     -75.099139      0             -24.506538      0              0              9.6253392      9.6161878      0.2            92.55907     
      1000   0.19052672     0.00032391272  0.00032391272  0              0             -92.068673     -331.24021      146.99404      0             -251.16164      0              0              9.6243759      9.6120685      0.2            92.510161    
      1100   0.17367342     0.00026948722  0.00026948722  0              0             -103.02171     -186.54286     -19.563238      0             -52.161886      0              0              9.6234126      9.6123848      0.2            92.503945    
      1200   0.20609396     0.00048610723  0.00048610723  0              0              159.30317      457.55461     -139.02686      0             -97.090577      0              0              9.6224492      9.6055556      0.2            92.428971    
      1300   0.20045237     0.00033619476  0.00033619476  0              0             -92.826884     -323.28254      137.56023      0             -81.63879       0              0              9.6214859      9.5968111      0.2            92.335583    
      1400   0.1882974      0.00038956243  0.00038956243  0              0              127.06212      351.89928     -97.858052      0             -376.35513      0              0              9.6205226      9.6049788      0.2            92.404915    
      1500   0.16591196     0.0002853146   0.0002853146   0              0             -130.28626     -276.30485      15.668888      0              429.13097      0              0              9.6195592      9.5900826      0.2            92.252367    
      1600   0.21106871     0.00041351613  0.00041351613  0              0              40.066343     -121.16894      201.2176       0              2.0068502      0              0              9.6185959      9.5919775      0.2            92.261355    
      1700   0.21875533     0.00054117729  0.00054117729  0              0             -323.71999     -314.50064     -333.01996      0             -23.978621      0              0              9.6176325      9.6129504      0.2            92.453825    
      1800   0.16232618     0.00043631587  0.00043631587  0              0              86.316504      76.484814      96.083885      0              122.03532      0              0              9.6166692      9.5993428      0.2            92.313704    
      1900   0.23364157     0.00040368531  0.00040368531  0              0              119.60675      5.391541       233.7313       0              46.483678      0              0              9.6157059      9.593229       0.2            92.245668    
      2000   0.14766899     0.00033230755  0.00033230755  0              0             -482.47466     -553.25442     -411.7715       0              14.67233       0              0              9.6147425      9.6028379      0.2            92.328814    
      2100   0.19769014     0.00045579214  0.00045579214  0              0              473.03333      651.63911      294.34766      0             -475.50373      0              0              9.6137792      9.6065387      0.2            92.355142    
      2200   0.15378843     0.00035018359  0.00035018359  0              0              235.9899       225.8455       246.07094      0              400.88684      0              0              9.6128159      9.605763       0.2            92.338431    
      2300   0.15589677     0.00039108315  0.00039108315  0              0             -306.0583      -38.054596     -574.15086      0              72.233646      0              0              9.6118525      9.6239709      0.2            92.504189    
      2400   0.25204526     0.00040971841  0.00040971841  0              0              391.17565      251.32243      530.95011      0              59.829111      0              0              9.6108892      9.6032839      0.2            92.296098    
      2500   0.16890275     0.00040558001  0.00040558001  0              0             -268.36006     -505.76177     -31.044894      0              171.73114      0              0              9.6099258      9.6148719      0.2            92.398206    
      2600   0.20603544     0.00057790155  0.00057790155  0              0             -28.045832      452.69309     -508.86664      0             -25.552035      0              0              9.6089625      9.625694       0.2            92.492932    
      2700   0.21662526     0.00060152399  0.00060152399  0              0              0.16096285    -590.00722      590.25222      0              314.23601      0              0              9.6079992      9.6160391      0.2            92.390896    
      2800   0.19565883     0.00065270059  0.00065270059  0              0             -93.29141       25.848145     -212.52952      0             -40.617907      0              0              9.6070358      9.6173728      0.2            92.394445    
      2900   0.22115651     0.00032110075  0.00032110075  0              0             -145.16387      41.29302      -331.69975      0             -246.31232      0              0              9.6060725      9.6243099      0.2            92.451819    
      3000   0.18545999     0.00043042963  0.00043042963  0              0              658.11592      731.32583      584.82316      0              19.543634      0              0              9.6051092      9.6184238      0.2            92.386011    
      3100   0.2267818      0.00030637754  0.00030637754  0              0             -153.39829      80.592573     -387.46075      0              109.99758      0              0              9.6041458      9.6158085      0.2            92.351627    
      3200   0.15166831     0.00045402469  0.00045402469  0              0              154.20474      382.49608     -74.140934      0              237.93409      0              0              9.6031825      9.6184399      0.2            92.367634    
      3300   0.21055631     0.0002520844   0.0002520844   0              0              185.28196     -146.64007      517.1167       0              277.2494       0              0              9.6022191      9.6146439      0.2            92.321918    
      3400   0.14368259     0.00032199763  0.00032199763  0              0             -626.59421     -725.52056     -527.74574      0              112.24148      0              0              9.6012558      9.6148494      0.2            92.314629    
      3500   0.27061473     0.00029548161  0.00029548161  0              0              225.94191      317.90313      133.91455      0              213.7846       0              0              9.6002925      9.6103224      0.2            92.261906    
      3600   0.17803001     0.00037411287  0.00037411287  0              0              350.91155      388.90243      312.84487      0              96.028289      0              0              9.5993291      9.6070553      0.2            92.221286    
      3700   0.24379001     0.00045732068  0.00045732068  0              0             -353.31658     -191.57521     -515.14022      0              51.470015      0              0              9.5983658      9.6207496      0.2            92.343474    
      3800   0.16856342     0.00057351176  0.00057351176  0              0              213.1764       104.895        321.36025      0             -106.55922      0              0              9.5974025      9.6191654      0.2            92.319002    
      3900   0.24558792     0.00052527756  0.00052527756  0              0              131.90194      164.79748      98.916816      0             -196.98045      0              0              9.5964391      9.6237341      0.2            92.353579    
      4000   0.27046832     0.00039691294  0.00039691294  0              0              76.864421      598.75638     -445.11736      0             -16.506758      0              0              9.5954758      9.6267642      0.2            92.373382    
      4100   0.23146601     0.00052161563  0.00052161563  0              0              507.56905      603.55308      411.48854      0             -243.61527      0              0              9.5945124      9.6100186      0.2            92.203443    
      4200   0.18137853     0.00028921283  0.00028921283  0              0             -137.52003     -200.46925     -74.656157      0              25.488299      0              0              9.5935491      9.5936127      0.2            92.036795    
      4300   0.20945911     0.00030039666  0.00030039666  0              0             -293.1234      -271.77036     -314.55707      0             -68.426617      0              0              9.5925858      9.5977858      0.2            92.067583    
      4400   0.19832807     0.00031528008  0.00031528008  0              0              292.02736      111.19834      472.77384      0             -9.4184058      0              0              9.5916224      9.5909609      0.2            91.992876    
      4500   0.14918612     0.00034238867  0.00034238867  0              0             -216.11963     -81.571781     -350.76112      0              18.762397      0              0              9.5906591      9.607263       0.2            92.139984    
      4600   0.23433644     0.00020875029  0.00020875029  0              0             -36.383895     -52.107601     -20.744966      0              170.42244      0              0              9.5896958      9.6041253      0.2            92.100639    
      4700   0.21805036     0.00030601936  0.00030601936  0              0              300.93782      182.77107      419.01984      0              378.25365      0              0              9.5887324      9.6014636      0.2            92.065866    
      4800   0.14118549     0.00049044694  0.00049044694  0              0             -561.98936     -599.3304      -524.75403      0             -60.215457      0              0              9.5877691      9.6095438      0.2            92.134087    
      4900   0.18288963     0.00028097924  0.00028097924  0              0              329.27775      344.21181      314.25666      0              185.59271      0              0              9.5868057      9.6062614      0.2            92.093362    
      5000   0.18441753     0.00043296107  0.00043296107  0              0              494.00128      856.14554      131.78913      0              128.63167      0              0              9.5858424      9.619915       0.2            92.214989    
      5100   0.23684967     0.00036874798  0.00036874798  0              0             -474.37954     -551.07766     -397.7538       0              22.398479      0              0              9.5848791      9.6151346      0.2            92.159902    
      5200   0.19897585     0.00043448502  0.00043448502  0              0              730.09132      994.16419      465.95448      0             -20.568221      0              0              9.5839157      9.6194205      0.2            92.191715    
      5300   0.2174066      0.0003792034   0.0003792034   0              0             -135.07905     -118.97125     -151.31473      0             -273.14394      0              0              9.5829524      9.6285207      0.2            92.269655    
      5400   0.25096595     0.00045052509  0.00045052509  0              0              130.54139      505.51748     -244.52389      0              237.04395      0              0              9.5819891      9.6201414      0.2            92.180089    
      5500   0.2049308      0.00054054912  0.00054054912  0              0              307.76768      185.88491      429.57702      0             -272.96418      0              0              9.5810257      9.6116578      0.2            92.089541    
      5600   0.18425619     0.00043042229  0.00043042229  0              0             -42.850127      128.16933     -213.96685      0              284.68138      0              0              9.5800624      9.6129871      0.2            92.093016    
      5700   0.29006058     0.00043185677  0.00043185677  0              0              215.13339      504.25635     -74.065182      0              49.601987      0              0              9.579099       9.6305267      0.2            92.251769    
      5800   0.21316997     0.00032773305  0.00032773305  0              0              155.80573      93.087315      218.41698      0             -268.1637       0              0              9.5781357      9.6228087      0.2            92.168568    
      5900   0.19600387     0.00036428624  0.00036428624  0              0              159.45158      533.34601     -214.51463      0             -190.68106      0              0              9.5771724      9.6133831      0.2            92.069027    
      6000   0.21686349     0.00032597154  0.00032597154  0              0             -124.91275     -360.9223       111.02513      0              231.52786      0              0              9.576209       9.5941842      0.2            91.875913    
      6100   0.17347256     0.00045893849  0.00045893849  0              0              105.29408      181.0225       29.488205      0             -204.96421      0              0              9.5752457      9.6129997      0.2            92.046834    
      6200   0.30646669     0.00032361156  0.00032361156  0              0              59.74273       270.01754     -150.6221       0              222.93137      0              0              9.5742824      9.6095085      0.2            92.004147    
      6300   0.18809213     0.00041481814  0.00041481814  0              0              395.44265      605.61817      185.20318      0              223.28764      0              0              9.573319       9.6302026      0.2            92.193001    
      6400   0.21364034     0.00054130851  0.00054130851  0              0              251.08465      531.06705     -28.969878      0              110.42201      0              0              9.5723557      9.6265009      0.2            92.148291    
      6500   0.25751462     0.00032175016  0.00032175016  0              0             -0.87689339     51.693866     -53.528823      0             -155.31616      0              0              9.5713924      9.6355751      0.2            92.22587     
      6600   0.23129225     0.00031656018  0.00031656018  0              0             -62.914701     -244.9885       119.08087      0             -172.39297      0              0              9.570429       9.623413       0.2            92.100191    
      6700   0.21057235     0.00046669397  0.00046669397  0              0             -638.2926      -1183.4425     -93.211561      0              95.117038      0              0              9.5694657      9.6279399      0.2            92.134241    
      6800   0.32465114     0.00033623143  0.00033623143  0              0             -295.09121     -518.00504     -72.256432      0             -461.93182      0              0              9.5685023      9.6358789      0.2            92.20093     
      6900   0.27314409     0.0003827859   0.0003827859   0              0              123.9378       107.16206      140.60811      0             -382.28263      0              0              9.567539       9.6346861      0.2            92.180235    
      7000   0.26717603     0.00047727185  0.00047727185  0              0             -185.20649     -272.82459     -97.658548      0             -347.83304      0              0              9.5665757      9.6281031      0.2            92.107977    
      7100   0.19154632     0.00029316957  0.00029316957  0              0             -181.21883     -316.30072     -46.222664      0             -457.85062      0              0              9.5656123      9.643994       0.2            92.250708    
      7200   0.23365957     0.00037279849  0.00037279849  0              0              526.17051      906.8105       145.47613      0              129.12659      0              0              9.564649       9.6519255      0.2            92.31728     
      7300   0.25189727     0.00034070565  0.00034070565  0              0              81.934202      321.5613      -157.78425      0             -179.62355      0              0              9.5636857      9.6666414      0.2            92.44872     
      7400   0.21366673     0.0005261839   0.0005261839   0              0              254.33389      480.32617      28.262647      0              634.94043      0              0              9.5627223      9.6658257      0.2            92.431607    
      7500   0.20401674     0.0003427738   0.0003427738   0              0              22.121942     -64.134738      108.31588      0             -5.1641418      0              0              9.561759       9.6485223      0.2            92.256845    
      7600   0.18809146     0.00024883044  0.00024883044  0              0             -327.44958     -483.54876     -171.43338      0             -307.76319      0              0              9.5607956      9.6479893      0.2            92.242454    
      7700   0.20098695     0.00041251027  0.00041251027  0              0              434.18841      758.55882      109.75808      0              214.77091      0              0              9.5598323      9.6415012      0.2            92.171135    
      7800   0.16769101     0.00041591688  0.00041591688  0              0              161.33498      219.04428      103.54595      0              51.092862      0              0              9.558869       9.635954       0.2            92.108822    
      7900   0.17993759     0.00035499976  0.00035499976  0              0              33.353558      334.08912     -267.46816      0             -462.70411      0              0              9.5579056      9.6346087      0.2            92.086681    
      8000   0.1632233      0.0004059541   0.0004059541   0              0              9.1630699     -227.80256      246.05685      0             -218.836        0              0              9.5569423      9.6309854      0.2            92.042771    
      8100   0.18413526     0.00050018765  0.00050018765  0              0             -138.42134     -335.99136      59.073366      0              99.205721      0              0              9.555979       9.6148209      0.2            91.879026    
      8200   0.19332905     0.00044748507  0.00044748507  0              0             -212.27511     -17.824713     -406.83866      0             -514.46684      0              0              9.5550156      9.6424854      0.2            92.134099    
      8300   0.21214222     0.00042225546  0.00042225546  0              0              266.5555       221.27631      311.73398      0              6.3497788      0              0              9.5540523      9.6458697      0.2            92.157144    
      8400   0.26326185     0.00036647044  0.00036647044  0              0              256.28987      400.88424      111.60751      0              139.29405      0              0              9.5530889      9.6355956      0.2            92.049702    
      8500   0.19456103     0.00038823961  0.00038823961  0              0             -167.6563       71.173145     -406.54714      0             -111.59444      0              0              9.5521256      9.6462501      0.2            92.142192    
      8600   0.25085152     0.00033761558  0.00033761558  0              0              300.01729      270.92484      329.03845      0              20.139782      0              0              9.5511623      9.6463849      0.2            92.134188    
      8700   0.14687121     0.00046253291  0.00046253291  0              0             -0.040602355   -18.454978      18.300036      0             -280.97137      0              0              9.5501989      9.6593156      0.2            92.248386    
      8800   0.13640166     0.00036935312  0.00036935312  0              0             -60.891774      272.90461     -394.77624      0             -156.31339      0              0              9.5492356      9.6664963      0.2            92.30765     
      8900   0.23485735     0.00035870581  0.00035870581  0              0              189.09459     -59.27938       437.37575      0              202.89403      0              0              9.5482723      9.6602471      0.2            92.238669    
      9000   0.25354517     0.00037628545  0.00037628545  0              0             -102.53752     -213.26735      8.1070749      0              75.860069      0              0              9.5473089      9.6666457      0.2            92.290453    
      9100   0.25029802     0.00031841486  0.00031841486  0              0             -140.93847      132.66629     -414.62447      0             -122.65314      0              0              9.5463456      9.6850763      0.2            92.457085    
      9200   0.22523113     0.00036101178  0.00036101178  0              0              169.46468      61.329731      277.53388      0              208.0453       0              0              9.5453822      9.675393       0.2            92.355324    
      9300   0.21791883     0.00056673421  0.00056673421  0              0              318.80821      426.49304      211.03072      0             -229.80448      0              0              9.5444189      9.672788       0.2            92.321141    
      9400   0.1827184      0.00046515187  0.00046515187  0              0             -390.9226      -378.75188     -403.18258      0             -241.03726      0              0              9.5434556      9.6774455      0.2            92.356271    
      9500   0.21426129     0.00034710855  0.00034710855  0              0             -33.481118     -136.55896      69.499595      0              457.73         0              0              9.5424922      9.6704677      0.2            92.280363    
      9600   0.19339907     0.00034916715  0.00034916715  0              0             -39.388056     -357.99438      279.15245      0             -6.8352418      0              0              9.5415289      9.6566343      0.2            92.139055    
      9700   0.16830416     0.00039999882  0.00039999882  0              0             -154.24754      68.485366     -377.0563       0             -520.27555      0              0              9.5405656      9.6653601      0.2            92.213002    
      9800   0.21719739     0.00044885859  0.00044885859  0              0              183.45998      271.05512      95.789226      0              124.81385      0              0              9.5396022      9.6570755      0.2            92.124659    
      9900   0.17773484     0.00040862472  0.00040862472  0              0             -131.93        -494.40896      230.4821       0              498.52025      0              0              9.5386389      9.6587983      0.2            92.131789    
     10000   0.23515369     0.00037324199  0.00037324199  0              0              178.80907      713.44974     -355.90918      0              672.22783      0              0              9.5376755      9.6697522      0.2            92.226959    
     10100   0.25131264     0.0004074807   0.0004074807   0              0             -82.434442     -112.28732     -52.657292      0              88.824225      0              0              9.5367122      9.6611607      0.2            92.135709    
     10200   0.34764329     0.00032403915  0.00032403915  0              0              174.82953     -54.955732      404.53181      0              202.34516      0              0              9.5357489      9.652944       0.2            92.048049    
     10300   0.2309096      0.00034459809  0.00034459809  0              0             -177.73819     -34.876642     -320.66772      0              310.68196      0              0              9.5347855      9.6563937      0.2            92.071643    
     10400   0.20786737     0.00033613006  0.00033613006  0              0             -390.23042     -690.19735     -90.333816      0             -39.906946      0              0              9.5338222      9.6505554      0.2            92.006679    
     10500   0.20878091     0.00035622327  0.00035622327  0              0              271.05382      213.12143      328.90792      0              21.988301      0              0              9.5328589      9.6483173      0.2            91.976047    
     10600   0.25511324     0.00037804025  0.00037804025  0              0              75.484544      345.89866     -195.03142      0              45.576713      0              0              9.5318955      9.6516484      0.2            91.998505    
     10700   0.22919175     0.00041239973  0.00041239973  0              0             -234.98495     -263.67168     -206.36757      0              21.368486      0              0              9.5309322      9.648136       0.2            91.95573     
     10800   0.2720623      0.0004703937   0.0004703937   0              0              36.649069     -344.00723      417.20927      0             -170.71981      0              0              9.5299688      9.629664       0.2            91.770398    
     10900   0.25450573     0.00046918128  0.00046918128  0              0              58.826082      295.01586     -177.43884      0              99.988751      0              0              9.5290055      9.6554997      0.2            92.00731     
     11000   0.24193294     0.00041008606  0.00041008606  0              0              86.36395       392.12438     -219.47712      0              221.0006       0              0              9.5280422      9.6515885      0.2            91.960742    
     11100   0.19960221     0.0003896325   0.0003896325   0              0              202.1383      -58.119503      462.33372      0             -416.93961      0              0              9.5270788      9.639194       0.2            91.833361    
     11200   0.18852896     0.00040446491  0.00040446491  0              0             -508.68528     -881.67375     -135.80479      0             -22.278259      0              0              9.5261155      9.6429687      0.2            91.860034    
     11300   0.12381715     0.00047707919  0.00047707919  0              0             -238.29259     -119.41865     -357.24572      0              89.588687      0              0              9.5251522      9.6401997      0.2            91.824369    
     11400   0.17771686     0.00047084251  0.00047084251  0              0              20.012576     -478.3997       518.34399      0             -388.143        0              0              9.5241888      9.6285681      0.2            91.7043      
     11500   0.18161291     0.00048274863  0.00048274863  0              0             -8.7736881      128.59142     -146.20592      0              139.17945      0              0              9.5232255      9.653074       0.2            91.9284      
     11600   0.23010676     0.00040679605  0.00040679605  0              0             -191.97326      97.552786     -481.5833       0             -176.57608      0              0              9.5222621      9.6501832      0.2            91.891574    
     11700   0.16910184     0.00062018609  0.00062018609  0              0              585.85731      544.70205      626.94028      0             -313.03409      0              0              9.5212988      9.6320902      0.2            91.710009    
     11800   0.20191655     0.00031371581  0.00031371581  0              0              137.34639      338.77869     -64.175577      0             -149.45088      0              0              9.5203355      9.649413       0.2            91.865649    
     11900   0.22813704     0.00047776359  0.00047776359  0              0              397.85287      1424.3738     -628.76314      0             -17.617381      0              0              9.5193721      9.6513005      0.2            91.874321    
     12000   0.26097356     0.00036095005  0.00036095005  0              0              400.31432     -12.866808      813.41613      0             -4.3609113      0              0              9.5184088      9.625013       0.2            91.614809    
     12100   0.22783147     0.00044186853  0.00044186853  0              0             -249.47663     -329.87767     -169.18694      0             -133.14233      0              0              9.5174455      9.6453297      0.2            91.798899    
     12200   0.22704672     0.00063929577  0.00063929577  0              0             -499.92442     -222.0944      -777.82208      0             -131.44047      0              0              9.5164821      9.6493416      0.2            91.827787    
     12300   0.23373065     0.00041835943  0.00041835943  0              0              598.94695      243.32161      954.4821       0              21.21279       0              0              9.5155188      9.627188       0.2            91.607688    
     12400   0.18431472     0.00036305986  0.00036305986  0              0             -146.99371     -183.61353     -110.45691      0              115.14634      0              0              9.5145554      9.6314164      0.2            91.638645    
     12500   0.24887305     0.00045749021  0.00045749021  0              0             -566.35406     -318.89921     -813.88782      0             -189.89646      0              0              9.5135921      9.6502716      0.2            91.808747    
     12600   0.18822997     0.00043896097  0.00043896097  0              0              762.68964      599.40737      925.87914      0             -118.74677      0              0              9.5126288      9.6238073      0.2            91.547707    
     12700   0.23974669     0.000406032    0.000406032    0              0             -79.125522      20.902698     -179.22836      0             -237.83169      0              0              9.5116654      9.6278224      0.2            91.576625    
     12800   0.17104758     0.00038500794  0.00038500794  0              0             -344.36894     -5.9971832     -682.83565      0              138.66016      0              0              9.5107021      9.634808       0.2            91.633789    
     12900   0.18866426     0.00039430756  0.00039430756  0              0              772.24807      708.05188      836.37919      0              205.71962      0              0              9.5097388      9.6125284      0.2            91.412634    
     13000   0.21191318     0.0004040811   0.0004040811   0              0             -297.39917     -382.74564     -212.15765      0             -132.02842      0              0              9.5087754      9.6304302      0.2            91.573598    
     13100   0.17643753     0.0004562773   0.0004562773   0              0             -188.3679       122.05791     -498.8718       0              2.0399365      0              0              9.5078121      9.6318977      0.2            91.578273    
     13200   0.23987077     0.00040065261  0.00040065261  0              0              459.74519      208.69126      710.71704      0              39.955991      0              0              9.5068487      9.6111445      0.2            91.371697    
     13300   0.17430212     0.00033342549  0.00033342549  0              0             -393.55342     -503.87441     -283.3304       0              195.45272      0              0              9.5058854      9.6180061      0.2            91.427664    
     13400   0.22392498     0.00031048984  0.00031048984  0              0             -224.08307     -42.284775     -405.96041      0             -483.25306      0              0              9.5049221      9.6290169      0.2            91.523055    
     13500   0.21392701     0.00034216921  0.00034216921  0              0              446.95098      260.51993      633.31499      0              234.62215      0              0              9.5039587      9.607006       0.2            91.304588    
     13600   0.26498879     0.00040302807  0.00040302807  0              0             -339.38628     -356.28494     -322.56102      0             -174.97179      0              0              9.5029954      9.6190341      0.2            91.409637    
     13700   0.24629865     0.00053498565  0.00053498565  0              0             -510.29817     -798.27065     -222.41768      0              246.68029      0              0              9.5020321      9.6175998      0.2            91.386741    
     13800   0.26163927     0.0004948351   0.0004948351   0              0              273.48125     -66.339661      613.21926      0             -163.54869      0              0              9.5010687      9.6093183      0.2            91.298794    
     13900   0.26651229     0.00042735728  0.00042735728  0              0             -344.59242     -243.05187     -446.23276      0             -265.76164      0              0              9.5001054      9.6250276      0.2            91.438777    
     14000   0.16073705     0.00044687698  0.00044687698  0              0             -319.26958     -560.06044     -78.552307      0              79.29288       0              0              9.499142       9.6152288      0.2            91.336424    
     14100   0.2548172      0.00024947328  0.00024947328  0              0              205.89673     -123.34004      535.06957      0              376.09998      0              0              9.4981787      9.6034576      0.2            91.215356    
     14200   0.21908045     0.00028797279  0.00028797279  0              0             -132.214        219.8264      -484.35041      0              353.67155      0              0              9.4972154      9.6100779      0.2            91.268979    
     14300   0.19145522     0.00046030109  0.00046030109  0              0             -4.259049       6.0914856     -14.688096      0              165.81144      0              0              9.496252       9.6090492      0.2            91.249953    
     14400   0.23330243     0.00029094259  0.00029094259  0              0              191.29632     -35.647027      418.1574       0              282.10084      0              0              9.4952887      9.6016125      0.2            91.170082    
     14500   0.22806224     0.00033811231  0.00033811231  0              0             -182.89892      28.307504     -394.186        0             -95.952004      0              0              9.4943254      9.6218337      0.2            91.35282     
     14600   0.18940579     0.00025902136  0.00025902136  0              0              212.40844      366.57219      58.139979      0             -137.45306      0              0              9.493362       9.6144978      0.2            91.273908    
     14700   0.20024895     0.00038692367  0.00038692367  0              0             -331.72243     -986.44416      322.90466      0              305.62774      0              0              9.4923987      9.6046933      0.2            91.171579    
     14800   0.22009478     0.00048261356  0.00048261356  0              0             -557.07952     -594.26194     -519.97195      0             -407.64101      0              0              9.4914354      9.6152315      0.2            91.262348    
     14900   0.17302343     0.00047492823  0.00047492823  0              0              589.80294      865.51181      314.03359      0              286.6107       0              0              9.490472       9.6011548      0.2            91.119491    
     15000   0.22798825     0.00038272205  0.00038272205  0              0              401.3977       603.25415      199.47318      0              426.62145      0              0              9.4895087      9.619579       0.2            91.285078    
     15100   0.2031367      0.00045631418  0.00045631418  0              0             -561.43609     -538.43405     -584.52214      0             -294.91527      0              0              9.4885453      9.6252792      0.2            91.329898    
     15200   0.22478141     0.00048203762  0.00048203762  0              0              167.42124     -51.40701       386.14372      0              342.76361      0              0              9.487582       9.6153187      0.2            91.226124    
     15300   0.17358348     0.00031844698  0.00031844698  0              0             -29.774113     -164.3998       104.74808      0              147.38383      0              0              9.4866187      9.6114748      0.2            91.180396    
     15400   0.1530117      0.00046420022  0.00046420022  0              0             -205.74561      119.10581     -530.68216      0              98.336791      0              0              9.4856553      9.6255906      0.2            91.305035    
     15500   0.19998352     0.00050552822  0.00050552822  0              0              68.544698     -161.94395      298.96747      0              518.8989       0              0              9.484692       9.6080826      0.2            91.129704    
     15600   0.21959782     0.00039353176  0.00039353176  0              0              53.725154     -81.122527      188.50051      0              339.91531      0              0              9.4837287      9.622889       0.2            91.260868    
     15700   0.22177378     0.00038603403  0.00038603403  0              0             -37.2107        426.17572     -500.68725      0             -28.309729      0              0              9.4827653      9.6309331      0.2            91.327878    
     15800   0.20962383     0.00037657398  0.00037657398  0              0              621.48793      921.19778      321.70393      0              401.79001      0              0              9.481802       9.6153352      0.2            91.170705    
     15900   0.17283248     0.00032422373  0.00032422373  0              0             -151.31774     -470.19046      167.4729       0             -142.72587      0              0              9.4808386      9.6088354      0.2            91.099818    
     16000   0.18659447     0.00050095495  0.00050095495  0              0             -369.34062     -366.12229     -372.64395      0              203.43091      0              0              9.4798753      9.6162615      0.2            91.160959    
     16100   0.22564131     0.0005041219   0.0005041219   0              0              180.16302      66.480751      293.7906       0             -378.59801      0              0              9.478912       9.5855877      0.2            90.860942    
     16200   0.22837503     0.00033625667  0.00033625667  0              0             -277.74517     -571.37825      15.816493      0             -379.87982      0              0              9.4779486      9.5939871      0.2            90.931317    
     16300   0.26464624     0.0002859022   0.0002859022   0              0              128.80352      451.17346     -193.66171      0              57.190835      0              0              9.4769853      9.5978107      0.2            90.958311    
     16400   0.16855444     0.00037443593  0.00037443593  0              0             -130.63871     -482.61684      221.265        0             -258.05767      0              0              9.476022       9.5910299      0.2            90.884809    
     16500   0.24845589     0.00027127757  0.00027127757  0              0             -131.58154     -232.69434     -30.553481      0              100.08802      0              0              9.4750586      9.5913434      0.2            90.878541    
     16600   0.17991625     0.00052100795  0.00052100795  0              0              179.82291      548.27408     -188.72235      0             -100.3196       0              0              9.4740953      9.5985775      0.2            90.937837    
     16700   0.2317694      0.00035163962  0.00035163962  0              0              62.313602     -111.20383      235.73751      0             -180.93396      0              0              9.4731319      9.5968263      0.2            90.912001    
     16800   0.16831239     0.00046139371  0.00046139371  0              0              310.50461      691.3279      -70.377435      0             -81.133438      0              0              9.4721686      9.6161043      0.2            91.085361    
     16900   0.24532452     0.0003202402   0.0003202402   0              0             -186.48628     -220.23119     -152.8369       0             -130.33236      0              0              9.4712053      9.6314496      0.2            91.221436    
     17000   0.19928136     0.00041247836  0.00041247836  0              0             -126.60229     -432.6407       179.34489      0             -127.09283      0              0              9.4702419      9.6183442      0.2            91.088047    
     17100   0.33161255     0.00042219024  0.00042219024  0              0             -234.97454     -410.51213     -59.517422      0              210.98634      0              0              9.4692786      9.6148332      0.2            91.045534    
     17200   0.18153102     0.00046075487  0.00046075487  0              0             -207.79388     -354.36358     -61.340363      0              82.178669      0              0              9.4683153      9.604638       0.2            90.939741    
     17300   0.18139175     0.00045132273  0.00045132273  0              0             -21.33531      -190.85076      148.10449      0              355.78815      0              0              9.4673519      9.6236218      0.2            91.110215    
     17400   0.14131152     0.00052214917  0.00052214917  0              0             -302.99647     -609.31411      3.2373584      0             -483.73919      0              0              9.4663886      9.6220955      0.2            91.086495    
     17500   0.21497314     0.00045663218  0.00045663218  0              0             -423.63491     -734.69053     -112.65375      0             -334.85935      0              0              9.4654252      9.6353787      0.2            91.202957    
     17600   0.30305764     0.00051433511  0.00051433511  0              0             -219.47354     -577.17183      138.14013      0              145.13157      0              0              9.4644619      9.6276515      0.2            91.120541    
     17700   0.2079826      0.000435718    0.000435718    0              0              152.96195      327.25932     -21.417582      0              239.49707      0              0              9.4634986      9.6339362      0.2            91.170741    
     17800   0.20695267     0.00053158072  0.00053158072  0              0             -420.5955      -738.5444      -102.73105      0             -30.814429      0              0              9.4625352      9.6436459      0.2            91.253339    
     17900   0.20523902     0.00035540403  0.00035540403  0              0             -55.620324     -208.51618      97.180803      0             -288.18204      0              0              9.4615719      9.6525207      0.2            91.328019    
     18000   0.18824504     0.00040318073  0.00040318073  0              0              103.45744      144.94251      61.896022      0             -179.05454      0              0              9.4606086      9.6380909      0.2            91.182205    
     18100   0.1738025      0.00053509117  0.00053509117  0              0              178.95326      526.0428      -168.24029      0             -479.77678      0              0              9.4596452      9.6588639      0.2            91.369426    
     18200   0.21463715     0.00039251049  0.00039251049  0              0             -16.181016     -116.51126      84.03675       0             -10.481601      0              0              9.4586819      9.6505612      0.2            91.281588    
     18300   0.25060079     0.00045519622  0.00045519622  0              0              347.51363      643.99907      50.952125      0              98.441154      0              0              9.4577185      9.6576268      0.2            91.339116    
     18400   0.19463972     0.00041135859  0.00041135859  0              0              234.13618      608.73408     -140.53575      0              168.36538      0              0              9.4567552      9.6657431      0.2            91.406566    
     18500   0.23454017     0.00038608014  0.00038608014  0              0             -266.45293     -585.30308      52.309894      0             -322.52723      0              0              9.4557919      9.6719177      0.2            91.455641    
     18600   0.23242143     0.00038713606  0.00038713606  0              0              13.435583      7.5553393      19.225887      0             -513.20293      0              0              9.4548285      9.6762255      0.2            91.487053    
     18700   0.14900373     0.00036210812  0.00036210812  0              0             -226.26961     -401.04841     -51.571315      0              182.3732       0              0              9.4538652      9.6865908      0.2            91.575723    
     18800   0.22056846     0.00039652452  0.00039652452  0              0              179.98174      373.5186      -13.631599      0              100.09046      0              0              9.4529019      9.6826044      0.2            91.528709    
     18900   0.12635467     0.00046693485  0.00046693485  0              0              110.77955      168.64845      52.82632       0              218.57911      0              0              9.4519385      9.6886414      0.2            91.576443    
     19000   0.19512015     0.00029446188  0.00029446188  0              0              43.695289      115.83161     -28.522301      0             -5.2305755      0              0              9.4509752      9.690744       0.2            91.586981    
     19100   0.27601422     0.00030201206  0.00030201206  0              0              29.942198      120.06287     -60.273571      0             -377.83761      0              0              9.4500118      9.6858971      0.2            91.531842    
     19200   0.23636611     0.00041592347  0.00041592347  0              0             -139.61708     -344.83962      65.531768      0             -187.81558      0              0              9.4490485      9.680923       0.2            91.475511    
     19300   0.21351567     0.000458586    0.000458586    0              0             -47.943824     -131.06731      35.089332      0             -85.829241      0              0              9.4480852      9.6741044      0.2            91.401762    
     19400   0.29284978     0.00048208419  0.00048208419  0              0              100.94215      344.37469     -142.56346      0              186.90442      0              0              9.4471218      9.6749755      0.2            91.400672    
     19500   0.17300366     0.00045325484  0.00045325484  0              0              210.36487      283.10339      137.53431      0             -213.14295      0              0              9.4461585      9.682295       0.2            91.460493    
     19600   0.23628529     0.00039750891  0.00039750891  0              0              100.8753       201.87768     -0.19309794     0             -528.5747       0              0              9.4451952      9.6734403      0.2            91.367531    
     19700   0.19417049     0.00044298021  0.00044298021  0              0             -332.26791     -593.16103     -71.461835      0             -323.2566       0              0              9.4442318      9.6878124      0.2            91.493947    
     19800   0.19581945     0.00032195194  0.00032195194  0              0              139.94179      297.35326     -17.551517      0             -163.4227       0              0              9.4432685      9.6817621      0.2            91.427479    
     19900   0.18137748     0.00040665909  0.00040665909  0              0             -475.11935     -962.54892      12.233876      0             -183.51787      0              0              9.4423051      9.6815742      0.2            91.416378    
     20000   0.17349385     0.00035043077  0.00035043077  0              0             -210.68916     -435.06551      13.601885      0             -374.32907      0              0              9.4413418      9.6811632      0.2            91.403171    
     20100   0.20914624     0.00031668959  0.00031668959  0              0             -132.07238     -260.35559     -3.8905127      0              275.26251      0              0              9.4403785      9.6864358      0.2            91.44362     
     20200   0.16944211     0.0005644759   0.0005644759   0              0             -254.10073     -521.01301      12.733092      0             -199.76162      0              0              9.4394151      9.6897107      0.2            91.465202    
     20300   0.16127582     0.00045361975  0.00045361975  0              0             -64.522775     -176.10227      46.989122      0              182.67009      0              0              9.4384518      9.6875465      0.2            91.435441    
     20400   0.19131654     0.00040985095  0.00040985095  0              0              213.70451      481.70052     -54.341888      0             -51.825418      0              0              9.4374885      9.6992207      0.2            91.536283    
     20500   0.29980577     0.00035825986  0.00035825986  0              0             -119.94836     -245.82929      5.850012       0              392.39024      0              0              9.4365251      9.701622       0.2            91.5496      
     20600   0.24751059     0.00027940743  0.00027940743  0              0              90.3135        31.401583      149.14582      0             -229.75233      0              0              9.4355618      9.7086951      0.2            91.606992    
     20700   0.14588711     0.00050828726  0.00050828726  0              0             -13.493239      0.59155311    -27.656501      0             -297.25122      0              0              9.4345984      9.7105667      0.2            91.615298    
     20800   0.1741642      0.00041518636  0.00041518636  0              0             -230.99509     -338.6963      -123.39339      0             -82.917018      0              0              9.4336351      9.7045435      0.2            91.549122    
     20900   0.14330539     0.00051453263  0.00051453263  0              0              26.154838     -102.32447      154.5533       0             -414.5989       0              0              9.4326718      9.7043614      0.2            91.538056    
     21000   0.24132932     0.0003575909   0.0003575909   0              0             -252.15349     -462.70399     -41.671089      0             -2.5733554      0              0              9.4317084      9.7169707      0.2            91.647634    
     21100   0.22513272     0.00041910509  0.00041910509  0              0             -360.40098     -585.04252     -135.83045      0              689.53291      0              0              9.4307451      9.7262818      0.2            91.726085    
     21200   0.20647179     0.00056097071  0.00056097071  0              0              185.57455      287.57578      83.493771      0             -145.58566      0              0              9.4297818      9.7101797      0.2            91.564876    
     21300   0.20892806     0.00030446923  0.00030446923  0              0              242.3599       475.54051      9.1139331      0             -25.86262       0              0              9.4288184      9.7303504      0.2            91.745707    
     21400   0.26431029     0.00050486495  0.00050486495  0              0             -541.22762     -1039.5197     -43.004181      0              230.95911      0              0              9.4278551      9.7286968      0.2            91.720744    
     21500   0.23454312     0.00043559998  0.00043559998  0              0              90.376013      98.008326      82.652425      0              96.204532      0              0              9.4268917      9.7476716      0.2            91.890245    
     21600   0.1869436      0.00051322807  0.00051322807  0              0              148.35266      228.0527       68.577912      0             -268.04213      0              0              9.4259284      9.7486137      0.2            91.889735    
     21700   0.1990883      0.00061192773  0.00061192773  0              0             -408.67691     -665.61566     -151.83027      0             -194.70627      0              0              9.4249651      9.742877       0.2            91.826275    
     21800   0.24684857     0.00044270749  0.00044270749  0              0              108.6994       199.66396      17.639854      0             -170.17558      0              0              9.4240017      9.7445099      0.2            91.832278    
     21900   0.28483371     0.00031611497  0.00031611497  0              0              8.1828436     -209.91951      226.21979      0              110.27282      0              0              9.4230384      9.7460699      0.2            91.837591    
     22000   0.18846726     0.00045988043  0.00045988043  0              0             -4.2411008      99.273441     -107.82276      0             -339.85024      0              0              9.4220751      9.7544172      0.2            91.906851    
     22100   0.24963806     0.00040535199  0.00040535199  0              0             -94.783542     -30.457158     -159.19133      0             -348.70559      0              0              9.4211117      9.7627196      0.2            91.975672    
     22200   0.22582133     0.00052580712  0.00052580712  0              0              437.76009      721.02484      154.40676      0             -609.74556      0              0              9.4201484      9.7581126      0.2            91.922868    
     22300   0.16028651     0.00059755875  0.00059755875  0              0              290.98329      550.19771      31.699959      0             -444.6996       0              0              9.419185       9.7577934      0.2            91.910462    
     22400   0.26158082     0.00063897817  0.00063897817  0              0             -318.69412     -434.10689     -203.35266      0             -117.88152      0              0              9.4182217      9.7617685      0.2            91.9385      
     22500   0.16665763     0.00048252416  0.00048252416  0              0             -130.36839     -362.78738      101.94022      0              127.66554      0              0              9.4172584      9.7567804      0.2            91.882122    
     22600   0.23440394     0.00048319842  0.00048319842  0              0              54.482326     -2.9599719      111.86288      0              263.18029      0              0              9.416295       9.7606217      0.2            91.908894    
     22700   0.20797812     0.00040102591  0.00040102591  0              0              14.839834      217.88551     -188.2943       0              334.84009      0              0              9.4153317      9.7684142      0.2            91.97286     
     22800   0.23807943     0.00050250269  0.00050250269  0              0              98.006604      156.17932      39.759215      0             -223.57674      0              0              9.4143684      9.7594484      0.2            91.879043    
     22900   0.16246937     0.00048147557  0.00048147557  0              0              180.52856      123.54841      237.43423      0              249.67436      0              0              9.413405       9.7643861      0.2            91.916121    
     23000   0.20968574     0.00045151071  0.00045151071  0              0             -131.96681     -28.786883     -235.24404      0              7.8660562      0              0              9.4124417      9.7590382      0.2            91.856378    
     23100   0.17210071     0.00041098133  0.00041098133  0              0             -193.231       -245.92883     -140.60592      0             -421.52253      0              0              9.4114784      9.7598842      0.2            91.854939    
     23200   0.21640754     0.00048337915  0.00048337915  0              0              99.576865     -175.0962       374.16234      0              333.99722      0              0              9.410515       9.758292       0.2            91.830554    
     23300   0.16834634     0.00066706586  0.00066706586  0              0              481.54017      1027.8001     -64.805532      0              302.49734      0              0              9.4095517      9.7657579      0.2            91.891404    
     23400   0.21509093     0.00044235661  0.00044235661  0              0             -339.11346     -278.58892     -399.70835      0             -118.5806       0              0              9.4085883      9.7644784      0.2            91.869958    
     23500   0.16400281     0.00038302002  0.00038302002  0              0             -67.911733     -493.08543      357.1672       0             -99.416017      0              0              9.407625       9.7516209      0.2            91.739593    
     23600   0.20739285     0.00041623181  0.00041623181  0              0              412.85801      624.25736      201.39057      0             -89.956464      0              0              9.4066617      9.7464176      0.2            91.681253    
     23700   0.19182171     0.00048935025  0.00048935025  0              0             -417.49933     -296.10992     -538.96478      0             -130.96895      0              0              9.4056983      9.767931       0.2            91.874212    
     23800   0.18600265     0.00058671876  0.00058671876  0              0              404.17413      585.03625      223.24716      0             -85.79624       0              0              9.404735       9.7579327      0.2            91.770771    
     23900   0.22650069     0.0003847278   0.0003847278   0              0              262.75134      88.873185      436.54944      0              55.161994      0              0              9.4037717      9.7542772      0.2            91.726996    
     24000   0.21111659     0.00050627224  0.00050627224  0              0              99.751121      742.59975     -543.17998      0             -228.77713      0              0              9.4028083      9.7755373      0.2            91.917503    
     24100   0.231804       0.00034419395  0.00034419395  0              0             -277.42265     -434.29817     -120.64432      0              27.519561      0              0              9.401845       9.7575817      0.2            91.739271    
     24200   0.23827681     0.0004680745   0.0004680745   0              0              436.06893      264.76821      607.31461      0             -163.82858      0              0              9.4008816      9.737698       0.2            91.542946    
     24300   0.37955163     0.00045616801  0.00045616801  0              0             -349.84596     -377.63999     -322.12092      0             -456.53821      0              0              9.3999183      9.7544447      0.2            91.690983    
     24400   0.15963036     0.00034999789  0.00034999789  0              0             -576.23533     -820.49217     -332.04221      0              4.8609981      0              0              9.398955       9.7424394      0.2            91.568749    
     24500   0.22898973     0.00041605711  0.00041605711  0              0              129.45211     -336.81876      595.63354      0             -578.03578      0              0              9.3979916      9.732653       0.2            91.467391    
     24600   0.21133261     0.0004933441   0.0004933441   0              0              119.59624      362.0249      -122.8868       0              270.84845      0              0              9.3970283      9.7454896      0.2            91.578641    
     24700   0.1977627      0.00060575265  0.00060575265  0              0             -251.61106      103.2305      -606.54234      0              165.51139      0              0              9.396065       9.7608353      0.2            91.713442    
     24800   0.24078046     0.00043784084  0.00043784084  0              0              98.656777     -272.87919      470.13411      0              387.66762      0              0              9.3951016      9.7394832      0.2            91.503435    
     24900   0.15996095     0.00047611667  0.00047611667  0              0              277.8418       298.0797       257.54327      0              21.008519      0              0              9.3941383      9.742558       0.2            91.522937    
     25000   0.18402067     0.00060304875  0.00060304875  0              0             -355.12993      8.5377993     -718.88274      0             -380.85918      0              0              9.3931749      9.7568346      0.2            91.647654    
     25100   0.23706131     0.00050346714  0.00050346714  0              0              64.549016     -115.58455      244.61422      0              285.54658      0              0              9.3922116      9.7274812      0.2            91.362562    
     25200   0.24424058     0.00042884283  0.00042884283  0              0              51.817382     -417.50591      521.07373      0             -46.485588      0              0              9.3912483      9.7156442      0.2            91.242027    
     25300   0.20144328     0.00039115803  0.00039115803  0              0             -629.83287     -600.82642     -658.9153       0             -288.10954      0              0              9.3902849      9.7277665      0.2            91.346499    
     25400   0.24762472     0.00034333457  0.00034333457  0              0             -266.85544     -495.33717     -38.429513      0              115.77991      0              0              9.3893216      9.7113381      0.2            91.182876    
     25500   0.17827541     0.0004915269   0.0004915269   0              0              86.534906     -377.95997      550.92918      0              36.668749      0              0              9.3883583      9.7148316      0.2            91.20632     
     25600   0.2596128      0.00040609749  0.00040609749  0              0             -290.98796     -171.01036     -411.0342       0              84.04962       0              0              9.3873949      9.7273725      0.2            91.314687    
     25700   0.24884418     0.00041977964  0.00041977964  0              0              279.45391      709.60903     -150.77244      0              151.06734      0              0              9.3864316      9.7183178      0.2            91.220325    
     25800   0.25257252     0.00038345687  0.00038345687  0              0              396.04625      299.21308      492.79216      0              55.352046      0              0              9.3854682      9.720211       0.2            91.228731    
     25900   0.18672453     0.00040411679  0.00040411679  0              0              20.110704      197.25186     -157.14249      0             -412.28099      0              0              9.3845049      9.7265736      0.2            91.279078    
     26000   0.15762236     0.00042096359  0.00042096359  0              0              97.383196      421.17145     -226.48063      0              322.60736      0              0              9.3835416      9.7281311      0.2            91.284322    
     26100   0.23051873     0.000410032    0.000410032    0              0             -25.928985     -299.00967      247.06757      0              276.04939      0              0              9.3825782      9.7302155      0.2            91.294508    
     26200   0.24425634     0.00048463874  0.00048463874  0              0              152.31852      318.413       -13.846975      0              121.02132      0              0              9.3816149      9.7337466      0.2            91.318262    
     26300   0.221804       0.00045043614  0.00045043614  0              0             -117.33883     -50.944192     -183.81718      0              378.3569       0              0              9.3806516      9.736936       0.2            91.338804    
     26400   0.2223385      0.00047878603  0.00047878603  0              0              247.29179      403.91017      90.594169      0              81.921211      0              0              9.3796882      9.7233382      0.2            91.201881    
     26500   0.17623385     0.0005317429   0.0005317429   0              0              13.714407     -33.211958      60.548999      0              299.31886      0              0              9.3787249      9.7346342      0.2            91.298456    
     26600   0.21043946     0.00037488032  0.00037488032  0              0              128.00167      315.02292     -59.113409      0              166.71119      0              0              9.3777615      9.7178255      0.2            91.13145     
     26700   0.14896418     0.0003486662   0.0003486662   0              0              63.849059      205.58011     -77.98576       0             -426.21663      0              0              9.3767982      9.7280165      0.2            91.217647    
     26800   0.25151306     0.00036411331  0.00036411331  0              0              292.05242      492.49554      91.529408      0              136.43416      0              0              9.3758349      9.7153049      0.2            91.089094    
     26900   0.15111561     0.0004084922   0.0004084922   0              0             -292.41197     -579.74588     -5.1491049      0              380.71087      0              0              9.3748715      9.7092382      0.2            91.02286     
     27000   0.21376764     0.0004233276   0.0004233276   0              0             -42.573132     -104.90981      19.690201      0              300.52031      0              0              9.3739082      9.7096671      0.2            91.017528    
     27100   0.21519582     0.00039683942  0.00039683942  0              0             -39.134417     -78.591318      0.23710656     0             -677.15307      0              0              9.3729449      9.7132856      0.2            91.04209     
     27200   0.24186204     0.00047520904  0.00047520904  0              0             -256.12153     -504.72013     -7.6008318      0             -134.20073      0              0              9.3719815      9.6973488      0.2            90.883374    
     27300   0.26885534     0.00045914929  0.00045914929  0              0             -497.96341     -1014.2567      18.247024      0             -219.07554      0              0              9.3710182      9.7038848      0.2            90.935281    
     27400   0.20181701     0.00051683891  0.00051683891  0              0              27.445903      99.710124     -44.902192      0              340.86144      0              0              9.3700548      9.7110455      0.2            90.993029    
     27500   0.20450883     0.00036908811  0.00036908811  0              0             -177.68912     -286.05875     -69.405856      0             -48.985668      0              0              9.3690915      9.7170727      0.2            91.040143    
     27600   0.20422397     0.00027714675  0.00027714675  0              0             -297.39787     -619.30152      24.432484      0             -114.95604      0              0              9.3681282      9.71851        0.2            91.044247    
     27700   0.16990381     0.00047800908  0.00047800908  0              0             -123.34955     -233.25051     -13.54009       0              354.25744      0              0              9.3671648      9.7203111      0.2            91.051756    
     27800   0.22688519     0.00032410267  0.00032410267  0              0             -34.784859     -31.00773      -38.653416      0              347.70161      0              0              9.3662015      9.7205988      0.2            91.045087    
[...]
     42800   0.20279273     0.00045425663  0.00045425663  0              0             -604.25686     -880.39838     -328.20264      0             -73.235598      0              0              9.2217009      9.7389873      0.2            89.810028    
     42900   0.24282002     0.00049639729  0.00049639729  0              0             -256.35802     -327.10967     -185.69707      0              384.78191      0              0              9.2207376      9.750467       0.2            89.906497    
     43000   0.16177087     0.00039922128  0.00039922128  0              0              524.13537      575.1804       472.97648      0              8.3252497      0              0              9.2197742      9.7462181      0.2            89.857931    
     43100   0.18631444     0.00044391098  0.00044391098  0              0             -187.01318     -147.86941     -226.25175      0              268.30202      0              0              9.2188109      9.7486917      0.2            89.871345    
     43200   0.19202854     0.00046117875  0.00046117875  0              0             -106.66459      38.292672     -251.68636      0             -503.6729       0              0              9.2178475      9.7640471      0.2            90.003498    
     43300   0.20694888     0.00034330798  0.00034330798  0              0              286.67738      180.92876      392.35076      0              228.464        0              0              9.2168842      9.7371251      0.2            89.745955    
     43400   0.2524801      0.00032726264  0.00032726264  0              0              139.37003      325.88235     -47.21666       0              519.04028      0              0              9.2159209      9.7487617      0.2            89.843817    
     43500   0.17890799     0.00057007954  0.00057007954  0              0             -52.185969      171.40423     -275.83556      0              41.576005      0              0              9.2149575      9.7433202      0.2            89.784282    
     43600   0.24340989     0.0003523762   0.0003523762   0              0              259.10664      276.04731      242.08123      0             -46.005984      0              0              9.2139942      9.73534        0.2            89.701367    
     43700   0.18236809     0.00043694597  0.00043694597  0              0              223.17213      385.15683      61.103694      0             -1.9991634      0              0              9.2130309      9.7470228      0.2            89.799622    
     43800   0.14347491     0.0004241255   0.0004241255   0              0             -253.56476     -220.44099     -286.78205      0             -683.38908      0              0              9.2120675      9.7465722      0.2            89.786081    
     43900   0.14414456     0.00025952519  0.00025952519  0              0              365.44038      570.00087      160.80329      0             -18.454247      0              0              9.2111042      9.7453977      0.2            89.765873    
     44000   0.16992966     0.00052491422  0.00052491422  0              0              314.42625      537.28054      91.482336      0              75.314653      0              0              9.2101408      9.7493273      0.2            89.792677    
     44100   0.1841844      0.00050942106  0.00050942106  0              0             -277.54511     -358.34811     -196.81234      0              331.86017      0              0              9.2091775      9.7522455      0.2            89.81016     
     44200   0.18445074     0.00039219878  0.00039219878  0              0              152.11695      174.00322      130.12935      0              569.13244      0              0              9.2082142      9.758377       0.2            89.857225    
     44300   0.20293858     0.00029977534  0.00029977534  0              0              143.27441      235.9808       50.508497      0             -187.78378      0              0              9.2072508      9.7456323      0.2            89.730481    
     44400   0.18366577     0.00042045065  0.00042045065  0              0             -403.60809     -605.99575     -201.30904      0              470.28359      0              0              9.2062875      9.737835       0.2            89.649309    
     44500   0.23637354     0.0004047741   0.0004047741   0              0             -10.733083     -193.03277      171.46428      0              231.39579      0              0              9.2053242      9.7401297      0.2            89.661051    
     44600   0.19091249     0.000320874    0.000320874    0              0              275.05116      478.52549      71.506038      0              433.50714      0              0              9.2043608      9.740919       0.2            89.658933    
     44700   0.30941612     0.00045470049  0.00045470049  0              0             -285.67765     -356.43293     -215.02442      0             -424.76824      0              0              9.2033975      9.7393269      0.2            89.634897    
     44800   0.21280866     0.00049725004  0.00049725004  0              0             -95.76132      -371.60755      179.98578      0             -100.99883      0              0              9.2024341      9.7419529      0.2            89.64968     
     44900   0.20802127     0.00044016533  0.00044016533  0              0              514.72722      969.76345      59.629606      0             -289.40746      0              0              9.2014708      9.7571613      0.2            89.780235    
     45000   0.15520402     0.00041822174  0.00041822174  0              0             -439.0798      -643.27751     -234.96594      0              358.57782      0              0              9.2005075      9.7614547      0.2            89.810337    
     45100   0.24595981     0.00027317399  0.00027317399  0              0              170.5866       87.296886      253.78062      0             -69.514626      0              0              9.1995441      9.7509228      0.2            89.704045    
     45200   0.23244176     0.00035062819  0.00035062819  0              0              229.35748      391.304        67.32202       0             -278.1209       0              0              9.1985808      9.7625738      0.2            89.801824    
     45300   0.23114855     0.0003686639   0.0003686639   0              0             -86.514796      217.43334     -390.53298      0             -211.56818      0              0              9.1976175      9.7598124      0.2            89.767021    
     45400   0.27394239     0.00046874783  0.00046874783  0              0             -68.296986     -408.25003      271.56148      0             -373.54699      0              0              9.1966541      9.7441313      0.2            89.613405    
     45500   0.1925976      0.00049809742  0.00049809742  0              0              395.818        593.16563      198.36984      0              70.959951      0              0              9.1956908      9.7497034      0.2            89.655258    
     45600   0.19585095     0.00047169108  0.00047169108  0              0             -248.00534     -13.261571     -482.84952      0             -386.39356      0              0              9.1947274      9.7655775      0.2            89.791824    
     45700   0.25948073     0.00048836193  0.00048836193  0              0              355.45446      440.53509      270.29025      0             -151.76149      0              0              9.1937641      9.771665       0.2            89.838383    
     45800   0.25275672     0.00046322046  0.00046322046  0              0              158.50074     -8.6484719      325.56656      0             -340.52327      0              0              9.1928008      9.7647707      0.2            89.765592    
     45900   0.25461946     0.00047772927  0.00047772927  0              0             -827.13113     -1045.1644     -609.18252      0             -297.57082      0              0              9.1918374      9.7705148      0.2            89.808984    
     46000   0.21141302     0.00040917296  0.00040917296  0              0             -207.22955     -578.87143      164.31501      0              491.67154      0              0              9.1908741      9.7648341      0.2            89.74736     
     46100   0.20170327     0.00041629917  0.00041629917  0              0              140.24962     -290.60705      571.02575      0             -409.83782      0              0              9.1899108      9.7728234      0.2            89.811375    
     46200   0.18462427     0.00048450761  0.00048450761  0              0             -450.74065     -130.95309     -770.6221       0             -109.53076      0              0              9.1889474      9.8057836      0.2            90.10483     
     46300   0.25352336     0.00054226843  0.00054226843  0              0             -302.76244     -444.55753     -161.0427       0             -145.52521      0              0              9.1879841      9.8060888      0.2            90.098188    
     46400   0.151595       0.00054676065  0.00054676065  0              0              561.42735      212.17313      910.5962       0              0.40517762     0              0              9.1870207      9.7878965      0.2            89.921608    
     46500   0.18632951     0.00041002379  0.00041002379  0              0             -57.553319      294.45473     -409.65008      0              273.83665      0              0              9.1860574      9.8014616      0.2            90.036789    
     46600   0.18758594     0.00043799145  0.00043799145  0              0             -407.00944     -127.20531     -686.8991       0             -526.04972      0              0              9.1850941      9.7914785      0.2            89.935651    
     46700   0.19334152     0.00050282632  0.00050282632  0              0              795.72947      695.09057      896.27826      0              136.7114       0              0              9.1841307      9.7892498      0.2            89.90575     
     46800   0.12398299     0.00042167195  0.00042167195  0              0              247.22541      428.24062      66.116808      0             -302.73631      0              0              9.1831674      9.7890166      0.2            89.894178    
     46900   0.24467282     0.00022659142  0.00022659142  0              0             -679.92394     -502.54492     -857.38309      0              2.8345629      0              0              9.1822041      9.7979546      0.2            89.966819    
     47000   0.22556584     0.00040848959  0.00040848959  0              0              27.380058     -484.24375      538.9289       0             -413.51859      0              0              9.1812407      9.7890986      0.2            89.876071    
     47100   0.1965139      0.00037735856  0.00037735856  0              0              490.05276      576.58959      403.4288       0              269.19305      0              0              9.1802774      9.792005       0.2            89.893322    
     47200   0.24820056     0.00038357922  0.00038357922  0              0             -298.64887      176.36158     -773.76894      0             -196.05704      0              0              9.179314       9.8015354      0.2            89.971372    
     47300   0.19796318     0.00040805005  0.00040805005  0              0             -1.1823701     -188.38882      185.96403      0              183.85332      0              0              9.1783507      9.7872766      0.2            89.831057    
     47400   0.25534241     0.00042938773  0.00042938773  0              0              581.98231      670.08361      493.80514      0              535.75493      0              0              9.1773874      9.7785277      0.2            89.741337    
     47500   0.2003983      0.00047194042  0.00047194042  0              0             -129.90972      299.73062     -559.6361       0              295.76287      0              0              9.176424       9.7890513      0.2            89.828485    
     47600   0.18287161     0.00064158044  0.00064158044  0              0             -48.709066      22.697848     -120.21143      0              431.61718      0              0              9.1754607      9.7866538      0.2            89.797057    
     47700   0.19483262     0.00046151785  0.00046151785  0              0              107.18606     -345.9319       560.23225      0              457.26085      0              0              9.1744974      9.7774809      0.2            89.703473    
     47800   0.23290561     0.00045978756  0.00045978756  0              0             -533.9425      -735.71774     -332.25248      0             -87.712984      0              0              9.173534       9.7829052      0.2            89.743814    
     47900   0.28245045     0.00049247201  0.00049247201  0              0             -80.512594      54.131094     -215.24247      0             -282.60804      0              0              9.1725707      9.7525368      0.2            89.455833    
     48000   0.21625721     0.00042798658  0.00042798658  0              0              285.67963      12.144678      559.12079      0              117.99064      0              0              9.1716074      9.7412178      0.2            89.342624    
     48100   0.1966119      0.00058520461  0.00058520461  0              0             -393.23621     -563.49039     -223.05399      0             -530.48926      0              0              9.170644       9.7350536      0.2            89.276711    
     48200   0.14010604     0.00046786286  0.00046786286  0              0             -65.436319      260.32128     -391.28364      0             -69.852687      0              0              9.1696807      9.7464171      0.2            89.371532    
     48300   0.12885259     0.00040678383  0.00040678383  0              0              328.72381      220.82001      436.52584      0              153.98021      0              0              9.1687173      9.7496372      0.2            89.391668    
     48400   0.2047536      0.00050947222  0.00050947222  0              0             -17.469932      32.244179     -67.283723      0              323.07981      0              0              9.167754       9.7524062      0.2            89.407661    
     48500   0.2150192      0.00042533512  0.00042533512  0              0             -34.32894       280.82373     -349.57877      0             -382.64567      0              0              9.1667907      9.7477495      0.2            89.355579    
     48600   0.18950788     0.00043489879  0.00043489879  0              0              234.45184      107.79687      360.99873      0              83.159038      0              0              9.1658273      9.737991       0.2            89.256744    
     48700   0.22982153     0.00034996016  0.00034996016  0              0              207.41269      351.63147      63.086246      0             -170.32349      0              0              9.164864       9.7454452      0.2            89.31568     
     48800   0.2330738      0.00037270713  0.00037270713  0              0             -448.917       -466.2897      -431.61452      0             -28.85891       0              0              9.1639007      9.7533081      0.2            89.378346    
     48900   0.27526853     0.00036622072  0.00036622072  0              0              250.68975      242.69269      258.59278      0              308.91152      0              0              9.1629373      9.7441187      0.2            89.284749    
     49000   0.26875642     0.00038682546  0.00038682546  0              0             -24.198117     -284.96026      236.48391      0             -82.294137      0              0              9.161974       9.742131       0.2            89.257151    
     49100   0.22969205     0.00037596164  0.00037596164  0              0             -429.94371     -417.78092     -442.20768      0             -219.98795      0              0              9.1610106      9.7430139      0.2            89.255854    
     49200   0.24987126     0.00043072709  0.00043072709  0              0             -323.09498     -724.59952      78.331398      0              313.22436      0              0              9.1600473      9.7370429      0.2            89.191774    
     49300   0.28194006     0.00036250905  0.00036250905  0              0              388.13831      407.20312      368.98921      0             -57.959373      0              0              9.159084       9.7589633      0.2            89.383164    
     49400   0.23547004     0.00030745572  0.00030745572  0              0             -191.88599      14.32741      -398.18543      0              60.875376      0              0              9.1581206      9.7743074      0.2            89.514286    
     49500   0.29586844     0.00057220523  0.00057220523  0              0             -247.9855      -428.01181     -68.036948      0              64.365109      0              0              9.1571573      9.7645542      0.2            89.415559    
     49600   0.23456588     0.00039422783  0.00039422783  0              0              268.10592      70.401639      465.7518       0              228.75568      0              0              9.156194       9.7556593      0.2            89.324708    
     49700   0.17340045     0.00042547209  0.00042547209  0              0             -259.01363     -168.46622     -349.62031      0              343.1515       0              0              9.1552306      9.767296       0.2            89.421847    
     49800   0.25231391     0.00038782413  0.00038782413  0              0             -46.460802      145.48764     -238.49068      0              298.36237      0              0              9.1542673      9.7612315      0.2            89.356922    
     49900   0.18074423     0.0004004886   0.0004004886   0              0              237.21214     -74.784455      549.14328      0              7.7930628      0              0              9.1533039      9.73985        0.2            89.151807    
     50000   0.13107237     0.00035434235  0.00035434235  0              0             -35.876026      153.59594     -225.44097      0             -120.72871      0              0              9.1523406      9.7378027      0.2            89.123687    
     50066   0.15218364     0.00038992839  0.00038992839  0              0              37.6103       -408.96199      484.11128      0             -68.407903      0              0              9.1517048      9.7326349      0.2            89.070202    
Loop time of 0.586567 on 1 procs for 50000 steps with 27 atoms

Performance: 73648.876 ns/day, 0.000 hours/ns, 85241.755 timesteps/s
99.3% CPU use with 1 MPI tasks x 1 OpenMP threads

MPI task timing breakdown:
Section |  min time  |  avg time  |  max time  |%varavg| %total
---------------------------------------------------------------
Pair    | 0          | 0          | 0          |   0.0 |  0.00
Bond    | 0.071669   | 0.071669   | 0.071669   |   0.0 | 12.22
Neigh   | 0          | 0          | 0          |   0.0 |  0.00
Comm    | 0.17959    | 0.17959    | 0.17959    |   0.0 | 30.62
Output  | 0.0046518  | 0.0046518  | 0.0046518  |   0.0 |  0.79
Modify  | 0.31202    | 0.31202    | 0.31202    |   0.0 | 53.19
Other   |            | 0.01864    |            |       |  3.18

Nlocal:             27 ave          27 max          27 min
Histogram: 1 0 0 0 0 0 0 0 0 0
Nghost:            225 ave         225 max         225 min
Histogram: 1 0 0 0 0 0 0 0 0 0
Neighs:              0 ave           0 max           0 min
Histogram: 1 0 0 0 0 0 0 0 0 0

Total # of neighbors = 0
Ave neighs/atom = 0
Ave special neighs/atom = 16
Neighbor list builds = 0
Dangerous builds = 0


Total wall time: 0:00:00
