ITEM: TIMESTEP
500
ITEM: NUMBER OF ATOMS
61
ITEM: BOX BOUNDS pp pp pp
-4.8146247409422287e+00 4.8146247409422287e+00
-4.8139408556787568e+00 4.8139408556787568e+00
-1.0000000000000001e-01 1.0000000000000001e-01
ITEM: ATOMS id type xs ys zs
56 1 0.063941 0.0883026 0.500202
41 1 0.135753 0.0231894 0.499015
19 1 0.25836 0.0474 0.499879
5 1 0.412342 0.0888853 0.500243
69 1 0.489507 0.030258 0.501815
26 1 0.601833 0.0578957 0.499493
1 1 0.732392 0.0436487 0.500458
30 1 0.942844 0.99259 0.500981
31 1 0.0473765 0.206572 0.499314
32 1 0.157347 0.143541 0.500237
22 1 0.308553 0.184357 0.499388
49 1 0.531857 0.139314 0.500054
78 1 0.560306 0.234048 0.501007
4 1 0.799014 0.171424 0.499439
6 1 0.938034 0.123633 0.500593
67 1 0.108358 0.283531 0.500022
79 1 0.145278 0.238444 0.499545
75 1 0.275338 0.267059 0.50058
12 1 0.446558 0.233902 0.500117
46 1 0.536979 0.310265 0.500162
16 1 0.667752 0.254173 0.500177
36 1 0.795877 0.312168 0.498274
28 1 0.923402 0.266707 0.500582
7 1 0.0314173 0.35504 0.500978
17 1 0.201008 0.347502 0.498112
34 1 0.339298 0.339286 0.500073
45 1 0.285148 0.434815 0.500342
35 1 0.620802 0.381311 0.499781
52 1 0.889698 0.36434 0.498742
66 1 0.84726 0.439302 0.500838
33 1 0.0827738 0.475181 0.50085
53 1 0.19577 0.472328 0.498833
11 1 0.51347 0.441499 0.498946
20 1 0.604243 0.551254 0.499444
13 1 0.736214 0.448762 0.499642
54 1 0.84434 0.540668 0.501499
9 1 0.93993 0.488269 0.501094
44 1 0.0219888 0.569103 0.499633
23 1 0.131542 0.570702 0.500135
18 1 0.753603 0.604993 0.500569
27 1 0.925579 0.612052 0.499316
3 1 0.0371774 0.692905 0.498071
25 1 0.604216 0.694552 0.499536
57 1 0.706525 0.716295 0.499435
24 1 0.843363 0.712237 0.500656
39 1 0.112228 0.807003 0.498789
8 1 0.206127 0.89985 0.501777
14 1 0.660581 0.826265 0.499106
80 1 0.745842 0.883205 0.499798
42 1 0.773187 0.790626 0.500481
55 1 0.824035 0.897267 0.500451
15 1 0.928224 0.807737 0.502638
2 1 0.0567507 0.922762 0.502375
38 1 0.355637 0.951345 0.501356
59 1 0.457097 0.964257 0.501123
63 1 0.530891 0.990266 0.498691
60 1 0.6272 0.949111 0.502642
71 1 0.712894 0.939106 0.501587
73 1 0.776439 0.943761 0.500273
62 1 0.959346 0.901031 0.499492
70 1 0.899438 0.9133 0.499093
ITEM: TIMESTEP
750
ITEM: NUMBER OF ATOMS
61
ITEM: BOX BOUNDS pp pp pp
-4.8134208006270791e+00 4.8134208006270791e+00
-4.8201110988893658e+00 4.8201110988893658e+00
-1.0000000000000001e-01 1.0000000000000001e-01
ITEM: ATOMS id type xs ys zs
56 1 0.0633685 0.0884124 0.500397
41 1 0.136131 0.0241336 0.497507
19 1 0.258423 0.0468911 0.500816
5 1 0.412428 0.0891287 0.499242
69 1 0.490403 0.0307475 0.503004
26 1 0.602721 0.057816 0.499347
1 1 0.733766 0.0438443 0.501977
30 1 0.942495 0.993274 0.499776
31 1 0.0467982 0.206568 0.501466
32 1 0.157458 0.143346 0.499303
22 1 0.309277 0.184371 0.497251
49 1 0.532279 0.138279 0.499759
78 1 0.561605 0.234983 0.500401
4 1 0.798375 0.171635 0.497377
6 1 0.937588 0.124041 0.501527
67 1 0.108884 0.28379 0.499509
79 1 0.144668 0.238054 0.499873
75 1 0.275222 0.267248 0.501911
12 1 0.448101 0.233081 0.499498
46 1 0.536932 0.311 0.501072
16 1 0.667621 0.255448 0.500536
36 1 0.795388 0.311715 0.497047
28 1 0.923448 0.266469 0.502218
7 1 0.0311122 0.354984 0.501289
17 1 0.200727 0.347692 0.498346
34 1 0.339093 0.339485 0.500928
45 1 0.285066 0.434117 0.498797
35 1 0.620605 0.38195 0.499232
52 1 0.889262 0.363346 0.498972
66 1 0.848093 0.439087 0.500274
33 1 0.0826254 0.474613 0.502482
53 1 0.196025 0.471767 0.49923
11 1 0.512328 0.441899 0.49954
20 1 0.603712 0.55101 0.498274
13 1 0.736332 0.448196 0.500548
54 1 0.844382 0.539986 0.501043
9 1 0.939942 0.488842 0.501706
44 1 0.0223598 0.569427 0.502657
23 1 0.13175 0.570674 0.49694
18 1 0.754101 0.604708 0.500754
27 1 0.925629 0.61169 0.498637
3 1 0.037753 0.692773 0.499806
25 1 0.605335 0.694782 0.498448
57 1 0.707554 0.716441 0.499966
24 1 0.844595 0.712614 0.501028
39 1 0.112849 0.807442 0.498973
8 1 0.206854 0.899775 0.499683
14 1 0.662378 0.826445 0.499621
80 1 0.746868 0.883106 0.499241
42 1 0.774112 0.790802 0.502151
55 1 0.824624 0.897495 0.501341
15 1 0.929238 0.808068 0.503352
2 1 0.0573309 0.923501 0.504208
38 1 0.356251 0.951858 0.499774
59 1 0.45749 0.965417 0.501929
63 1 0.531657 0.990496 0.500061
60 1 0.62767 0.949071 0.502353
71 1 0.71338 0.939374 0.50077
73 1 0.776704 0.943922 0.500902
62 1 0.959146 0.901305 0.499441
70 1 0.899345 0.913329 0.498352
ITEM: TIMESTEP
1000
ITEM: NUMBER OF ATOMS
61
ITEM: BOX BOUNDS pp pp pp
-4.8122168603119286e+00 4.8122168603119286e+00
-4.8190447327624897e+00 4.8190447327624897e+00
-1.0000000000000001e-01 1.0000000000000001e-01
ITEM: ATOMS id type xs ys zs
56 1 0.0635357 0.0880127 0.499142
41 1 0.137254 0.0245362 0.497119
19 1 0.259188 0.0471068 0.500653
5 1 0.412928 0.0888339 0.499262
69 1 0.490298 0.0299452 0.503622
26 1 0.602816 0.0579541 0.499875
1 1 0.733536 0.0434982 0.502609
30 1 0.944528 0.992637 0.500715
31 1 0.0467205 0.20683 0.501932
32 1 0.157281 0.143201 0.500025
22 1 0.309058 0.18437 0.498113
49 1 0.532256 0.139124 0.499306
78 1 0.560246 0.236684 0.501384
4 1 0.798733 0.171329 0.497446
6 1 0.937825 0.123508 0.50289
67 1 0.108108 0.283946 0.500045
79 1 0.144597 0.238462 0.497242
75 1 0.275816 0.267352 0.500487
12 1 0.447029 0.233908 0.498233
46 1 0.536189 0.312348 0.501448
16 1 0.667655 0.25462 0.501988
36 1 0.79621 0.311822 0.498612
28 1 0.92464 0.265504 0.499955
7 1 0.0312798 0.355503 0.501978
17 1 0.200773 0.347859 0.497993
34 1 0.33914 0.339555 0.499253
45 1 0.285649 0.43486 0.497912
35 1 0.620353 0.38149 0.49792
52 1 0.889302 0.363045 0.497366
66 1 0.847881 0.438852 0.499389
33 1 0.0829411 0.474562 0.503225
53 1 0.195909 0.471402 0.500053
11 1 0.512824 0.442477 0.499288
20 1 0.604143 0.551068 0.498463
13 1 0.736374 0.448648 0.500914
54 1 0.844016 0.539649 0.500851
9 1 0.940079 0.489039 0.502671
44 1 0.0225484 0.568973 0.502661
23 1 0.132166 0.570199 0.496776
18 1 0.753698 0.604634 0.501527
27 1 0.925813 0.611284 0.498188
3 1 0.0375197 0.692492 0.501256
25 1 0.605865 0.694848 0.498847
57 1 0.708285 0.716769 0.498511
24 1 0.844551 0.712281 0.50187
39 1 0.113459 0.80647 0.499861
8 1 0.207898 0.899682 0.501673
14 1 0.661896 0.826626 0.498516
80 1 0.746695 0.883209 0.498929
42 1 0.774412 0.791189 0.500807
55 1 0.82535 0.898339 0.503175
15 1 0.930335 0.807855 0.504164
2 1 0.0580429 0.923556 0.504219
38 1 0.357218 0.951558 0.500704
59 1 0.458268 0.964166 0.499378
63 1 0.53212 0.990206 0.500318
60 1 0.627982 0.949462 0.50293
71 1 0.713014 0.938711 0.501374
73 1 0.776628 0.943723 0.501008
62 1 0.96038 0.900779 0.497893
70 1 0.900537 0.913198 0.500006
ITEM: TIMESTEP
1250
ITEM: NUMBER OF ATOMS
61
ITEM: BOX BOUNDS pp pp pp
-4.8110129199967790e+00 4.8110129199967790e+00
-4.8163378200178322e+00 4.8163378200178322e+00
-1.0000000000000001e-01 1.0000000000000001e-01
ITEM: ATOMS id type xs ys zs
56 1 0.0641398 0.0882629 0.499563
41 1 0.136713 0.0233855 0.497157
19 1 0.258946 0.0469455 0.502056
5 1 0.412537 0.0886434 0.498327
69 1 0.490747 0.0307173 0.503788
26 1 0.602816 0.0579707 0.501041
1 1 0.732777 0.0433783 0.501948
30 1 0.943742 0.993042 0.502017
31 1 0.0471303 0.206984 0.501653
32 1 0.158017 0.14408 0.501352
22 1 0.30899 0.183863 0.498508
49 1 0.531928 0.138194 0.499035
78 1 0.559961 0.235707 0.499301
4 1 0.798515 0.171261 0.496883
6 1 0.938191 0.123346 0.502857
67 1 0.108903 0.28404 0.50152
79 1 0.144913 0.238417 0.496047
75 1 0.275148 0.26709 0.50001
12 1 0.446916 0.233534 0.498277
46 1 0.535918 0.311754 0.503108
16 1 0.667498 0.254251 0.502616
36 1 0.795839 0.31177 0.498891
28 1 0.924376 0.265951 0.50085
7 1 0.0314318 0.355438 0.50129
17 1 0.200919 0.348356 0.496734
34 1 0.33908 0.339481 0.500667
45 1 0.286058 0.434966 0.498661
35 1 0.620448 0.381232 0.498295
52 1 0.89026 0.363232 0.497311
66 1 0.847866 0.438117 0.500135
33 1 0.0828105 0.474685 0.502635
53 1 0.196588 0.472514 0.49881
11 1 0.512328 0.442202 0.49909
20 1 0.604225 0.550353 0.498177
13 1 0.736267 0.449243 0.50176
54 1 0.843858 0.540343 0.501247
9 1 0.939637 0.488909 0.502718
44 1 0.0218535 0.569585 0.502352
23 1 0.131555 0.570959 0.496187
18 1 0.753448 0.604741 0.502068
27 1 0.925587 0.61164 0.498312
3 1 0.0380491 0.692685 0.500868
25 1 0.60544 0.694267 0.498679
57 1 0.708046 0.717038 0.496048
24 1 0.844172 0.712355 0.501876
39 1 0.1129 0.807247 0.500558
8 1 0.207742 0.899645 0.502515
14 1 0.662084 0.826783 0.49854
80 1 0.747567 0.8824 0.499012
42 1 0.774417 0.791819 0.500296
55 1 0.825057 0.898661 0.501625
15 1 0.929718 0.807577 0.504404
2 1 0.0577492 0.922912 0.504328
38 1 0.356704 0.951675 0.498358
59 1 0.458132 0.965001 0.499591
63 1 0.532092 0.990419 0.499346
60 1 0.628144 0.949311 0.504042
71 1 0.71367 0.938156 0.500933
73 1 0.776872 0.943835 0.500746
62 1 0.960172 0.900991 0.498806
70 1 0.900266 0.913337 0.499944
ITEM: TIMESTEP
1500
ITEM: NUMBER OF ATOMS
61
ITEM: BOX BOUNDS pp pp pp
-4.8098089796816295e+00 4.8098089796816295e+00
-4.8174683189769834e+00 4.8174683189769834e+00
-1.0000000000000001e-01 1.0000000000000001e-01
ITEM: ATOMS id type xs ys zs
56 1 0.0634571 0.0884661 0.499167
41 1 0.135912 0.0235651 0.496088
19 1 0.258246 0.0463858 0.504471
5 1 0.412442 0.0880887 0.497013
69 1 0.489617 0.0303323 0.503403
26 1 0.602374 0.0580248 0.501465
1 1 0.733188 0.0429979 0.50064
30 1 0.943519 0.992704 0.502628
31 1 0.0468634 0.206878 0.502234
32 1 0.15798 0.14322 0.500941
22 1 0.309184 0.184193 0.495994
49 1 0.531613 0.138856 0.498076
78 1 0.56059 0.234985 0.500283
4 1 0.79912 0.171275 0.49914
6 1 0.937979 0.123454 0.503547
67 1 0.109078 0.283819 0.502659
79 1 0.144544 0.237432 0.495577
75 1 0.274496 0.266685 0.501985
12 1 0.44658 0.233511 0.498836
46 1 0.535785 0.310795 0.503042
16 1 0.667898 0.253712 0.50392
36 1 0.794816 0.311459 0.498379
28 1 0.924434 0.266124 0.501003
7 1 0.0319268 0.355201 0.501977
17 1 0.200911 0.348848 0.497495
34 1 0.338514 0.338808 0.50208
45 1 0.286591 0.435405 0.497612
35 1 0.620203 0.380657 0.499154
52 1 0.889094 0.363182 0.498593
66 1 0.847984 0.438491 0.500711
33 1 0.0828767 0.474698 0.502077
53 1 0.197053 0.472818 0.500293
11 1 0.513314 0.44208 0.498783
20 1 0.60421 0.550548 0.496481
13 1 0.736386 0.44839 0.503027
54 1 0.845067 0.54136 0.501245
9 1 0.940092 0.488491 0.502321
44 1 0.0222512 0.569141 0.501195
23 1 0.132104 0.571094 0.49633
18 1 0.753961 0.604207 0.502963
27 1 0.926141 0.612203 0.49926
3 1 0.0381221 0.693175 0.503549
25 1 0.603997 0.693776 0.499208
57 1 0.706558 0.71551 0.497016
24 1 0.843871 0.712313 0.504135
39 1 0.113163 0.807245 0.499632
8 1 0.207297 0.899033 0.503425
14 1 0.661462 0.82573 0.500525
80 1 0.746232 0.882627 0.496646
42 1 0.772888 0.790122 0.501064
55 1 0.824482 0.896814 0.501617
15 1 0.929755 0.808355 0.504511
2 1 0.0572993 0.922777 0.504709
38 1 0.355929 0.951179 0.496987
59 1 0.45819 0.964034 0.499301
63 1 0.531343 0.990592 0.497703
60 1 0.628395 0.949751 0.503174
71 1 0.713413 0.938536 0.500568
73 1 0.777191 0.943496 0.500744
62 1 0.959774 0.900778 0.497735
70 1 0.89964 0.913435 0.50081
ITEM: TIMESTEP
1750
ITEM: NUMBER OF ATOMS
61
ITEM: BOX BOUNDS pp pp pp
-4.8086050393664790e+00 4.8086050393664790e+00
-4.8149311103208232e+00 4.8149311103208232e+00
-1.0000000000000001e-01 1.0000000000000001e-01
ITEM: ATOMS id type xs ys zs
56 1 0.0629798 0.0875462 0.500462
41 1 0.135981 0.0224051 0.496304
19 1 0.258097 0.0474601 0.504097
5 1 0.412555 0.0888717 0.497762
69 1 0.490159 0.0304522 0.504454
26 1 0.602334 0.0581063 0.502912
1 1 0.732686 0.0435304 0.499962
30 1 0.943111 0.993116 0.502931
31 1 0.0463395 0.207689 0.501935
32 1 0.156639 0.143316 0.501383
22 1 0.308807 0.184196 0.497171
49 1 0.53144 0.138595 0.498116
78 1 0.560621 0.23476 0.500036
4 1 0.798692 0.17212 0.500116
6 1 0.937927 0.123856 0.502858
67 1 0.108688 0.283804 0.501148
79 1 0.144554 0.23777 0.494624
75 1 0.274263 0.266777 0.503835
12 1 0.4468 0.233949 0.497905
46 1 0.537411 0.311111 0.501128
16 1 0.667814 0.254294 0.503016
36 1 0.796374 0.311729 0.497928
28 1 0.924481 0.266251 0.502944
7 1 0.0318692 0.355538 0.503005
17 1 0.200388 0.348084 0.499431
34 1 0.338759 0.338333 0.501498
45 1 0.286216 0.433856 0.496762
35 1 0.621283 0.381135 0.498535
52 1 0.890452 0.364031 0.497932
66 1 0.848424 0.439149 0.501709
33 1 0.0833606 0.475622 0.50004
53 1 0.196857 0.472813 0.502422
11 1 0.513076 0.441705 0.500899
20 1 0.603949 0.552009 0.497042
13 1 0.737125 0.449209 0.502431
54 1 0.843854 0.539681 0.500097
9 1 0.939947 0.488767 0.5019
44 1 0.0220772 0.569533 0.500389
23 1 0.1324 0.571575 0.496721
18 1 0.754171 0.605263 0.502765
27 1 0.925325 0.61173 0.499472
3 1 0.037686 0.692644 0.502993
25 1 0.602693 0.695366 0.498544
57 1 0.706008 0.716765 0.498702
24 1 0.844493 0.712193 0.506014
39 1 0.113801 0.806389 0.499486
8 1 0.206734 0.900047 0.502966
14 1 0.661676 0.826621 0.500439
80 1 0.746898 0.882302 0.497948
42 1 0.773732 0.789957 0.501374
55 1 0.824545 0.897669 0.499197
15 1 0.929696 0.808026 0.505621
2 1 0.0567009 0.921855 0.505038
38 1 0.356122 0.951997 0.498163
59 1 0.457349 0.96464 0.497759
63 1 0.531537 0.990288 0.49954
60 1 0.627778 0.949622 0.501447
71 1 0.713246 0.938556 0.50074
73 1 0.77666 0.943714 0.501323
62 1 0.959129 0.900818 0.499024
70 1 0.89929 0.913456 0.502752
ITEM: TIMESTEP
2000
ITEM: NUMBER OF ATOMS
61
ITEM: BOX BOUNDS pp pp pp
-4.8074010990513294e+00 4.8074010990513294e+00
-4.8186342618249709e+00 4.8186342618249709e+00
-1.0000000000000001e-01 1.0000000000000001e-01
ITEM: ATOMS id type xs ys zs
56 1 0.0626092 0.0876416 0.500007
41 1 0.135866 0.0227947 0.495831
19 1 0.258175 0.0473414 0.504795
5 1 0.412131 0.0891955 0.497437
69 1 0.489941 0.0313657 0.504622
26 1 0.601975 0.0584373 0.502926
1 1 0.732453 0.0436452 0.499987
30 1 0.942713 0.992831 0.501824
31 1 0.0466548 0.206819 0.502576
32 1 0.156815 0.142935 0.50217
22 1 0.309422 0.183912 0.497012
49 1 0.532152 0.139045 0.496694
78 1 0.561257 0.235325 0.500047
4 1 0.797847 0.171477 0.499887
6 1 0.937328 0.123739 0.503169
67 1 0.108703 0.283251 0.500029
79 1 0.14482 0.237332 0.495688
75 1 0.274604 0.2663 0.504505
12 1 0.448024 0.233749 0.499166
46 1 0.537535 0.311105 0.499676
16 1 0.667847 0.254963 0.502353
36 1 0.796775 0.311632 0.499777
28 1 0.925162 0.266381 0.501452
7 1 0.0321557 0.355855 0.502903
17 1 0.200703 0.347972 0.499789
34 1 0.338611 0.338278 0.502784
45 1 0.286442 0.434346 0.493819
35 1 0.621146 0.38218 0.498899
52 1 0.890986 0.364035 0.498077
66 1 0.848117 0.439363 0.501215
33 1 0.0833616 0.474681 0.499895
53 1 0.196806 0.47211 0.502913
11 1 0.51307 0.4417 0.501269
20 1 0.603308 0.551368 0.496495
13 1 0.736784 0.449235 0.502615
54 1 0.844452 0.540403 0.496865
9 1 0.940156 0.488343 0.501559
44 1 0.0224788 0.569262 0.499674
23 1 0.132741 0.570275 0.49771
18 1 0.753339 0.604499 0.501805
27 1 0.926108 0.6115 0.500398
3 1 0.0373692 0.692912 0.503644
25 1 0.60411 0.695089 0.496666
57 1 0.706476 0.716741 0.498499
24 1 0.844334 0.712337 0.506325
39 1 0.113729 0.806474 0.498998
8 1 0.20718 0.900124 0.504042
14 1 0.661322 0.826759 0.499856
80 1 0.746153 0.883031 0.499026
42 1 0.773488 0.790371 0.499851
55 1 0.824202 0.897733 0.498268
15 1 0.928674 0.807589 0.506617
2 1 0.0571148 0.922132 0.504056
38 1 0.355754 0.95173 0.498305
59 1 0.457232 0.965553 0.496168
63 1 0.531221 0.990826 0.501192
60 1 0.627683 0.949676 0.501165
71 1 0.712449 0.9389 0.499527
73 1 0.77606 0.944107 0.500501
62 1 0.959369 0.900653 0.498084
70 1 0.899275 0.913262 0.502584
ITEM: TIMESTEP
2250
ITEM: NUMBER OF ATOMS
61
ITEM: BOX BOUNDS pp pp pp
-4.8061971587361789e+00 4.8061971587361789e+00
-4.8232492374783531e+00 4.8232492374783531e+00
-1.0000000000000001e-01 1.0000000000000001e-01
ITEM: ATOMS id type xs ys zs
56 1 0.0625488 0.0873149 0.5019
41 1 0.136262 0.0235955 0.492531
19 1 0.258548 0.047155 0.50553
5 1 0.412348 0.0890963 0.496797
69 1 0.490871 0.0314673 0.505045
26 1 0.602821 0.0581821 0.501381
1 1 0.733309 0.042903 0.499159
30 1 0.943396 0.993201 0.502356
31 1 0.0462881 0.20732 0.502658
32 1 0.156383 0.142711 0.502979
22 1 0.308448 0.183984 0.49619
49 1 0.532351 0.139112 0.49721
78 1 0.560234 0.23476 0.501631
4 1 0.797451 0.170672 0.500536
6 1 0.937123 0.123315 0.502335
67 1 0.109222 0.283569 0.499731
79 1 0.144803 0.237507 0.497119
75 1 0.274488 0.266821 0.504924
12 1 0.446729 0.233925 0.49826
46 1 0.536567 0.311098 0.501215
16 1 0.667436 0.254242 0.503637
36 1 0.796973 0.311072 0.499234
28 1 0.924651 0.266386 0.501128
7 1 0.0317389 0.355677 0.502795
17 1 0.201044 0.348466 0.499109
34 1 0.338705 0.338584 0.501732
45 1 0.286864 0.434457 0.494482
35 1 0.620948 0.381508 0.497003
52 1 0.890599 0.364305 0.498754
66 1 0.848429 0.439171 0.50017
33 1 0.0837097 0.475173 0.497819
53 1 0.197459 0.472289 0.501858
11 1 0.51272 0.441709 0.502415
20 1 0.602669 0.551743 0.497356
13 1 0.736665 0.447931 0.50374
54 1 0.844714 0.540404 0.500164
9 1 0.94053 0.489362 0.502037
44 1 0.0228322 0.57012 0.498447
23 1 0.132319 0.571312 0.496423
18 1 0.753597 0.603701 0.501908
27 1 0.925903 0.612125 0.500788
3 1 0.0367225 0.693903 0.502868
25 1 0.604031 0.694704 0.493478
57 1 0.706803 0.71633 0.49763
24 1 0.843719 0.711709 0.507358
39 1 0.11236 0.808299 0.498003
8 1 0.206532 0.900178 0.505108
14 1 0.660979 0.826237 0.499952
80 1 0.746135 0.882546 0.499013
42 1 0.773336 0.790307 0.499145
55 1 0.823859 0.897432 0.498063
15 1 0.927719 0.808567 0.507245
2 1 0.0567528 0.923259 0.503636
38 1 0.356918 0.951971 0.498734
59 1 0.458215 0.965453 0.496405
63 1 0.531829 0.990824 0.501685
60 1 0.627169 0.949718 0.50202
71 1 0.712515 0.938437 0.499884
73 1 0.77616 0.943354 0.499368
62 1 0.959158 0.90128 0.497493
70 1 0.899104 0.914292 0.50258
ITEM: TIMESTEP
2500
ITEM: NUMBER OF ATOMS
61
ITEM: BOX BOUNDS pp pp pp
-4.8049932184210293e+00 4.8049932184210293e+00
-4.8197514381675202e+00 4.8197514381675202e+00
-1.0000000000000001e-01 1.0000000000000001e-01
ITEM: ATOMS id type xs ys zs
56 1 0.0625423 0.0871619 0.501879
41 1 0.136148 0.0236108 0.493967
19 1 0.259019 0.0466282 0.506257
5 1 0.412578 0.0885008 0.499355
69 1 0.491108 0.0301907 0.504909
26 1 0.602289 0.0580309 0.500039
1 1 0.732505 0.0421048 0.499751
30 1 0.942178 0.993423 0.501621
31 1 0.0465135 0.207386 0.502625
32 1 0.156366 0.142777 0.502077
22 1 0.309221 0.183468 0.495233
49 1 0.532156 0.138961 0.495841
78 1 0.559904 0.234028 0.500466
4 1 0.797617 0.170525 0.499324
6 1 0.937072 0.12365 0.501788
67 1 0.109024 0.284257 0.501042
79 1 0.14446 0.237766 0.495433
75 1 0.274182 0.265713 0.505887
12 1 0.446212 0.233543 0.498351
46 1 0.536222 0.310423 0.502031
16 1 0.667151 0.254217 0.506396
36 1 0.795689 0.31061 0.499757
28 1 0.925205 0.266429 0.5022
7 1 0.0320095 0.356078 0.503011
17 1 0.201033 0.347797 0.499443
34 1 0.339035 0.337526 0.502829
45 1 0.286788 0.433746 0.495302
35 1 0.620278 0.380151 0.497046
52 1 0.889193 0.363958 0.496588
66 1 0.84792 0.439911 0.501087
33 1 0.0831703 0.475534 0.499633
53 1 0.197464 0.472053 0.501091
11 1 0.511925 0.440939 0.501847
20 1 0.603719 0.549869 0.498224
13 1 0.736284 0.448028 0.500882
54 1 0.84386 0.540101 0.500716
9 1 0.940265 0.489557 0.501936
44 1 0.0225538 0.570324 0.498504
23 1 0.132911 0.571462 0.496671
18 1 0.753046 0.60419 0.502695
27 1 0.925577 0.612251 0.497592
3 1 0.0370719 0.693732 0.503617
25 1 0.602987 0.693413 0.495029
57 1 0.705735 0.715746 0.49848
24 1 0.843805 0.712038 0.508142
39 1 0.112437 0.807889 0.497217
8 1 0.206572 0.899632 0.506274
14 1 0.660399 0.826038 0.501539
80 1 0.745968 0.881408 0.498681
42 1 0.77276 0.79039 0.496726
55 1 0.824057 0.896233 0.49807
15 1 0.928095 0.808346 0.508414
2 1 0.0566537 0.923746 0.504675
38 1 0.356767 0.950917 0.497587
59 1 0.457426 0.964915 0.498369
63 1 0.531915 0.989727 0.501781
60 1 0.627699 0.949238 0.498965
71 1 0.71294 0.937276 0.499326
73 1 0.77641 0.94252 0.497899
62 1 0.959018 0.90177 0.497098
70 1 0.898889 0.914196 0.50158
ITEM: TIMESTEP
2750
ITEM: NUMBER OF ATOMS
61
ITEM: BOX BOUNDS pp pp pp
-4.8037892781058797e+00 4.8037892781058797e+00
-4.8142259844236968e+00 4.8142259844236968e+00
-1.0000000000000001e-01 1.0000000000000001e-01
ITEM: ATOMS id type xs ys zs
56 1 0.0626061 0.0872356 0.502457
41 1 0.136554 0.0233725 0.492129
19 1 0.258702 0.0469144 0.505277
5 1 0.41302 0.0877105 0.499271
69 1 0.490773 0.0288376 0.504864
26 1 0.600908 0.0579553 0.497574
1 1 0.731308 0.0418119 0.502007
30 1 0.941939 0.992851 0.500167
31 1 0.0465881 0.207342 0.502228
32 1 0.156482 0.142913 0.501233
22 1 0.308905 0.183784 0.497464
49 1 0.531416 0.139665 0.497731
78 1 0.559647 0.234524 0.500561
4 1 0.796924 0.169941 0.500292
6 1 0.937044 0.123639 0.501577
67 1 0.108831 0.283604 0.501919
79 1 0.144878 0.237453 0.495113
75 1 0.274611 0.26651 0.506921
12 1 0.446526 0.233678 0.497414
46 1 0.535882 0.311033 0.501648
16 1 0.666712 0.253617 0.504322
36 1 0.795586 0.310409 0.498435
28 1 0.923891 0.266974 0.502319
7 1 0.0316589 0.355571 0.501946
17 1 0.200076 0.347843 0.499329
34 1 0.338941 0.338086 0.501531
45 1 0.286452 0.434115 0.493164
35 1 0.620134 0.380928 0.495429
52 1 0.888845 0.364295 0.495315
66 1 0.848263 0.440808 0.501573
33 1 0.0833905 0.474838 0.501525
53 1 0.197139 0.472232 0.500018
11 1 0.511124 0.441413 0.500561
20 1 0.602443 0.549981 0.496851
13 1 0.735875 0.447768 0.500564
54 1 0.844027 0.539959 0.500596
9 1 0.940177 0.489511 0.501958
44 1 0.0224541 0.570332 0.499738
23 1 0.132565 0.570998 0.495827
18 1 0.752835 0.603414 0.504869
27 1 0.925508 0.612253 0.498146
3 1 0.0369916 0.693663 0.504079
25 1 0.60231 0.693484 0.496342
57 1 0.705316 0.715585 0.497438
24 1 0.842892 0.711679 0.508532
39 1 0.112834 0.807289 0.496874
8 1 0.206616 0.90035 0.504753
14 1 0.659849 0.826074 0.502135
80 1 0.745446 0.881496 0.499728
42 1 0.77184 0.790054 0.496361
55 1 0.823607 0.896901 0.500656
15 1 0.927902 0.807902 0.507512
2 1 0.0564947 0.92287 0.502709
38 1 0.356327 0.951052 0.495309
59 1 0.458193 0.963119 0.497262
63 1 0.532203 0.988341 0.503173
60 1 0.626693 0.949404 0.498592
71 1 0.711706 0.937318 0.500769
73 1 0.775227 0.942521 0.498769
62 1 0.958483 0.901078 0.496564
70 1 0.898407 0.913292 0.500212
ITEM: TIMESTEP
3000
ITEM: NUMBER OF ATOMS
61
ITEM: BOX BOUNDS pp pp pp
-4.8025853377907293e+00 4.8025853377907293e+00
-4.8118846376091593e+00 4.8118846376091593e+00
-1.0000000000000001e-01 1.0000000000000001e-01
ITEM: ATOMS id type xs ys zs
56 1 0.0623888 0.0860453 0.503616
41 1 0.136087 0.0232536 0.493424
19 1 0.258261 0.047378 0.504949
5 1 0.412445 0.0889724 0.498242
69 1 0.490782 0.0297695 0.50687
26 1 0.600269 0.0578149 0.496827
1 1 0.730581 0.0412178 0.501483
30 1 0.941941 0.99316 0.499464
31 1 0.046247 0.207511 0.502114
32 1 0.155497 0.142323 0.500979
22 1 0.307849 0.184102 0.498995
49 1 0.531581 0.14069 0.499574
78 1 0.558667 0.234889 0.500905
4 1 0.795729 0.169444 0.502107
6 1 0.937236 0.124211 0.498979
67 1 0.10939 0.283487 0.502997
79 1 0.145227 0.237196 0.495472
75 1 0.274575 0.267163 0.508236
12 1 0.445095 0.234325 0.498652
46 1 0.534991 0.311121 0.501803
16 1 0.665312 0.253447 0.506596
36 1 0.794354 0.310305 0.500025
28 1 0.923699 0.266729 0.502367
7 1 0.03202 0.355796 0.500748
17 1 0.200765 0.348228 0.499312
34 1 0.339153 0.338846 0.501311
45 1 0.286925 0.434762 0.493454
35 1 0.619362 0.381645 0.49464
52 1 0.887714 0.363839 0.49487
66 1 0.847277 0.439789 0.502231
33 1 0.0828358 0.475186 0.502851
53 1 0.19703 0.472659 0.501342
11 1 0.511106 0.441626 0.501902
20 1 0.602456 0.550426 0.494845
13 1 0.735773 0.447504 0.501212
54 1 0.843424 0.539719 0.501618
9 1 0.939738 0.489101 0.501971
44 1 0.0225409 0.570061 0.500701
23 1 0.132999 0.571209 0.495937
18 1 0.752798 0.604086 0.506311
27 1 0.925407 0.611677 0.498696
3 1 0.0367422 0.693406 0.503684
25 1 0.603036 0.693481 0.494275
57 1 0.705396 0.715906 0.496261
24 1 0.843121 0.71222 0.508592
39 1 0.111901 0.807205 0.495636
8 1 0.20564 0.900399 0.504608
14 1 0.659408 0.825821 0.502497
80 1 0.744827 0.880954 0.499551
42 1 0.771896 0.790396 0.496768
55 1 0.822867 0.896255 0.502183
15 1 0.928023 0.808489 0.506037
2 1 0.0561491 0.923315 0.502818
38 1 0.355762 0.951942 0.495414
59 1 0.456936 0.964238 0.496022
63 1 0.531196 0.988548 0.50214
60 1 0.625859 0.949232 0.497133
71 1 0.710986 0.93647 0.499626
73 1 0.774529 0.941962 0.497135
62 1 0.958493 0.901277 0.496125
70 1 0.897986 0.913664 0.500905
ITEM: TIMESTEP
3250
ITEM: NUMBER OF ATOMS
61
ITEM: BOX BOUNDS pp pp pp
-4.8013813974755797e+00 4.8013813974755797e+00
-4.8122315713669295e+00 4.8122315713669295e+00
-1.0000000000000001e-01 1.0000000000000001e-01
ITEM: ATOMS id type xs ys zs
56 1 0.0608221 0.0861253 0.50496
41 1 0.135263 0.023908 0.493897
19 1 0.258136 0.046531 0.504499
5 1 0.412052 0.0886317 0.498965
69 1 0.490363 0.0300644 0.508052
26 1 0.601441 0.0586109 0.496492
1 1 0.731924 0.0419602 0.50236
30 1 0.942145 0.993662 0.498201
31 1 0.0457441 0.206829 0.500929
32 1 0.1554 0.141397 0.499485
22 1 0.307457 0.18381 0.499935
49 1 0.531159 0.140484 0.49933
78 1 0.558749 0.234707 0.502808
4 1 0.796493 0.169533 0.499678
6 1 0.936021 0.124264 0.497015
67 1 0.108778 0.283024 0.504401
79 1 0.144179 0.236534 0.496852
75 1 0.27512 0.266833 0.507814
12 1 0.44503 0.23421 0.49825
46 1 0.535001 0.310547 0.500781
16 1 0.665805 0.253054 0.506279
36 1 0.793941 0.310248 0.500697
28 1 0.924175 0.267095 0.500886
7 1 0.0321683 0.355391 0.500592
17 1 0.200598 0.34831 0.499869
34 1 0.339284 0.33942 0.49906
45 1 0.286429 0.434736 0.493507
35 1 0.619635 0.380951 0.496002
52 1 0.886969 0.36421 0.492926
66 1 0.847119 0.440969 0.501391
33 1 0.0831984 0.474685 0.503881
53 1 0.196706 0.472295 0.499051
11 1 0.511909 0.441379 0.501812
20 1 0.601976 0.550977 0.494008
13 1 0.735488 0.448063 0.502155
54 1 0.843485 0.539709 0.502672
9 1 0.940042 0.488335 0.50097
44 1 0.0222156 0.569463 0.501393
23 1 0.131967 0.570493 0.494483
18 1 0.752945 0.603715 0.507453
27 1 0.925505 0.611335 0.500385
3 1 0.036972 0.693509 0.501842
25 1 0.601741 0.694674 0.494433
57 1 0.705189 0.715192 0.496303
24 1 0.843319 0.711798 0.509169
39 1 0.111768 0.807576 0.497105
8 1 0.206007 0.900027 0.505306
14 1 0.659755 0.826051 0.501156
80 1 0.745461 0.881288 0.499826
42 1 0.771963 0.790142 0.497506
55 1 0.823206 0.896301 0.503418
15 1 0.927796 0.808843 0.507586
2 1 0.0560307 0.923527 0.501935
38 1 0.356038 0.951246 0.493735
59 1 0.457296 0.964267 0.495613
63 1 0.531471 0.989823 0.504095
60 1 0.626285 0.949775 0.498122
71 1 0.711633 0.937297 0.499463
73 1 0.77542 0.942333 0.497955
62 1 0.958226 0.901648 0.496391
70 1 0.897815 0.914517 0.499826
ITEM: TIMESTEP
3500
ITEM: NUMBER OF ATOMS
61
ITEM: BOX BOUNDS pp pp pp
-4.8001774571604301e+00 4.8001774571604301e+00
-4.8134144653517810e+00 4.8134144653517810e+00
-1.0000000000000001e-01 1.0000000000000001e-01
ITEM: ATOMS id type xs ys zs
56 1 0.0606758 0.0863609 0.502607
41 1 0.135649 0.023752 0.493918
19 1 0.258622 0.0459309 0.505083
5 1 0.412182 0.088235 0.498829
69 1 0.490169 0.0302863 0.510353
26 1 0.601686 0.0589778 0.49714
1 1 0.731891 0.0420888 0.501605
30 1 0.9428 0.993871 0.499955
31 1 0.0456394 0.207165 0.499749
32 1 0.155436 0.140943 0.500352
22 1 0.308155 0.183589 0.499024
49 1 0.531463 0.140259 0.501529
78 1 0.558761 0.233121 0.499734
4 1 0.796146 0.17058 0.498349
6 1 0.935695 0.124599 0.497573
67 1 0.109329 0.283492 0.503617
79 1 0.143952 0.236144 0.496442
75 1 0.275145 0.266739 0.507712
12 1 0.445207 0.233781 0.498952
46 1 0.535668 0.310111 0.50154
16 1 0.665968 0.253282 0.505647
36 1 0.794426 0.311025 0.503428
28 1 0.92326 0.266886 0.50144
7 1 0.032046 0.354567 0.500782
17 1 0.201287 0.348316 0.499306
34 1 0.340307 0.338425 0.498039
45 1 0.287492 0.434036 0.493936
35 1 0.619806 0.380468 0.496456
52 1 0.88749 0.364528 0.493241
66 1 0.846973 0.440492 0.500909
33 1 0.0829397 0.474451 0.50389
53 1 0.197676 0.472101 0.50107
11 1 0.511959 0.44185 0.501912
20 1 0.603356 0.550214 0.493596
13 1 0.735499 0.448263 0.501926
54 1 0.843621 0.539251 0.499694
9 1 0.939977 0.488457 0.501064
44 1 0.0223645 0.569399 0.501125
23 1 0.132571 0.570678 0.493803
18 1 0.753153 0.603345 0.506811
27 1 0.925231 0.611125 0.499084
3 1 0.0354534 0.693762 0.501012
25 1 0.601636 0.694139 0.495062
57 1 0.705157 0.715293 0.496081
24 1 0.843287 0.711371 0.507165
39 1 0.111795 0.807686 0.497136
8 1 0.206362 0.899027 0.506559
14 1 0.66024 0.825809 0.501656
80 1 0.745573 0.881565 0.500065
42 1 0.772263 0.789297 0.49663
55 1 0.823883 0.896401 0.503041
15 1 0.926862 0.808466 0.507679
2 1 0.056193 0.923339 0.501896
38 1 0.356625 0.950321 0.493852
59 1 0.457725 0.964392 0.496768
63 1 0.531469 0.99015 0.505603
60 1 0.626537 0.9499 0.496177
71 1 0.711933 0.937376 0.501131
73 1 0.775631 0.942599 0.496244
62 1 0.958316 0.901382 0.497081
70 1 0.898411 0.91474 0.500442
ITEM: TIMESTEP
3750
ITEM: NUMBER OF ATOMS
61
ITEM: BOX BOUNDS pp pp pp
-4.7989735168452796e+00 4.7989735168452796e+00
-4.8212689900405925e+00 4.8212689900405925e+00
-1.0000000000000001e-01 1.0000000000000001e-01
ITEM: ATOMS id type xs ys zs
56 1 0.0618414 0.0864401 0.501662
41 1 0.136061 0.0228143 0.495223
19 1 0.258574 0.0463881 0.503925
5 1 0.412535 0.0884226 0.498709
69 1 0.49008 0.0301565 0.510767
26 1 0.602409 0.0579756 0.498317
1 1 0.73286 0.0422325 0.5031
30 1 0.942904 0.993486 0.499154
31 1 0.0462787 0.207015 0.49821
32 1 0.156453 0.14209 0.498607
22 1 0.30737 0.183742 0.499778
49 1 0.53257 0.139005 0.50038
78 1 0.558896 0.23404 0.50141
4 1 0.79715 0.170857 0.494813
6 1 0.93664 0.124204 0.497808
67 1 0.109157 0.283498 0.505687
79 1 0.144544 0.236663 0.496432
75 1 0.274887 0.266833 0.507665
12 1 0.44569 0.23245 0.500197
46 1 0.535065 0.3101 0.501628
16 1 0.666205 0.25356 0.505825
36 1 0.794308 0.310755 0.505611
28 1 0.92353 0.266123 0.500858
7 1 0.0312377 0.355223 0.501489
17 1 0.200756 0.347539 0.498205
34 1 0.339137 0.338755 0.495842
45 1 0.286155 0.434382 0.495488
35 1 0.61925 0.380275 0.494707
52 1 0.887766 0.363247 0.492563
66 1 0.847582 0.439304 0.499613
33 1 0.0828509 0.475147 0.504276
53 1 0.196883 0.47169 0.500626
11 1 0.51091 0.440958 0.499928
20 1 0.602687 0.550119 0.493285
13 1 0.735254 0.448402 0.499214
54 1 0.842895 0.539552 0.498015
9 1 0.93957 0.48944 0.501939
44 1 0.0222046 0.570166 0.500556
23 1 0.132831 0.570544 0.493005
18 1 0.752647 0.604602 0.506229
27 1 0.924888 0.611769 0.500025
3 1 0.0361922 0.69316 0.501746
25 1 0.602062 0.694229 0.495021
57 1 0.70449 0.716023 0.493768