LAMMPS (23 Jun 2022 - Update 4)
  using 1 OpenMP thread(s) per MPI task
# Compute elastic constant tensor for a crystal
#
# Written by Aidan Thompson (Sandia, athomps@sandia.gov)
#
#  This script uses the following three include files.
#
#   init.mod      (must be modified for different crystal structures)
# 	       	  Define units, deformation parameters and initial
#		  configuration of the atoms and simulation cell.
#
#
#   potential.mod    (must be modified for different pair styles)
# 		     Define pair style and other attributes
#		     not stored in restart file
#
#
#   displace.mod    (displace.mod should not need to be modified)
# 		    Perform positive and negative box displacements
# 		    in direction ${dir} and size ${up}.
# 		    It uses the resultant changes
#		    in stress to compute one
# 		    row of the elastic stiffness tensor
#
#		    Inputs variables:
#		    	   dir = the Voigt deformation component
#		    		    (1,2,3,4,5,6)
#		    Global constants:
#       	    	   up = the deformation magnitude (strain units)
#       		   cfac = conversion from LAMMPS pressure units to
#               	   output units for elastic constants
#
#
#  To run this on a different system, it should only be necessary to
#  modify the files init.mod and potential.mod. In order to calculate
#  the elastic constants correctly, care must be taken to specify
#  the correct units in init.mod (units, cfac and cunits). It is also
#  important to verify that the minimization of energy w.r.t atom
#  positions in the deformed cell is fully converged.
#  One indication of this is that the elastic constants are insensitive
#  to the choice of the variable ${up} in init.mod. Another is to check
#  the final max and two-norm forces reported in the log file. If you know
#  that minimization is not required, you can set maxiter = 0.0 in
#  init.mod.
#



variable dt equal 0.01
variable strain equal 0.05
variable srate equal 1e-4
variable M equal 1000 # averaging time for properties
variable strainsteps equal ${strain}/${dt}/${srate}
variable strainsteps equal 0.05/${dt}/${srate}
variable strainsteps equal 0.05/0.01/${srate}
variable strainsteps equal 0.05/0.01/0.0001


dimension 2
include init.mod
# NOTE: This script can be modified for different atomic structures,
# units, etc. See in.elastic for more info.
#

# Define the finite deformation size. Try several values of this
# variable to verify that results do not depend on it.
variable up equal 1.0e-1

# Define the amount of random jiggle for atoms
# This prevents atoms from staying on saddle points
variable atomjiggle equal 1.0e-6

# Uncomment one of these blocks, depending on what units
# you are using in LAMMPS and for output

# metal units, elastic constants in eV/A^3
#units		metal
#variable cfac equal 6.2414e-7
#variable cunits string eV/A^3

# Choose potential
# metal units, elastic constants in GPa
units		metal
atom_style	full
#pair_style      lj/cut 1.0
#pair_style      yukawa 1.0 2.0
#pair_modify     mix arithmetic
bond_style      harmonic
angle_style     harmonic
dihedral_style  zero
special_bonds   amber
variable cfac equal 1.0e-4
variable cunits string GPa
boundary	p p p

# Need to set mass to something, just to satisfy LAMMPS
#mass 1 1.0e-20
read_data network.lmp
Reading data file ...
  orthogonal box = (-4.815762 -4.815762 -0.1) to (4.815762 4.815762 0.1)
  1 by 1 by 1 MPI processor grid
WARNING: Atom style in data file differs from currently defined atom style (src/read_data.cpp:538)
  reading atoms ...
  61 atoms
WARNING: Bond style in data file differs from currently defined bond style (src/read_data.cpp:630)
  scanning bonds ...
  6 = max bonds/atom
  reading bonds ...
  141 bonds
Finding 1-2 1-3 1-4 neighbors ...
  special bond factors lj:    0        0        0.5     
  special bond factors coul:  0        0        0.8333333333333334
     9 = max # of 1-2 neighbors
    44 = max # of 1-3 neighbors
   254 = max # of 1-4 neighbors
    34 = max # of special neighbors
  special bonds CPU = 0.000 seconds
  read_data CPU = 0.003 seconds

# real units, elastic constants in GPa
#units		real
#variable cfac equal 1.01325e-4
#variable cunits string GPa

# Define minimization parameters
variable etol equal 0.0
variable ftol equal 5.0e-10
variable maxiter equal 100000
variable maxeval equal 20000
variable dmax equal 1.0e-2


include potential.mod
# NOTE: This script can be modified for different pair styles
# See in.elastic for more info.

# Setup neighbor style
neighbor 3.0 nsq
neigh_modify once no every 1 delay 0 check yes
comm_modify cutoff 2.0

# Setup minimization style
min_style	     cg
min_modify	     dmax ${dmax} line quadratic
min_modify	     dmax 0.01 line quadratic

timestep	0.001


# Setup output
thermo		500
thermo_style custom step temp pe ebond eangle edihed press pxx pyy pzz pxy pxz pyz lx ly lz vol
thermo_modify norm no


#change_box all triclinic
comm_modify mode single cutoff 10.0 vel yes
atom_modify sort 0 0



# Compute initial state

#dump rela all atom 1 traj_relax.lmpstrj
fix 3 all box/relax x 0 y 0 # xy 0  #MS comment: relax if the network is periodic
minimize ${etol} ${ftol} ${maxiter} ${maxeval}
minimize 0 ${ftol} ${maxiter} ${maxeval}
minimize 0 5e-10 ${maxiter} ${maxeval}
minimize 0 5e-10 100000 ${maxeval}
minimize 0 5e-10 100000 20000
Neighbor list info ...
  update every 1 steps, delay 0 steps, check yes
  max neighbors/atom: 2000, page size: 100000
  master list distance cutoff = 0
  ghost atom cutoff = 10
  0 neighbor lists, perpetual/occasional/extra = 0 0 0
WARNING: Inconsistent image flags (src/domain.cpp:819)
Per MPI rank memory allocation (min/avg/max) = 9.217 | 9.217 | 9.217 Mbytes
   Step          Temp          PotEng         E_bond        E_angle        E_dihed         Press           Pxx            Pyy            Pzz            Pxy            Pxz            Pyz             Lx             Ly             Lz           Volume    
         0   0              5.8525641e-11  5.8525641e-11  0              0              0.45328196     0.40080079     0.50576313     0             -0.020593185    0              0              9.631524       9.631524       0.2            92.766255    
       264   0              1.4309899e-18  1.4309899e-18  0              0             -4.9188603e-08 -1.6355893e-07  6.5181724e-08  0             -8.1679396e-06  0              0              9.6315225      9.6315252      0.2            92.766252    
Loop time of 0.0164002 on 1 procs for 264 steps with 61 atoms

100.0% CPU use with 1 MPI tasks x 1 OpenMP threads

Minimization stats:
  Stopping criterion = force tolerance
  Energy initial, next-to-last, final = 
    5.85256407658131e-11 1.45567144335575e-18 1.43098985496555e-18
  Force two-norm initial, final = 5.0714619e-05 4.6957316e-10
  Force max component initial, final = 2.9283759e-05 1.8722191e-10
  Final line search alpha, max atom move = 1 1.8722191e-10
  Iterations, force evaluations = 264 528

MPI task timing breakdown:
Section |  min time  |  avg time  |  max time  |%varavg| %total
---------------------------------------------------------------
Pair    | 0          | 0          | 0          |   0.0 |  0.00
Bond    | 0.0024163  | 0.0024163  | 0.0024163  |   0.0 | 14.73
Neigh   | 0          | 0          | 0          |   0.0 |  0.00
Comm    | 0.0048462  | 0.0048462  | 0.0048462  |   0.0 | 29.55
Output  | 0          | 0          | 0          |   0.0 |  0.00
Modify  | 0          | 0          | 0          |   0.0 |  0.00
Other   |            | 0.009138   |            |       | 55.72

Nlocal:             61 ave          61 max          61 min
Histogram: 1 0 0 0 0 0 0 0 0 0
Nghost:            512 ave         512 max         512 min
Histogram: 1 0 0 0 0 0 0 0 0 0
Neighs:              0 ave           0 max           0 min
Histogram: 1 0 0 0 0 0 0 0 0 0

Total # of neighbors = 0
Ave neighs/atom = 0
Ave special neighs/atom = 23.016393
Neighbor list builds = 0
Dangerous builds = 0
#dump rela all atom 1 traj_relax.lmpstrj
thermo 100
unfix 3

fix 2d all enforce2d



#dump dump0 all xyz 1000000 cfg0.xyz
#dump_modify dump0 format line "%d %20.10g %20.10g %20.10g"
#minimize ${etol} ${ftol} ${maxiter} ${maxeval}

#undump rela

#write_restart restart.equil

# These formulas define the derivatives w.r.t. strain components
# Constants uses $, variables use v_


timestep        ${dt}
timestep        0.01
variable nsteps equal round(${strainsteps})
variable nsteps equal round(50000)

fix             4 all nve
fix             5 all langevin 0.1 0.1 1 904297
#fix		6 all press/berendsen y  0.0 0.0 1 x 0.0 0.0 10
fix             6 all nph y 0.0 0.0 10 ptemp 0.1 # x 0.0 0.0 10

# For PLUMED2
# fix 22 all plumed plumedfile plumed.dat outfile plumed.out

#fix             6 all nph x 0.0 0.0 10
fix     	9 all deform 1 x erate -${srate} units box remap x
fix     	9 all deform 1 x erate -0.0001 units box remap x

#fix     8 all deform 1 xy erate ${srate} units box remap x



#fix    10 all ave/time

dump 1 all atom 250 deform_dump.lammpstrj


#To avoid flying ice cube phenomenon:
#fix 21 all momentum 100 linear 1 1 1 angular


run  ${nsteps}
run  50000
WARNING: One or more atoms are time integrated more than once (src/modify.cpp:292)
WARNING: Inconsistent image flags (src/domain.cpp:819)
Per MPI rank memory allocation (min/avg/max) = 8.092 | 8.092 | 8.092 Mbytes
   Step          Temp          PotEng         E_bond        E_angle        E_dihed         Press           Pxx            Pyy            Pzz            Pxy            Pxz            Pyz             Lx             Ly             Lz           Volume    
       264   0              1.4309899e-18  1.4309899e-18  0              0             -4.9188603e-08 -1.6355893e-07  6.5181724e-08  0             -8.1679396e-06  0              0              9.6315225      9.6315252      0.2            92.766252    
       300   0.11839611     0.00022815103  0.00022815103  0              0              11.1169        46.532001     -24.479142      0             -91.649889      0              0              9.6311758      9.6319404      0.2            92.766911    
       400   0.19028928     0.0010050595   0.0010050595   0              0              542.21098      1092.768      -8.5173689      0              138.72425      0              0              9.6302126      9.6383225      0.2            92.819095    
       500   0.22123767     0.0011305772   0.0011305772   0              0              175.17765      234.68715      115.47071      0             -505.75679      0              0              9.6292495      9.6278817      0.2            92.709275    
       600   0.18160316     0.0010253631   0.0010253631   0              0              989.36291      1700.4921      278.04091      0              151.29965      0              0              9.6282863      9.6263493      0.2            92.685247    
       700   0.19076183     0.001136518    0.001136518    0              0              134.17432      5.6601477      262.50477      0             -568.51046      0              0              9.6273232      9.6340558      0.2            92.750168    
       800   0.18594933     0.0009813078   0.0009813078   0              0              583.19939      1054.9817      111.2219       0             -369.74134      0              0              9.62636        9.6406399      0.2            92.804271    
       900   0.19057504     0.00099742085  0.00099742085  0              0              39.571017      25.195715      53.757513      0             -703.79761      0              0              9.6253969      9.6261834      0.2            92.655836    
      1000   0.17621212     0.0011939332   0.0011939332   0              0              33.542032      269.96133     -203.08513      0              175.2736       0              0              9.6244337      9.6380895      0.2            92.761153    
      1100   0.24373469     0.0008065771   0.0008065771   0              0             -100.64612      99.641324     -301.09564      0             -543.26485      0              0              9.6234706      9.6398761      0.2            92.769064    
      1200   0.17890003     0.00098985818  0.00098985818  0              0             -36.280506      193.58295     -266.30828      0             -299.8115       0              0              9.6225074      9.6329273      0.2            92.692915    
      1300   0.21853322     0.00073298258  0.00073298258  0              0             -223.64081     -512.90253      65.407395      0             -493.97862      0              0              9.6215443      9.6362331      0.2            92.715443    
      1400   0.21807728     0.0011242112   0.0011242112   0              0              291.12752      221.66052      360.41092      0              105.72049      0              0              9.6205811      9.6310438      0.2            92.656239    
      1500   0.1910857      0.0012004868   0.0012004868   0              0              767.28774      1163.3218      371.0722       0             -588.43606      0              0              9.619618       9.6349366      0.2            92.68441     
      1600   0.22082522     0.001050072    0.001050072    0              0             -87.096716     -205.86701      31.45309       0              6.3396704      0              0              9.6186548      9.6311142      0.2            92.638363    
      1700   0.15571426     0.00096781234  0.00096781234  0              0              50.931188      494.2162      -392.53291      0             -187.17717      0              0              9.6176917      9.6365637      0.2            92.681498    
      1800   0.21465861     0.00095301127  0.00095301127  0              0             -648.17386     -616.67975     -679.84145      0             -385.03355      0              0              9.6167285      9.6390082      0.2            92.695725    
      1900   0.24857327     0.00074046294  0.00074046294  0              0             -295.17341     -57.721253     -532.80325      0             -409.8951       0              0              9.6157654      9.6424058      0.2            92.719111    
      2000   0.17300806     0.0011216465   0.0011216465   0              0              608.46961      1216.2635      0.46376566     0              148.26359      0              0              9.6148022      9.6372685      0.2            92.660431    
      2100   0.21375793     0.00090806323  0.00090806323  0              0              1031.6019      1273.7111      789.32424      0              657.29717      0              0              9.613839       9.6348986      0.2            92.628364    
      2200   0.15591396     0.00092119994  0.00092119994  0              0              721.54228      369.95331      1072.9689      0              508.48631      0              0              9.6128759      9.6335324      0.2            92.605952    
      2300   0.25681354     0.0008011276   0.0008011276   0              0              685.33525      752.31008      618.15136      0              186.71707      0              0              9.6119127      9.6348172      0.2            92.609022    
      2400   0.26541485     0.0013433242   0.0013433242   0              0              266.5527       973.97687     -441.0395       0              719.19941      0              0              9.6109496      9.6431608      0.2            92.679932    
      2500   0.20472745     0.0010002743   0.0010002743   0              0             -635.26636      146.5952      -1417.2849      0             -82.20855       0              0              9.6099864      9.6395029      0.2            92.635492    
      2600   0.18259554     0.0011372753   0.0011372753   0              0             -634.78055      202.64923     -1472.4115      0             -227.57933      0              0              9.6090233      9.6367041      0.2            92.599314    
      2700   0.19748407     0.00088250897  0.00088250897  0              0              4.8598081      711.26233     -701.73616      0              515.68678      0              0              9.6080601      9.6279299      0.2            92.50573     
      2800   0.22824415     0.0010530597   0.0010530597   0              0              425.85696      453.96106      397.54978      0              444.37071      0              0              9.607097       9.6253071      0.2            92.471259    
      2900   0.23057013     0.0012596891   0.0012596891   0              0              644.56128     -2.1149413      1291.0432      0              747.72212      0              0              9.6061338      9.6249341      0.2            92.458405    
      3000   0.18150512     0.0009851299   0.0009851299   0              0              1118.8244      913.6024       1323.8738      0              87.309858      0              0              9.6051707      9.6237693      0.2            92.437946    
      3100   0.24323663     0.0010357353   0.0010357353   0              0              879.59661      1108.0971      650.95062      0              316.59105      0              0              9.6042075      9.6277842      0.2            92.467238    
      3200   0.20394156     0.0010505207   0.0010505207   0              0              971.20954      2337.3071     -395.04473      0              656.11359      0              0              9.6032444      9.6354955      0.2            92.532018    
      3300   0.18447773     0.0010854526   0.0010854526   0              0             -508.88976      217.15783     -1235.0927      0              276.57689      0              0              9.6022812      9.6331387      0.2            92.500107    
      3400   0.17786093     0.0011927718   0.0011927718   0              0              125.95461      1422.0724     -1170.3641      0              613.71728      0              0              9.6013181      9.6280125      0.2            92.44161     
      3500   0.21262251     0.0011603251   0.0011603251   0              0              570.94673      1384.8812     -243.15299      0              33.39002       0              0              9.6003549      9.6268289      0.2            92.420974    
      3600   0.18679792     0.0011872746   0.0011872746   0              0              1316.0258      2058.0678      573.77122      0              807.30595      0              0              9.5993918      9.6289332      0.2            92.431902    
      3700   0.23912968     0.001069149    0.001069149    0              0              1316.0739      1762.9786      868.97754      0              406.43221      0              0              9.5984286      9.6334135      0.2            92.465632    
      3800   0.178981       0.0011798043   0.0011798043   0              0              732.50633      751.24478      713.57307      0              17.660618      0              0              9.5974655      9.633894       0.2            92.460965    
      3900   0.16736876     0.0010637575   0.0010637575   0              0              576.49117      998.55042      154.24578      0              670.74064      0              0              9.5965023      9.6383106      0.2            92.49407     
      4000   0.22797353     0.0012384095   0.0012384095   0              0              430.09615      1416.7697     -556.75853      0              88.135742      0              0              9.5955392      9.6395701      0.2            92.496872    
      4100   0.18190597     0.00091081726  0.00091081726  0              0             -198.18078      634.06255     -1030.6081      0              847.07696      0              0              9.594576       9.6461542      0.2            92.55076     
      4200   0.19874718     0.00096731025  0.00096731025  0              0              167.28452      1083.2146     -748.80911      0              448.09156      0              0              9.5936128      9.6419181      0.2            92.50083     
      4300   0.17577969     0.00127254     0.00127254     0              0              570.23167      1151.155      -10.872472      0              246.55712      0              0              9.5926497      9.6330419      0.2            92.406396    
      4400   0.2016938      0.00098384106  0.00098384106  0              0              173.71984     -431.51599      778.77473      0              71.701291      0              0              9.5916865      9.6322665      0.2            92.389681    
      4500   0.2116102      0.001211876    0.001211876    0              0              813.4187       631.94895      994.68436      0              368.71075      0              0              9.5907234      9.6339769      0.2            92.396808    
      4600   0.24943334     0.0012973439   0.0012973439   0              0              1034.8284      1618.6426      450.82467      0              308.94437      0              0              9.5897602      9.641033       0.2            92.455195    
      4700   0.15537971     0.0011843783   0.0011843783   0              0              414.36287      1212.3006     -383.76567      0             -138.89494      0              0              9.5887971      9.6466853      0.2            92.500108    
      4800   0.26442368     0.0009944178   0.0009944178   0              0             -154.35982      471.12531     -780.03823      0              1008.6913      0              0              9.5878339      9.6528396      0.2            92.549823    
      4900   0.24988463     0.00095797528  0.00095797528  0              0              700.63623      2062.7781     -661.74098      0              826.31548      0              0              9.5868708      9.6499004      0.2            92.512348    
      5000   0.23626291     0.00094004096  0.00094004096  0              0              385.94575      979.28177     -207.56729      0              972.89884      0              0              9.5859076      9.6404377      0.2            92.412345    
      5100   0.22712544     0.0011097717   0.0011097717   0              0              435.77401      463.5744       407.78214      0              201.77584      0              0              9.5849445      9.6456503      0.2            92.453023    
      5200   0.2180639      0.0011283877   0.0011283877   0              0              719.84121      986.9114       452.57788      0              772.73877      0              0              9.5839813      9.6451497      0.2            92.438935    
      5300   0.18306054     0.001111738    0.001111738    0              0              537.45985      704.99175      369.73831      0              972.34196      0              0              9.5830182      9.6405393      0.2            92.385464    
      5400   0.19876848     0.0011641406   0.0011641406   0              0              193.45771      460.77719     -74.068687      0              1289.1321      0              0              9.582055       9.6447494      0.2            92.416519    
      5500   0.22088028     0.0013142831   0.0013142831   0              0              148.18199      657.36672     -361.19274      0              284.81723      0              0              9.5810919      9.6452047      0.2            92.411592    
      5600   0.17003463     0.0011836039   0.0011836039   0              0             -330.2966      -152.59378     -508.19139      0              496.86086      0              0              9.5801287      9.650147       0.2            92.449651    
      5700   0.26581155     0.0010768933   0.0010768933   0              0             -0.33812376     211.49365     -212.32         0              330.98808      0              0              9.5791656      9.6437282      0.2            92.378869    
      5800   0.18351221     0.0014158873   0.0014158873   0              0              798.81364      1181.7         415.74978      0              1118.8439      0              0              9.5782024      9.6409137      0.2            92.342622    
      5900   0.17835162     0.0011924217   0.0011924217   0              0              1140.7383      1651.734       629.56044      0              728.30396      0              0              9.5772393      9.6338111      0.2            92.265314    
      6000   0.19450146     0.00098543227  0.00098543227  0              0              491.13822      689.82219      292.28247      0              483.23086      0              0              9.5762761      9.6435678      0.2            92.349468    
      6100   0.21080493     0.0010418696   0.0010418696   0              0              103.71239      546.29908     -339.01843      0              598.5949       0              0              9.575313       9.640839       0.2            92.31405     
      6200   0.24676706     0.0011069121   0.0011069121   0              0             -85.70751       519.93109     -691.53577      0              514.90379      0              0              9.5743498      9.6453886      0.2            92.348324    
      6300   0.24923902     0.0012316139   0.0012316139   0              0             -539.82514     -485.0736      -594.78884      0              619.17848      0              0              9.5733867      9.6519368      0.2            92.401723    
      6400   0.20692792     0.0011778053   0.0011778053   0              0              689.48839      1355.2325      23.588544      0              444.16549      0              0              9.5724235      9.6447192      0.2            92.323336    
      6500   0.2305792      0.0012282423   0.0012282423   0              0              576.21243      517.95079      634.30182      0              569.0936       0              0              9.5714603      9.6447615      0.2            92.314452    
      6600   0.20593759     0.00100112     0.00100112     0              0              232.3489      -281.53692      746.09121      0              40.436467      0              0              9.5704972      9.640713       0.2            92.266416    
      6700   0.19787409     0.0010908152   0.0010908152   0              0              133.04843     -12.467838      278.38553      0              1057.4725      0              0              9.569534       9.6359114      0.2            92.211182    
      6800   0.21229432     0.0013656923   0.0013656923   0              0             -57.463498      335.60661     -450.72517      0              990.32573      0              0              9.5685709      9.6429641      0.2            92.269386    
      6900   0.19646002     0.0012771051   0.0012771051   0              0              69.400963      948.29936     -809.69815      0              526.58111      0              0              9.5676077      9.6454367      0.2            92.283755    
      7000   0.20270055     0.00110825     0.00110825     0              0              205.14871      834.86943     -424.72285      0              855.57681      0              0              9.5666446      9.6470495      0.2            92.289894    
      7100   0.17034963     0.0010944397   0.0010944397   0              0              1032.4566      1651.0594      413.67156      0              181.34061      0              0              9.5656814      9.6441378      0.2            92.25275     
      7200   0.23641486     0.00093312391  0.00093312391  0              0              708.99831      578.33544      839.47565      0             -264.4003       0              0              9.5647183      9.6373152      0.2            92.178205    
      7300   0.20640591     0.0010243725   0.0010243725   0              0              549.45147      351.09254      747.60661      0              87.37174       0              0              9.5637551      9.6371536      0.2            92.167377    
      7400   0.18350999     0.0011169725   0.0011169725   0              0              904.8843       1602.1604      207.43427      0             -28.6106        0              0              9.562792       9.6430016      0.2            92.214018    
      7500   0.17778584     0.0011611621   0.0011611621   0              0              49.370045      561.86752     -463.31852      0              563.03695      0              0              9.5618288      9.6535089      0.2            92.3052      
      7600   0.25092517     0.0010160598   0.0010160598   0              0              353.6953       1380.1976     -672.98567      0              624.36746      0              0              9.5608657      9.6490559      0.2            92.253328    
      7700   0.19576181     0.0012344159   0.0012344159   0              0              101.66148      646.24381     -443.09788      0              598.04478      0              0              9.5599025      9.6453977      0.2            92.209062    
      7800   0.22150288     0.0012719319   0.0012719319   0              0              500.46312      896.12252      104.64165      0              1068.8968      0              0              9.5589394      9.6497923      0.2            92.241779    
      7900   0.19117144     0.00094700673  0.00094700673  0              0              824.42486      1128.1363      520.56192      0              742.09859      0              0              9.5579762      9.6402212      0.2            92.141005    
      8000   0.1698428      0.0010748463   0.0010748463   0              0              435.63838      551.30671      319.78939      0              743.69557      0              0              9.5570131      9.6455215      0.2            92.182375    
      8100   0.22405913     0.00094281137  0.00094281137  0              0              356.64516      682.05879      31.038867      0              1035.4342      0              0              9.5560499      9.64525        0.2            92.17049     
      8200   0.17712001     0.0011332981   0.0011332981   0              0             -204.26778     -216.38502     -192.31424      0              932.33395      0              0              9.5550868      9.6414226      0.2            92.124629    
      8300   0.21229165     0.0011200776   0.0011200776   0              0              476.56046      1092.9709     -140.02557      0              904.62593      0              0              9.5541236      9.6443482      0.2            92.143295    
      8400   0.19230923     0.0012014145   0.0012014145   0              0              123.55175      353.66947     -106.76308      0              644.0677       0              0              9.5531605      9.6470131      0.2            92.159464    
      8500   0.15870335     0.0012286125   0.0012286125   0              0              617.21771      1195.4268      38.816531      0              903.0745       0              0              9.5521973      9.6514122      0.2            92.192194    
      8600   0.17324672     0.0013739228   0.0013739228   0              0              481.62526      852.8478       110.19261      0              977.69553      0              0              9.5512341      9.6454637      0.2            92.126082    
      8700   0.23341047     0.001222822    0.001222822    0              0              452.11613      771.29087      132.7319       0              964.79227      0              0              9.550271       9.6409625      0.2            92.073804    
      8800   0.1960946      0.0012991808   0.0012991808   0              0              311.85294      664.70236     -41.177567      0              930.75621      0              0              9.5493078      9.6336796      0.2            91.994972    
      8900   0.22845144     0.0011967242   0.0011967242   0              0              5.7469234      216.98618     -205.72923      0              873.70321      0              0              9.5483447      9.6309733      0.2            91.959853    
      9000   0.15613531     0.001355939    0.001355939    0              0              169.61852      673.83856     -334.78896      0              1034.2741      0              0              9.5473815      9.6353777      0.2            91.992627    
      9100   0.23690781     0.0012289764   0.0012289764   0              0              878.37572      1904.6887     -148.10533      0              917.60715      0              0              9.5464184      9.6357538      0.2            91.986937    
      9200   0.2068364      0.0011052224   0.0011052224   0              0              799.87622      1450.7602      148.79405      0              731.9865       0              0              9.5454552      9.6314915      0.2            91.936971    
      9300   0.18937311     0.0012527258   0.0012527258   0              0              1052.1537      1830.7356      273.37926      0              1201.1928      0              0              9.5444921      9.63584        0.2            91.969199    
      9400   0.21382386     0.0011368007   0.0011368007   0              0              859.00279      1571.1741      146.63269      0              1536.6684      0              0              9.5435289      9.6339414      0.2            91.941799    
      9500   0.21528697     0.0012234928   0.0012234928   0              0              187.73853      556.30377     -181.03152      0              838.08286      0              0              9.5425658      9.6402366      0.2            91.992592    
      9600   0.20298424     0.0011673345   0.0011673345   0              0              166.71509      646.76007     -313.51107      0              946.41703      0              0              9.5416026      9.6405626      0.2            91.986418    
      9700   0.1828639      0.0013700701   0.0013700701   0              0              488.24959      1117.5512     -141.26131      0              892.70132      0              0              9.5406395      9.6408806      0.2            91.980166    
      9800   0.1947844      0.0010815493   0.0010815493   0              0              823.2627       1380.8395      265.48829      0              770.0977       0              0              9.5396763      9.6461139      0.2            92.020805    
      9900   0.19013706     0.0012262893   0.0012262893   0              0              1112.3436      1560.7433      663.78566      0              513.56185      0              0              9.5387132      9.6318716      0.2            91.875661    
     10000   0.20256417     0.0012359736   0.0012359736   0              0              938.27081      1378.678       497.66472      0              878.62995      0              0              9.53775        9.6369801      0.2            91.915107    
     10100   0.20911897     0.0013884977   0.0013884977   0              0              605.06841      1160.2076      49.724471      0              323.33328      0              0              9.5367869      9.6417505      0.2            91.951319    
     10200   0.17553806     0.00099075639  0.00099075639  0              0              293.17441      1028.3464     -442.18041      0              780.46063      0              0              9.5358237      9.6435908      0.2            91.959581    
     10300   0.19268777     0.001173801    0.001173801    0              0             -192.85162      206.32159     -592.19287      0              138.49298      0              0              9.5348606      9.6375473      0.2            91.89267     
     10400   0.20433986     0.0010609251   0.0010609251   0              0              209.34811      590.77944     -172.27014      0              779.27384      0              0              9.5338974      9.6350027      0.2            91.859127    
     10500   0.18069985     0.0012353674   0.0012353674   0              0              579.30421      843.18899      315.22927      0              650.85969      0              0              9.5329343      9.6411906      0.2            91.908837    
     10600   0.20020008     0.0010143045   0.0010143045   0              0              693.59592      778.14259      608.8632       0              665.38884      0              0              9.5319711      9.6426763      0.2            91.913712    
     10700   0.20648228     0.00093170879  0.00093170879  0              0              516.71201      702.09052      331.11655      0              855.80377      0              0              9.531008       9.6443679      0.2            91.920547    
     10800   0.21653694     0.0010916415   0.0010916415   0              0             -261.39661     -21.527892     -501.43852      0              886.14281      0              0              9.5300448      9.6490142      0.2            91.955538    
     10900   0.22971784     0.0010129899   0.0010129899   0              0             -444.68817      36.897009     -926.41427      0              718.69238      0              0              9.5290816      9.6483276      0.2            91.939701    
     11000   0.197902       0.0008947857   0.0008947857   0              0              465.61424      1322.726      -391.67068      0              1240.2426      0              0              9.5281185      9.646582       0.2            91.913776    
     11100   0.21064407     0.0013581848   0.0013581848   0              0              454.28961      275.68237      632.74249      0              686.71645      0              0              9.5271553      9.6406871      0.2            91.848324    
     11200   0.22596119     0.0011038465   0.0011038465   0              0              917.59835      589.83071      1245.2389      0             -171.15806      0              0              9.5261922      9.638425       0.2            91.817489    
     11300   0.22165803     0.00099817842  0.00099817842  0              0              1139.0038      1595.3954      682.44448      0              55.600992      0              0              9.525229       9.6424504      0.2            91.846548    
     11400   0.19256817     0.0010909404   0.0010909404   0              0             -358.05563      29.012729     -745.29282      0              787.47499      0              0              9.5242659      9.6598737      0.2            92.003205    
     11500   0.20829376     0.00096399987  0.00096399987  0              0             -529.52874      202.68009     -1261.9088      0              623.08827      0              0              9.5233027      9.6564976      0.2            91.96175     
     11600   0.20011754     0.0010120365   0.0010120365   0              0              100.57205      727.97096     -527.0228       0              708.29651      0              0              9.5223396      9.6563347      0.2            91.950898    
     11700   0.20928076     0.0010401799   0.0010401799   0              0              1069.8976      1470.0527      669.564        0              634.47316      0              0              9.5213764      9.6499535      0.2            91.88084     
     11800   0.1873958      0.00092698871  0.00092698871  0              0              1775.565       2179.876       1371.0755      0             -359.5701       0              0              9.5204133      9.6487202      0.2            91.859804    
     11900   0.19749319     0.0010409992   0.0010409992   0              0              1092.1274      1440.3175      743.75766      0             -667.77221      0              0              9.5194501      9.6415699      0.2            91.782444    
     12000   0.19641942     0.00098900067  0.00098900067  0              0             -6.1314043      472.33694     -484.78048      0              456.67289      0              0              9.518487       9.6517469      0.2            91.870027    
     12100   0.22001426     0.0012012358   0.0012012358   0              0              109.38759      1623.6091     -1405.0124      0             -325.95114      0              0              9.5175238      9.6574677      0.2            91.915179    
     12200   0.18042836     0.0011786279   0.0011786279   0              0             -465.45368     -78.643966     -852.43285      0              265.58042      0              0              9.5165607      9.6596368      0.2            91.926519    
     12300   0.22149268     0.0012163219   0.0012163219   0              0              956.59455      1349.9805      563.05452      0              68.116478      0              0              9.5155975      9.6420086      0.2            91.749473    
     12400   0.1828081      0.0011932933   0.0011932933   0              0              1201.209       1211.4051      1190.8216      0              59.919004      0              0              9.5146344      9.6457225      0.2            91.775523    
     12500   0.17851185     0.0011097248   0.0011097248   0              0              1180.3952      1662.5469      698.06998      0              238.60249      0              0              9.5136712      9.6531123      0.2            91.836537    
     12600   0.17929032     0.00094577057  0.00094577057  0              0              39.542195      593.26375     -514.32843      0              296.43452      0              0              9.5127081      9.6624974      0.2            91.916516    
     12700   0.18996006     0.0011606858   0.0011606858   0              0             -282.91345      635.23691     -1201.2526      0              695.49753      0              0              9.5117449      9.6671701      0.2            91.951656    
     12800   0.18519908     0.001130284    0.001130284    0              0              87.091085      889.02902     -715.03377      0              691.60168      0              0              9.5107818      9.6630196      0.2            91.90287     
     12900   0.18814906     0.001042731    0.001042731    0              0              328.57001      463.99861      192.97916      0              517.19699      0              0              9.5098186      9.6517779      0.2            91.786657    
     13000   0.18082161     0.0012862904   0.0012862904   0              0              779.2559       907.26421      651.07716      0              284.97235      0              0              9.5088555      9.6429442      0.2            91.693362    
     13100   0.20702982     0.0011935241   0.0011935241   0              0              143.36552     -285.36241      571.90541      0              831.58108      0              0              9.5078923      9.6506266      0.2            91.757119    
     13200   0.22179528     0.0012194825   0.0012194825   0              0              285.61136      634.80302     -63.747201      0              376.27019      0              0              9.5069291      9.6523384      0.2            91.764098    
     13300   0.20790414     0.0011329523   0.0011329523   0              0             -293.59288     -118.60313     -468.78561      0              566.51511      0              0              9.505966       9.6531085      0.2            91.762121    
     13400   0.21109869     0.00099971254  0.00099971254  0              0              74.135211      460.32225     -312.21646      0              34.702118      0              0              9.5050028      9.6529513      0.2            91.75133     
     13500   0.24263025     0.0010232533   0.0010232533   0              0              115.54464      170.60055      60.342131      0             -153.08889      0              0              9.5040397      9.656566       0.2            91.776386    
     13600   0.19581699     0.0011394105   0.0011394105   0              0              594.8755       907.20722      282.36932      0             -825.04787      0              0              9.5030765      9.6524407      0.2            91.727883    
     13700   0.22226078     0.0010290716   0.0010290716   0              0              723.44187      1267.3181      179.37653      0             -281.29688      0              0              9.5021134      9.6423863      0.2            91.623048    
     13800   0.1996388      0.0012335946   0.0012335946   0              0              282.23677      645.72362     -81.45872       0              167.79159      0              0              9.5011502      9.6464221      0.2            91.652106    
     13900   0.21014389     0.00088161003  0.00088161003  0              0              364.69655      1136.1456     -406.92843      0             -355.29269      0              0              9.5001871      9.6481159      0.2            91.658906    
     14000   0.20193578     0.00064559443  0.00064559443  0              0              78.140725      453.09313     -296.98056      0             -41.705172      0              0              9.4992239      9.6491351      0.2            91.659295    
     14100   0.16983536     0.001018386    0.001018386    0              0              253.20515      487.95884      18.263347      0              150.18455      0              0              9.4982608      9.6487694      0.2            91.646528    
     14200   0.15668511     0.00097823964  0.00097823964  0              0              468.53953      670.61957      266.22379      0              106.00132      0              0              9.4972976      9.6490626      0.2            91.64002     
     14300   0.21159941     0.00090671664  0.00090671664  0              0              598.52965      990.49698      206.36311      0             -159.66417      0              0              9.4963345      9.6469469      0.2            91.610634    
     14400   0.21553457     0.00086841833  0.00086841833  0              0              297.65375      564.49185      30.644035      0              16.44297       0              0              9.4953713      9.6530506      0.2            91.659299    
     14500   0.19023717     0.0010045622   0.0010045622   0              0              152.24403      599.82205     -295.50251      0             -83.888492      0              0              9.4944082      9.6566655      0.2            91.684324    
     14600   0.21973549     0.00097194569  0.00097194569  0              0             -303.33083     -310.85812     -295.97374      0             -365.49191      0              0              9.493445       9.656243       0.2            91.671012    
     14700   0.20417062     0.001070926    0.001070926    0              0              327.16643      566.86487      87.276816      0              671.12823      0              0              9.4924819      9.6648462      0.2            91.743377    
     14800   0.21512027     0.00092077556  0.00092077556  0              0              897.0189       1436.3335      357.53535      0             -343.61839      0              0              9.4915187      9.6549516      0.2            91.640154    
     14900   0.17748427     0.0010071754   0.0010071754   0              0              54.481778     -88.038348      196.77531      0             -651.67136      0              0              9.4905556      9.6496066      0.2            91.580128    
     15000   0.22447613     0.00086513642  0.00086513642  0              0              76.269016      265.50968     -113.13501      0             -63.064069      0              0              9.4895924      9.6523465      0.2            91.596834    
     15100   0.25926743     0.0011399517   0.0011399517   0              0              12.928574      313.6224      -287.92733      0              742.30669      0              0              9.4886293      9.6503977      0.2            91.569046    
     15200   0.18061773     0.00088112246  0.00088112246  0              0              198.66651      455.33099     -58.171526      0              97.099009      0              0              9.4876661      9.6523772      0.2            91.578532    
     15300   0.2321424      0.0011921786   0.0011921786   0              0              914.22596      1585.8502      242.41697      0              706.02667      0              0              9.4867029      9.6523908      0.2            91.569364    
     15400   0.15507341     0.00093005781  0.00093005781  0              0              537.05896      524.83344      549.09178      0              698.71231      0              0              9.4857398      9.6517678      0.2            91.554158    
     15500   0.2058198      0.00099148859  0.00099148859  0              0              294.71593      320.52322      268.73317      0              984.79051      0              0              9.4847766      9.6546175      0.2            91.571891    
     15600   0.18589194     0.0011841606   0.0011841606   0              0              333.52267      715.39638     -48.532349      0              589.71365      0              0              9.4838135      9.6523976      0.2            91.541539    
     15700   0.17342615     0.001056367    0.001056367    0              0             -630.84731     -752.07646     -509.76617      0              208.30962      0              0              9.4828503      9.6594222      0.2            91.598855    
     15800   0.22571047     0.00093696132  0.00093696132  0              0             -324.44251     -493.19967     -155.87351      0              968.70216      0              0              9.4818872      9.6574213      0.2            91.570579    
     15900   0.16402884     0.0012842699   0.0012842699   0              0             -108.17965     -379.21555      162.6809       0              840.82705      0              0              9.480924       9.6606189      0.2            91.591594    
     16000   0.21441052     0.0013006099   0.0013006099   0              0              1051.3062      1764.2082      338.21573      0              1508.25        0              0              9.4799609      9.6606366      0.2            91.582457    
     16100   0.21059278     0.0014158938   0.0014158938   0              0             -173.58024     -581.10721      233.74657      0              235.86394      0              0              9.4789977      9.6617754      0.2            91.583947    
     16200   0.21945551     0.0013281895   0.0013281895   0              0             -146.15188     -71.82389      -220.67834      0              683.13414      0              0              9.4780346      9.6703114      0.2            91.655546    
     16300   0.20860404     0.0014994579   0.0014994579   0              0              182.31555      809.78128     -445.32744      0              486.3416       0              0              9.4770714      9.6682893      0.2            91.627068    
     16400   0.17025636     0.0011975743   0.0011975743   0              0             -865.48535     -1469.7891     -261.35662      0              844.59591      0              0              9.4761083      9.6711747      0.2            91.645099    
     16500   0.2144931      0.001176881    0.001176881    0              0              315.65836      495.93203      135.20276      0              482.59099      0              0              9.4751451      9.6600285      0.2            91.530172    
     16600   0.26168287     0.0009629632   0.0009629632   0              0              426.50298      558.93085      293.89344      0             -406.5495       0              0              9.474182       9.6554728      0.2            91.477706    
     16700   0.23741958     0.0013143479   0.0013143479   0              0             -121.05123     -220.98308     -21.331467      0              904.04023      0              0              9.4732188      9.6501559      0.2            91.418039    
     16800   0.17899228     0.0012814594   0.0012814594   0              0              243.49922      854.3318      -367.50158      0             -200.71201      0              0              9.4722557      9.6544547      0.2            91.449464    
     16900   0.22311611     0.001200383    0.001200383    0              0              416.95551      1252.8329     -419.11863      0              44.563088      0              0              9.4712925      9.652756       0.2            91.424076    
     17000   0.22119728     0.0010835754   0.0010835754   0              0              667.2202       1161.5021      172.71941      0             -360.19003      0              0              9.4703294      9.6530084      0.2            91.417169    
     17100   0.19857468     0.0011116733   0.0011116733   0              0              806.13903      1079.7813      532.33644      0              649.53544      0              0              9.4693662      9.6467672      0.2            91.348772    
     17200   0.18037194     0.0010489062   0.0010489062   0              0              524.80641      714.33998      335.06134      0             -162.30363      0              0              9.4684031      9.6492649      0.2            91.363129    
     17300   0.13809721     0.0010296514   0.0010296514   0              0             -311.96976     -270.58317     -353.55468      0             -41.808428      0              0              9.4674399      9.6522414      0.2            91.382015    
     17400   0.18540032     0.0011855971   0.0011855971   0              0             -479.32339     -472.1592      -486.69303      0              69.814437      0              0              9.4664768      9.6608246      0.2            91.453971    
     17500   0.18182082     0.0012332658   0.0012332658   0              0             -349.71802     -587.99735     -111.65212      0              350.95595      0              0              9.4655136      9.6566257      0.2            91.404921    
     17600   0.21410238     0.0011350909   0.0011350909   0              0              274.64941      275.76439      273.38224      0              1059.4977      0              0              9.4645504      9.6527606      0.2            91.359039    
     17700   0.21216913     0.0010147701   0.0010147701   0              0              616.47936      828.34106      404.4625       0              635.49502      0              0              9.4635873      9.6575802      0.2            91.395353    
     17800   0.16657678     0.0011867887   0.0011867887   0              0             -4.7098685     -182.75986      173.1375       0              1253.4377      0              0              9.4626241      9.6576991      0.2            91.387176    
     17900   0.2204467      0.001041396    0.001041396    0              0              297.99895      709.77413     -113.97319      0              603.55523      0              0              9.461661       9.6569489      0.2            91.370776    
     18000   0.16267561     0.0011044394   0.0011044394   0              0             -493.24012     -511.02305     -475.62113      0              265.33903      0              0              9.4606978      9.6548477      0.2            91.341597    
     18100   0.20331406     0.0010470753   0.0010470753   0              0              211.05627      639.66311     -217.7264       0              688.80179      0              0              9.4597347      9.652941       0.2            91.314261    
     18200   0.21198114     0.0010427276   0.0010427276   0              0              254.57517      208.25706      300.73214      0              213.13872      0              0              9.4587715      9.663798       0.2            91.407657    
     18300   0.16704489     0.0010673119   0.0010673119   0              0              837.79128      1254.7555      420.6395       0              984.48036      0              0              9.4578084      9.660417       0.2            91.366373    
     18400   0.20542338     0.0012845871   0.0012845871   0              0              625.71087      1115.9478      135.2618       0              231.24936      0              0              9.4568452      9.6623995      0.2            91.375817    
     18500   0.20978981     0.001065956    0.001065956    0              0              436.45679      1358.0097     -485.29565      0             -36.350938      0              0              9.4558821      9.6618273      0.2            91.361099    
     18600   0.2016553      0.0010343327   0.0010343327   0              0             -504.00486     -664.00131     -344.18795      0              455.18464      0              0              9.4549189      9.6578572      0.2            91.314257    
     18700   0.22316288     0.0011745461   0.0011745461   0              0              174.12633      160.11459      187.9501       0              296.16782      0              0              9.4539558      9.6562271      0.2            91.289543    
     18800   0.23764353     0.001102285    0.001102285    0              0              843.12553      993.63741      692.39821      0             -286.18032      0              0              9.4529926      9.6456901      0.2            91.180637    
     18900   0.24001539     0.0010709424   0.0010709424   0              0              882.5857       1313.8135      451.15758      0              725.53433      0              0              9.4520295      9.6505715      0.2            91.217486    
     19000   0.17796853     0.001143531    0.001143531    0              0             -100.41192     -8.0043069     -193.00806      0             -40.887831      0              0              9.4510663      9.6647012      0.2            91.341732    
     19100   0.23837103     0.0012188805   0.0012188805   0              0             -811.97287     -820.57993     -803.5273       0              345.41838      0              0              9.4501032      9.6663804      0.2            91.348292    
     19200   0.2213418      0.0014396006   0.0014396006   0              0             -240.24296      114.24466     -594.93172      0             -597.05086      0              0              9.44914        9.6634211      0.2            91.311019    
     19300   0.22084428     0.0011034876   0.0011034876   0              0              624.56448      1041.5335      207.39424      0              225.27428      0              0              9.4481769      9.6656143      0.2            91.322433    
     19400   0.19781216     0.00085745071  0.00085745071  0              0              1205.7729      1631.5041      779.84473      0              287.78132      0              0              9.4472137      9.6598623      0.2            91.258783    
     19500   0.15615102     0.0012216416   0.0012216416   0              0              1210.1636      1904.81        515.33817      0              1017.4212      0              0              9.4462506      9.6625861      0.2            91.275209    
     19600   0.19343212     0.001070612    0.001070612    0              0              253.87232      819.05295     -311.45692      0              385.08083      0              0              9.4452874      9.6641573      0.2            91.280743    
     19700   0.20016831     0.00099233221  0.00099233221  0              0             -221.9907       277.70006     -721.83839      0              1045.0296      0              0              9.4443242      9.6760594      0.2            91.383843    
     19800   0.22903671     0.0009842813   0.0009842813   0              0              323.21081      1018.0631     -371.82311      0              542.66812      0              0              9.4433611      9.6678767      0.2            91.29725     
     19900   0.21101233     0.0012720292   0.0012720292   0              0              541.42191      747.18178      335.48032      0              305.13555      0              0              9.4423979      9.6631912      0.2            91.243697    
     20000   0.153112       0.0010607851   0.0010607851   0              0              807.08269      841.9429       772.02017      0              384.68943      0              0              9.4414348      9.6492782      0.2            91.103031    
     20100   0.16779578     0.00085820812  0.00085820812  0              0              781.40951      1288.5787      274.03944      0              1005.9454      0              0              9.4404716      9.6563941      0.2            91.160915    
     20200   0.1946965      0.0011144798   0.0011144798   0              0             -95.187244      340.67861     -531.22723      0              302.11845      0              0              9.4395085      9.6591335      0.2            91.177473    
     20300   0.23018737     0.0011124828   0.0011124828   0              0             -317.21659      38.281273     -672.8859       0              298.56251      0              0              9.4385453      9.6596085      0.2            91.172653    
     20400   0.2243321      0.0011310646   0.0011310646   0              0              423.46307      879.38709     -32.667862      0              594.29221      0              0              9.4375822      9.6542599      0.2            91.112872    
     20500   0.2218179      0.0012794976   0.0012794976   0              0              703.14323      745.50604      660.58129      0              836.26974      0              0              9.436619       9.6431323      0.2            90.998566    
     20600   0.20296182     0.0010458429   0.0010458429   0              0              1060.8109      1371.5374      749.9293       0              783.67948      0              0              9.4356559      9.6505574      0.2            91.059339    
     20700   0.1820258      0.0010083265   0.0010083265   0              0              184.96285      378.58622     -8.8604251      0              844.94808      0              0              9.4346927      9.6458889      0.2            91.005998    
     20800   0.20986054     0.0011500689   0.0011500689   0              0             -506.15189     -76.901515     -935.57724      0              184.59548      0              0              9.4337296      9.6538136      0.2            91.071467    
     20900   0.20701474     0.0011574667   0.0011574667   0              0             -40.912891      906.70277     -988.73207      0              763.50741      0              0              9.4327664      9.6627041      0.2            91.146031    
     21000   0.19725623     0.0014367675   0.0014367675   0              0              523.88594      836.07162      211.53298      0              453.70264      0              0              9.4318033      9.6568461      0.2            91.081472    
     21100   0.22048004     0.0014534728   0.0014534728   0              0              1644.2343      1896.0729      1392.2254      0             -74.119663      0              0              9.4308401      9.64703        0.2            90.979597    
     21200   0.22744117     0.0011236912   0.0011236912   0              0              1253.6255      1639.1068      867.97348      0              683.91365      0              0              9.429877       9.6537645      0.2            91.033811    
     21300   0.17082623     0.0010265081   0.0010265081   0              0             -125.51312      274.12616     -525.35215      0              631.13181      0              0              9.4289138      9.6521152      0.2            91.008962    
     21400   0.17263324     0.0010853437   0.0010853437   0              0             -99.688769      1258.0287     -1457.567       0              232.3363       0              0              9.4279507      9.6540509      0.2            91.017915    
     21500   0.17422484     0.0012789601   0.0012789601   0              0              455.02899      1541.3585     -631.5292       0              708.70584      0              0              9.4269875      9.6491876      0.2            90.962771    
     21600   0.21752693     0.0012081266   0.0012081266   0              0              1550.8059      2167.902       933.54674      0              338.27472      0              0              9.4260244      9.6431696      0.2            90.896751    
     21700   0.23258998     0.0013162632   0.0013162632   0              0              783.08736      171.60747      1394.3738      0             -94.009216      0              0              9.4250612      9.6475915      0.2            90.92914     
     21800   0.23796199     0.0010284373   0.0010284373   0              0              620.00848      1021.4323      218.37926      0              570.393        0              0              9.4240981      9.6596448      0.2            91.033439    
     21900   0.20492344     0.0011410623   0.0011410623   0              0             -231.43951      673.87069     -1136.9371      0              1083.1931      0              0              9.4231349      9.6677383      0.2            91.100402    
     22000   0.25714657     0.001162608    0.001162608    0              0             -155.46395      797.58352     -1108.6812      0              958.16006      0              0              9.4221717      9.6644006      0.2            91.059642    
     22100   0.20268407     0.0013360293   0.0013360293   0              0              1269.6134      2409.6855      129.36391      0              711.49649      0              0              9.4212086      9.6607785      0.2            91.01621     
     22200   0.24539608     0.0011963769   0.0011963769   0              0              1466.9639      1967.3697      966.39604      0              221.72525      0              0              9.4202454      9.6504072      0.2            90.909205    
     22300   0.19090008     0.0012890984   0.0012890984   0              0              813.50632      1011.6532      615.2116       0              86.259534      0              0              9.4192823      9.6548512      0.2            90.941769    
     22400   0.18666166     0.00095085009  0.00095085009  0              0              253.28101      995.03447     -488.66351      0              388.56235      0              0              9.4183191      9.658239       0.2            90.964377    
     22500   0.20283501     0.0012297862   0.0012297862   0              0             -114.15897      440.57339     -669.0751       0              366.75954      0              0              9.417356       9.6610017      0.2            90.981092    
     22600   0.19801181     0.0012953983   0.0012953983   0              0              241.07665      428.15544      53.853122      0              980.94275      0              0              9.4163928      9.658184       0.2            90.945255    
     22700   0.21447174     0.0012203169   0.0012203169   0              0              958.54122      1516.5625      400.33782      0              1053.3548      0              0              9.4154297      9.6551307      0.2            90.907204    
     22800   0.20648667     0.0010404154   0.0010404154   0              0              252.51232      357.88573      146.947        0              1171.5607      0              0              9.4144665      9.6567851      0.2            90.91348     
     22900   0.19864392     0.0013834981   0.0013834981   0              0              118.73266      314.55864     -77.266374      0              566.48835      0              0              9.4135034      9.6547378      0.2            90.884907    
     23000   0.18157386     0.0012583426   0.0012583426   0              0              91.759066      255.42662     -72.087234      0              632.67578      0              0              9.4125402      9.6543747      0.2            90.87219     
     23100   0.18105979     0.0011452136   0.0011452136   0              0              112.13301      129.15301      94.922185      0             -126.1987       0              0              9.4115771      9.6568973      0.2            90.886633    
     23200   0.21214361     0.0012142597   0.0012142597   0              0              58.706297      24.213847      93.014467      0             -132.00972      0              0              9.4106139      9.6584282      0.2            90.891739    
     23300   0.2195046      0.0010728984   0.0010728984   0              0              815.62384      1690.1658     -59.130888      0              125.70299      0              0              9.4096508      9.660099       0.2            90.898158    
     23400   0.20861532     0.0012912332   0.0012912332   0              0              560.7324       1412.8181     -291.53497      0              232.31261      0              0              9.4086876      9.6577528      0.2            90.866779    
     23500   0.21473467     0.0012473033   0.0012473033   0              0             -409.14242     -716.23379     -102.21629      0             -495.60957      0              0              9.4077245      9.6587235      0.2            90.86661     
     23600   0.23544844     0.0013434797   0.0013434797   0              0              354.78016      530.25212      179.16236      0              32.434842      0              0              9.4067613      9.6514224      0.2            90.788627    
     23700   0.21044963     0.0012073907   0.0012073907   0              0              800.36491      1435.7829      164.71935      0             -718.18828      0              0              9.4057982      9.6572893      0.2            90.834514    
     23800   0.20466308     0.0011145285   0.0011145285   0              0              473.77958      1062.1344     -114.74949      0             -16.105888      0              0              9.404835       9.6602609      0.2            90.85316     
     23900   0.20327373     0.0013212866   0.0013212866   0              0              752.27104      1808.512      -304.15081      0              495.61032      0              0              9.4038719      9.6609186      0.2            90.850041    
     24000   0.2407265      0.0010097776   0.0010097776   0              0              449.10957      1009.1912     -111.14431      0              91.059585      0              0              9.4029087      9.6575765      0.2            90.80931     
     24100   0.28974402     0.0011662264   0.0011662264   0              0              492.37101      643.31165      341.2735       0              645.91774      0              0              9.4019456      9.6509792      0.2            90.737981    
     24200   0.25385377     0.00098501859  0.00098501859  0              0              900.19212      1180.0745      620.11954      0              366.65322      0              0              9.4009824      9.656155       0.2            90.777344    
     24300   0.23292037     0.0011517944   0.0011517944   0              0              311.18359      595.9113       26.263977      0              948.57136      0              0              9.4000192      9.6651354      0.2            90.852459    
     24400   0.27362786     0.0011947816   0.0011947816   0              0             -550.96307     -295.6636      -806.44558      0              44.876468      0              0              9.3990561      9.6597459      0.2            90.792494    
     24500   0.21304471     0.0012166826   0.0012166826   0              0             -373.05906      60.378275     -806.63902      0             -240.32636      0              0              9.3980929      9.6545821      0.2            90.73466     
     24600   0.20780144     0.0013153863   0.0013153863   0              0              731.81431      1243.0244      220.42062      0              532.05859      0              0              9.3971298      9.656729       0.2            90.745535    
     24700   0.18147992     0.0015386398   0.0015386398   0              0              748.61156      644.01095      853.0376       0              239.61208      0              0              9.3961666      9.658467       0.2            90.752565    
     24800   0.21300635     0.0013927758   0.0013927758   0              0              508.66741      499.09323      518.07733      0              444.85859      0              0              9.3952035      9.6608731      0.2            90.765869    
     24900   0.22442349     0.0011787559   0.0011787559   0              0              483.396        1423.1498     -456.58086      0              612.64718      0              0              9.3942403      9.6702252      0.2            90.844419    
     25000   0.17299092     0.001171847    0.001171847    0              0              97.201962      1283.4602     -1089.2738      0              837.66134      0              0              9.3932772      9.6708877      0.2            90.841329    
     25100   0.2303515      0.0011868476   0.0011868476   0              0             -88.316253      323.41285     -500.22791      0              711.42469      0              0              9.392314       9.6641276      0.2            90.768521    
     25200   0.22740793     0.0011581007   0.0011581007   0              0              458.45221      433.81707      482.92559      0              262.51314      0              0              9.3913509      9.6625191      0.2            90.744108    
     25300   0.17351129     0.0012161178   0.0012161178   0              0              1032.4579      1185.0029      879.71533      0              337.02867      0              0              9.3903877      9.6580595      0.2            90.692923    
     25400   0.19863573     0.0011909194   0.0011909194   0              0              787.98587      1302.2176      273.54588      0             -181.66596      0              0              9.3894246      9.6544733      0.2            90.649948    
     25500   0.19754579     0.0010403902   0.0010403902   0              0              71.530667      812.40856     -669.5214       0              36.931854      0              0              9.3884614      9.6690173      0.2            90.777196    
     25600   0.20483858     0.0012030034   0.0012030034   0              0              2.5216719      719.40715     -714.53703      0              10.691749      0              0              9.3874983      9.665133       0.2            90.731419    
     25700   0.23063253     0.0011954858   0.0011954858   0              0              178.90749      442.08774     -84.449892      0              34.53992       0              0              9.3865351      9.6652762      0.2            90.723455    
     25800   0.19628237     0.0014986107   0.0014986107   0              0              618.84664      707.31702      530.17307      0             -6.1704374      0              0              9.385572       9.6477971      0.2            90.550094    
     25900   0.19250597     0.0011306477   0.0011306477   0              0              739.51121      934.63195      544.20488      0              285.01287      0              0              9.3846088      9.659931       0.2            90.654674    
     26000   0.17681939     0.0013178422   0.0013178422   0              0              140.83607      189.6508       91.838136      0              966.71158      0              0              9.3836457      9.6630677      0.2            90.674803    
     26100   0.18203627     0.0014898148   0.0014898148   0              0             -767.86103     -931.66904     -604.24494      0              1001.7268      0              0              9.3826825      9.6643359      0.2            90.677396    
     26200   0.15974651     0.0012390397   0.0012390397   0              0              274.70934      1002.376      -453.10593      0              817.39934      0              0              9.3817194      9.6601109      0.2            90.62845     
     26300   0.1991656      0.0010875233   0.0010875233   0              0              345.72438      515.85611      175.38404      0              347.97761      0              0              9.3807562      9.6567872      0.2            90.587967    
     26400   0.21371103     0.0013892174   0.0013892174   0              0              455.20624      533.33046      376.94274      0              600.04505      0              0              9.379793       9.6561568      0.2            90.572752    
     26500   0.21247703     0.0012781347   0.0012781347   0              0              700.45274      1261.4872      139.21921      0              269.87652      0              0              9.3788299      9.6540028      0.2            90.54325     
     26600   0.23156023     0.0013379199   0.0013379199   0              0              196.50082      535.00915     -142.18056      0              172.80916      0              0              9.3778667      9.6558242      0.2            90.551033    
     26700   0.21233561     0.0011638262   0.0011638262   0              0             -215.55938     -131.5551      -299.75123      0              229.63956      0              0              9.3769036      9.6612333      0.2            90.592454    
     26800   0.21031828     0.0010354242   0.0010354242   0              0              439.77203      1050.2938     -170.90983      0              173.19673      0              0              9.3759404      9.6668938      0.2            90.63622     
     26900   0.19042726     0.0012560773   0.0012560773   0              0              761.04318      1541.0593     -19.15155       0              771.07446      0              0              9.3749773      9.6641866      0.2            90.601529    
     27000   0.18075195     0.0011919857   0.0011919857   0              0              482.6334       908.27664      56.810849      0              688.39493      0              0              9.3740141      9.6666426      0.2            90.615245    
     27100   0.22977398     0.00097747034  0.00097747034  0              0              753.5265       1495.4925      11.382755      0              845.59232      0              0              9.373051       9.6637664      0.2            90.578975    
     27200   0.19405564     0.0014438393   0.0014438393   0              0              206.55978      668.9985      -256.05502      0              1445.3819      0              0              9.3720878      9.6610974      0.2            90.544653    
     27300   0.20622571     0.0011509017   0.0011509017   0              0             -146.25175     -206.09712     -86.623009      0              480.08153      0              0              9.3711247      9.6584659      0.2            90.510688    
     27400   0.205227       0.0010671975   0.0010671975   0              0              193.02192      297.82761      88.047844      0              900.71611      0              0              9.3701615      9.6614888      0.2            90.529711    
     27500   0.19739001     0.001328206    0.001328206    0              0             -29.608271     -253.07241      193.63927      0              423.01438      0              0              9.3691984      9.6662467      0.2            90.564983    
     27600   0.16428907     0.0013402436   0.0013402436   0              0              264.42555      414.42929      114.28256      0              576.75323      0              0              9.3682352      9.669468       0.2            90.58585     
     27700   0.20020406     0.0012064291   0.0012064291   0              0              764.41229      1443.82        84.780149      0              515.15081      0              0              9.3672721      9.6660778      0.2            90.544781    
     27800   0.18872727     0.0012465579   0.0012465579   0              0             -80.280707     -214.70445      53.948729      0              474.88889      0              0              9.3663089      9.6722079      0.2            90.592887    
     27900   0.20079986     0.0014654709   0.0014654709   0              0              856.47021      1597.948       114.80852      0              754.64381      0              0              9.3653458      9.6741673      0.2            90.601921    
     28000   0.24186619     0.0013063092   0.0013063092   0              0             -34.061702     -171.38076      103.08177      0              594.51607      0              0              9.3643826      9.6769947      0.2            90.619081    
[...]
     43000   0.20280581     0.0013201951   0.0013201951   0              0             -61.323415      203.98754     -326.84023      0              66.169806      0              0              9.2199098      9.645458       0.2            88.930253    
     43100   0.17139919     0.0012051092   0.0012051092   0              0             -150.11954     -601.50988      301.06835      0              584.68728      0              0              9.2189466      9.6379347      0.2            88.851605    
     43200   0.19869082     0.0010015257   0.0010015257   0              0              564.03692      497.6097       630.28233      0             -392.038        0              0              9.2179835      9.6381345      0.2            88.844164    
     43300   0.16468944     0.0011047491   0.0011047491   0              0              282.928        583.77622     -18.091269      0             -89.063212      0              0              9.2170203      9.6341879      0.2            88.798506    
     43400   0.17628726     0.0010270325   0.0010270325   0              0             -1011.1336     -1215.7359     -806.7271       0             -507.73011      0              0              9.2160572      9.6386124      0.2            88.830002    
     43500   0.24269951     0.00093078256  0.00093078256  0              0             -617.2636      -786.6214      -448.08877      0              86.123219      0              0              9.215094       9.6366174      0.2            88.802336    
     43600   0.1778472      0.0011379982   0.0011379982   0              0             -348.69737     -1112.6446      415.0362       0             -57.484543      0              0              9.2141309      9.6348808      0.2            88.777053    
     43700   0.20945228     0.0011259867   0.0011259867   0              0              1112.9561      1285.0171      940.69524      0              152.42927      0              0              9.2131677      9.6382323      0.2            88.798651    
     43800   0.16215019     0.001304504    0.001304504    0              0              762.17001      1459.4257      64.757935      0              928.82131      0              0              9.2122046      9.6451303      0.2            88.852914    
     43900   0.22929469     0.00090659514  0.00090659514  0              0             -367.80132      460.84449     -1196.6677      0              369.6549       0              0              9.2112414      9.652763       0.2            88.913931    
     44000   0.19824596     0.0011856454   0.0011856454   0              0             -277.25071     -184.05973     -370.62392      0             -248.5016       0              0              9.2102783      9.6443878      0.2            88.827495    
     44100   0.19504294     0.0012934584   0.0012934584   0              0              1410.219       1627.6063      1192.6182      0              700.19507      0              0              9.2093151      9.6368275      0.2            88.748581    
     44200   0.24552728     0.0011630376   0.0011630376   0              0              1062.7924      1132.2928      993.12039      0             -433.28916      0              0              9.2083519      9.6388259      0.2            88.757701    
     44300   0.19806609     0.0010554222   0.0010554222   0              0             -716.97898     -660.51366     -773.65604      0              780.9264       0              0              9.2073888      9.6476208      0.2            88.829395    
     44400   0.17539557     0.0012555447   0.0012555447   0              0             -736.19032     -115.91518     -1356.6851      0              535.422        0              0              9.2064256      9.6587564      0.2            88.922622    
     44500   0.20309718     0.0011794227   0.0011794227   0              0              349.85035      828.74243     -129.17636      0              1443.0298      0              0              9.2054625      9.6486827      0.2            88.820587    
     44600   0.18418907     0.0012066436   0.0012066436   0              0              1506.8899      1763.4328      1250.1398      0              719.35638      0              0              9.2044993      9.6419122      0.2            88.748974    
     44700   0.19286372     0.0010394977   0.0010394977   0              0              346.00351      8.5947283      683.21907      0              639.49279      0              0              9.2035362      9.6477474      0.2            88.793393    
     44800   0.25754931     0.0010123009   0.0010123009   0              0             -941.70576     -1077.1811     -806.38741      0              437.16348      0              0              9.202573       9.646959       0.2            88.776845    
     44900   0.2008031      0.0011413071   0.0011413071   0              0             -500.06409     -74.601882     -925.73882      0              121.08748      0              0              9.2016099      9.6403056      0.2            88.706331    
     45000   0.17716771     0.0012925519   0.0012925519   0              0              143.68232      67.53785       219.60753      0             -109.93779      0              0              9.2006467      9.6389759      0.2            88.684812    
     45100   0.21173221     0.0010397691   0.0010397691   0              0              537.44354      192.18636      882.49914      0              84.776427      0              0              9.1996836      9.6366289      0.2            88.653936    
     45200   0.20656901     0.0008847104   0.0008847104   0              0             -301.2663      -898.48056      295.72034      0              105.08168      0              0              9.1987204      9.6352499      0.2            88.63197     
     45300   0.21552206     0.0010850999   0.0010850999   0              0             -509.25062     -269.41646     -749.27483      0              187.96624      0              0              9.1977573      9.6389036      0.2            88.656296    
     45400   0.22214942     0.0011006251   0.0011006251   0              0             -182.80956      104.03095     -469.82341      0              141.12608      0              0              9.1967941      9.6421498      0.2            88.676866    
     45500   0.18477375     0.001062851    0.001062851    0              0              77.361239     -319.75626      474.30093      0              176.28324      0              0              9.195831       9.6325776      0.2            88.579555    
     45600   0.24546196     0.0011633916   0.0011633916   0              0              96.905295     -423.96799      617.56859      0              866.59888      0              0              9.1948678      9.6327998      0.2            88.572321    
     45700   0.17914594     0.0011789367   0.0011789367   0              0              33.357787      293.08506     -226.5588       0              1170.2349      0              0              9.1939047      9.6342349      0.2            88.576237    
     45800   0.19770241     0.00103837     0.00103837     0              0             -306.76224     -103.16807     -510.53634      0              667.30686      0              0              9.1929415      9.6314946      0.2            88.541767    
     45900   0.20846927     0.00090588448  0.00090588448  0              0             -345.70978     -709.70071      18.057858      0              889.44091      0              0              9.1919784      9.6293686      0.2            88.512947    
     46000   0.18026513     0.00089002692  0.00089002692  0              0              852.63113      1352.2188      352.87296      0              250.3474       0              0              9.1910152      9.627622       0.2            88.48762     
     46100   0.21161853     0.0011568163   0.0011568163   0              0              298.11031      369.02867      227.06089      0              130.33131      0              0              9.1900521      9.6320893      0.2            88.519402    
     46200   0.22091034     0.0014005559   0.0014005559   0              0             -28.763695     -43.728768     -13.955005      0              1026.8954      0              0              9.1890889      9.621574       0.2            88.413499    
     46300   0.20359895     0.0011730331   0.0011730331   0              0             -291.01652     -372.13105     -210.06917      0              858.05887      0              0              9.1881258      9.6243615      0.2            88.429843    
     46400   0.19221178     0.0010470562   0.0010470562   0              0             -185.05191     -284.50254     -85.810029      0              684.73422      0              0              9.1871626      9.628861       0.2            88.461912    
     46500   0.21274471     0.00092681829  0.00092681829  0              0              85.268365     -14.330276      184.68635      0              358.90603      0              0              9.1861994      9.6268373      0.2            88.434048    
     46600   0.20245644     0.001119731    0.001119731    0              0             -180.69454     -574.15806      212.60487      0              727.97472      0              0              9.1852363      9.6280293      0.2            88.435724    
     46700   0.21573441     0.001191233    0.001191233    0              0             -134.4425      -333.01336      63.863545      0             -107.58102      0              0              9.1842731      9.6268482      0.2            88.415604    
     46800   0.20910653     0.00097872103  0.00097872103  0              0              3.7955204      199.70136     -192.27217      0              326.7337       0              0              9.18331        9.6284763      0.2            88.421282    
     46900   0.23065452     0.0010579482   0.0010579482   0              0             -201.06874     -160.68341     -241.61384      0              117.13741      0              0              9.1823468      9.634009       0.2            88.462812    
     47000   0.27545538     0.0012349828   0.0012349828   0              0              338.6675       786.14583     -109.05468      0              1156.9102      0              0              9.1813837      9.6364952      0.2            88.47636     
     47100   0.18614002     0.0013967321   0.0013967321   0              0              881.93916      1449.3607      314.31322      0              139.65715      0              0              9.1804205      9.6297658      0.2            88.405299    
     47200   0.21491959     0.001241564    0.001241564    0              0              189.96067      152.42868      227.31279      0              845.48328      0              0              9.1794574      9.6287429      0.2            88.386635    
     47300   0.18974616     0.0010760403   0.0010760403   0              0              189.96634      601.64026     -221.95322      0              958.50129      0              0              9.1784942      9.6298266      0.2            88.387308    
     47400   0.18303964     0.00081012312  0.00081012312  0              0             -128.015        246.63965     -502.90978      0             -5.3151429      0              0              9.1775311      9.6406422      0.2            88.477294    
     47500   0.2031765      0.00092522852  0.00092522852  0              0             -176.43237     -374.40132      21.358364      0             -262.15118      0              0              9.1765679      9.6355129      0.2            88.420939    
     47600   0.24429468     0.001042173    0.001042173    0              0              268.80799     -77.661343      615.08805      0             -91.067338      0              0              9.1756048      9.6383957      0.2            88.43811     
     47700   0.24124517     0.00093120812  0.00093120812  0              0              44.429656     -378.88512      467.53523      0              118.04398      0              0              9.1746416      9.6284206      0.2            88.337308    
     47800   0.21988793     0.0013023032   0.0013023032   0              0             -692.58564     -656.81965     -728.5646       0              395.94618      0              0              9.1736785      9.6373631      0.2            88.41007     
     47900   0.2076135      0.0011887266   0.0011887266   0              0             -454.28596      106.12239     -1014.9211      0              250.56957      0              0              9.1727153      9.6351941      0.2            88.380893    
     48000   0.20898524     0.0011582465   0.0011582465   0              0              864.53086      1518.413       210.43797      0              603.69976      0              0              9.1717522      9.6318783      0.2            88.3412      
     48100   0.18944348     0.0011726687   0.0011726687   0              0              1994.3727      2448.9315      1539.6324      0              312.95276      0              0              9.170789       9.6265034      0.2            88.282632    
     48200   0.20433212     0.0010833496   0.0010833496   0              0              547.55882      395.58786      699.37421      0              837.34191      0              0              9.1698259      9.6270966      0.2            88.278799    
     48300   0.19098865     0.0010113722   0.0010113722   0              0             -1445.1808     -1055.7201     -1834.8368      0              869.45592      0              0              9.1688627      9.6441607      0.2            88.425986    
     48400   0.21851292     0.00098774761  0.00098774761  0              0             -971.93737     -191.07936     -1752.9542      0              505.63167      0              0              9.1678996      9.6498372      0.2            88.468738    
     48500   0.22411032     0.00098441465  0.00098441465  0              0              639.5042       413.44284      865.40238      0              207.83619      0              0              9.1669364      9.6370765      0.2            88.342467    
     48600   0.21972974     0.0012614419   0.0012614419   0              0              1777.2084      1349.1772      2205.0449      0             -62.95712       0              0              9.1659732      9.6299527      0.2            88.267889    
     48700   0.23006171     0.0013150036   0.0013150036   0              0              428.51335      870.22532     -13.390564      0              576.03819      0              0              9.1650101      9.6419385      0.2            88.368464    
     48800   0.22089025     0.0010848938   0.0010848938   0              0             -1128.3976     -275.16447     -1981.8231      0             -164.8061       0              0              9.1640469      9.6421789      0.2            88.36138     
     48900   0.23970197     0.0010661714   0.0010661714   0              0             -376.7348       110.4143      -864.07313      0             -518.12145      0              0              9.1630838      9.6377653      0.2            88.311651    
     49000   0.21601025     0.0011653232   0.0011653232   0              0              1171.5717      1074.8706      1268.0581      0             -564.0654       0              0              9.1621206      9.6351883      0.2            88.278757    
     49100   0.22253336     0.0011114567   0.0011114567   0              0              927.78796      562.31816      1293.0807      0              325.26798      0              0              9.1611575      9.637349       0.2            88.289272    
     49200   0.20037803     0.0014641498   0.0014641498   0              0             -628.81973     -778.70003     -479.11638      0             -231.33649      0              0              9.1601943      9.6522765      0.2            88.416728    
     49300   0.18015695     0.0011170823   0.0011170823   0              0             -269.97047      588.69579     -1128.8425      0              273.03164      0              0              9.1592312      9.6520495      0.2            88.405352    
     49400   0.18621509     0.0010827897   0.0010827897   0              0              477.01998      992.75684     -38.934476      0              295.2856       0              0              9.158268       9.6467448      0.2            88.347475    
     49500   0.21956747     0.0010762217   0.0010762217   0              0              773.10375      544.8342       1001.1852      0             -100.07708      0              0              9.1573049      9.63838        0.2            88.261584    
     49600   0.24975569     0.0012550609   0.0012550609   0              0              380.4515       398.68258      362.02933      0              16.928145      0              0              9.1563417      9.6502191      0.2            88.360704    
     49700   0.21989836     0.0010782791   0.0010782791   0              0             -239.70264      315.20836     -794.76572      0              56.86708       0              0              9.1553786      9.6563978      0.2            88.407978    
     49800   0.20873106     0.0011669011   0.0011669011   0              0             -423.51717     -334.17317     -513.00886      0             -768.59135      0              0              9.1544154      9.6500633      0.2            88.340688    
     49900   0.18823027     0.0011106915   0.0011106915   0              0              618.67893      905.85691      331.26924      0             -130.63675      0              0              9.1534523      9.6385742      0.2            88.226229    
     50000   0.1511519      0.0010151921   0.0010151921   0              0              696.51888      707.4905       685.32656      0             -295.06903      0              0              9.1524891      9.6322964      0.2            88.159488    
     50100   0.19124416     0.0010789783   0.0010789783   0              0             -433.64369     -356.10451     -511.39992      0             -687.28079      0              0              9.151526       9.6386964      0.2            88.20878     
     50200   0.1917895      0.001020757    0.001020757    0              0             -387.2405       168.91475     -943.60448      0             -681.03917      0              0              9.1505628      9.6476363      0.2            88.281302    
     50264   0.20677062     0.0012324231   0.0012324231   0              0              385.20669      463.83235      306.39865      0             -580.66223      0              0              9.1499464      9.6401111      0.2            88.2065      
Loop time of 1.12027 on 1 procs for 50000 steps with 61 atoms

Performance: 38562.106 ns/day, 0.001 hours/ns, 44632.067 timesteps/s
98.9% CPU use with 1 MPI tasks x 1 OpenMP threads

MPI task timing breakdown:
Section |  min time  |  avg time  |  max time  |%varavg| %total
---------------------------------------------------------------
Pair    | 0          | 0          | 0          |   0.0 |  0.00
Bond    | 0.17261    | 0.17261    | 0.17261    |   0.0 | 15.41
Neigh   | 0          | 0          | 0          |   0.0 |  0.00
Comm    | 0.36921    | 0.36921    | 0.36921    |   0.0 | 32.96
Output  | 0.0069206  | 0.0069206  | 0.0069206  |   0.0 |  0.62
Modify  | 0.54427    | 0.54427    | 0.54427    |   0.0 | 48.58
Other   |            | 0.02727    |            |       |  2.43

Nlocal:             61 ave          61 max          61 min
Histogram: 1 0 0 0 0 0 0 0 0 0
Nghost:            512 ave         512 max         512 min
Histogram: 1 0 0 0 0 0 0 0 0 0
Neighs:              0 ave           0 max           0 min
Histogram: 1 0 0 0 0 0 0 0 0 0

Total # of neighbors = 0
Ave neighs/atom = 0
Ave special neighs/atom = 23.016393
Neighbor list builds = 0
Dangerous builds = 0


Total wall time: 0:00:01
