LAMMPS data file via write_data, version 23 Jun 2022, timestep = 10000

80 atoms
4 atom types

-4.860022080976549 4.860022080976549 xlo xhi
-4.860022080976549 4.860022080976549 ylo yhi
-0.1 0.1 zlo zhi

Atoms # sphere

77 4 0.7 2.915451895043732 4.857449646125234 -4.2086341692902955 0 -1 0 0
64 4 0.7 2.915451895043732 -4.186837971337512 -4.242239088164063 0 0 1 0
6 1 1.6 0.2441406249999999 -3.2658602308301052 -4.594984573561221 0 0 0 0
43 3 1 1 -1.882543704947011 -4.355811168063968 0 0 1 0
74 4 0.7 2.915451895043732 -0.2717036201863188 -3.6809988017354485 0 0 0 0
35 2 1.3 0.4551661356395083 0.5725040574041209 -4.201751428683185 0 0 0 0
38 2 1.3 0.4551661356395083 2.6509067832865583 4.754366737180925 0 -1 -1 0
42 3 1 1 1.6322487630086586 4.801476259688442 0 0 0 0
18 1 1.6 0.2441406249999999 3.997527924224885 4.837793346616355 0 -1 0 0
10 1 1.6 0.2441406249999999 -3.7595903147188223 -3.1903127103568227 0 0 0 0
80 4 0.7 2.915451895043732 -2.671019941452157 -3.6736014729369866 0 1 1 0
37 2 1.3 0.4551661356395083 -1.331707518236097 -3.5225701613666924 0 0 0 0
33 2 1.3 0.4551661356395083 -0.5738144964488976 -2.7556705429858503 0 0 0 0
17 1 1.6 0.2441406249999999 1.9283102325713921 -3.7126837140451583 0 0 0 0
19 1 1.6 0.2441406249999999 3.3468999057625144 -3.4110285472765614 0 -1 0 0
45 3 1 1 4.39990528431473 -3.7064430728462088 0 0 0 0
27 2 1.3 0.4551661356395083 -3.909793118907987 -1.739457052433198 0 0 0 0
69 4 0.7 2.915451895043732 -3.2339438839801713 -2.326035277822542 0 0 0 0
14 1 1.6 0.2441406249999999 -2.2206636183148927 -2.6733176532163383 0 0 0 0
78 4 0.7 2.915451895043732 -0.9068291220647944 -1.843448987931117 0 0 0 0
9 1 1.6 0.2441406249999999 0.8231902198889545 -2.845400326146107 0 0 0 0
39 2 1.3 0.4551661356395083 2.1709180092995126 -2.4865470162677936 0 0 0 0
4 1 1.6 0.2441406249999999 4.614406579606522 -2.486833808816512 0 0 0 0
79 4 0.7 2.915451895043732 4.796727187527656 -1.4791924915240782 0 -1 0 0
72 4 0.7 2.915451895043732 -3.5927557297575827 -0.912149780101938 0 0 0 0
25 2 1.3 0.4551661356395083 -2.8571434735335135 -1.417526544742362 0 0 0 0
75 4 0.7 2.915451895043732 -2.432734849762554 -0.504877338757046 0 0 0 0
47 3 1 1 -1.8077494100243845 -1.4248384797845537 0 1 0 0
71 4 0.7 2.915451895043732 -0.48562631070854856 -1.0881340591120843 0 0 1 0
30 2 1.3 0.4551661356395083 0.02061417744294758 -1.6969561446992922 0 0 0 0
54 3 1 1 0.45652577567736596 -0.7451067852168842 0 0 0 0
28 2 1.3 0.4551661356395083 1.2333096207062741 -1.5908532475643518 0 0 0 0
52 3 1 1 2.317463726509012 -1.370869443904276 0 -1 0 0
76 4 0.7 2.915451895043732 1.6185768998451229 -0.8363317180552281 0 0 0 0
31 2 1.3 0.4551661356395083 3.377688239405689 -2.07406909043646 0 0 0 0
61 4 0.7 2.915451895043732 3.030255233216355 -0.9969088761465397 0 0 0 0
73 4 0.7 2.915451895043732 4.125811055081831 -1.2859117334037076 0 0 1 0
7 1 1.6 0.2441406249999999 -4.51446985157331 -0.49033479180437034 0 0 0 0
49 3 1 1 -3.676512070406072 0.3363875225191775 0 0 0 0
67 4 0.7 2.915451895043732 -3.059592398614554 -0.4076147617179551 0 0 0 0
41 3 1 1 -2.682398724652634 0.43386732979849274 0 0 0 0
65 4 0.7 2.915451895043732 -1.9445838619808682 0.3860661445889013 0 0 0 0
12 1 1.6 0.2441406249999999 -1.0982357786937773 -0.20441228698639957 0 0 0 0
36 2 1.3 0.4551661356395083 0.1778247353058564 0.3565576010793201 0 0 0 0
23 2 1.3 0.4551661356395083 1.432351700252883 0.14339313726943814 0 0 0 0
24 2 1.3 0.4551661356395083 2.471146892965174 -0.23580322000900455 0 0 0 0
29 2 1.3 0.4551661356395083 3.7427176537263414 -0.3856596701820889 0 0 0 0
66 4 0.7 2.915451895043732 -4.446625002788671 1.3285032497757436 0 1 0 0
11 1 1.6 0.2441406249999999 -3.2668803706845657 1.5035583162793626 0 0 0 0
51 3 1 1 -2.076945803941975 1.2641009222825614 0 1 0 0
15 1 1.6 0.2441406249999999 -0.7956665419868001 1.3079799254316278 0 0 -1 0
62 4 0.7 2.915451895043732 0.5051509936426113 1.5917079616354046 0 0 0 0
57 3 1 1 1.2386775104076113 1.0357754207270133 0 0 0 0
3 1 1.6 0.2441406249999999 2.3019466115021165 1.5976165258922554 0 0 0 0
26 2 1.3 0.4551661356395083 3.1346448726753957 0.6100523956741553 0 0 0 0
2 1 1.6 0.2441406249999999 4.384896905301559 0.7844057733664096 0 0 0 0
32 2 1.3 0.4551661356395083 -4.159421825025586 2.570353195893458 0 1 0 0
8 1 1.6 0.2441406249999999 -1.7363346412085199 2.4995799746903575 0 0 -1 0
58 3 1 1 -0.6645385197714067 2.6041018227776664 0 0 -1 0
56 3 1 1 1.2055541764937923 1.8552268667577083 0 0 0 0
44 3 1 1 1.6584139916910585 2.643697338040951 0 0 -1 0
46 3 1 1 2.5086268125799043 3.104240792416462 0 0 0 0
55 3 1 1 3.385491172551033 1.6359482976314776 0 -1 0 0
50 3 1 1 4.856743134688518 1.9034408721794032 0 0 -1 0
21 2 1.3 0.4551661356395083 -3.9461127557638433 3.7990452515808677 0 0 0 0
5 1 1.6 0.2441406249999999 -2.961071629621815 2.9519088925551697 0 0 0 0
20 1 1.6 0.2441406249999999 -0.6330900435409745 3.550596488430159 0 -1 0 0
40 2 1.3 0.4551661356395083 0.5321811181143019 2.673888672788027 0 0 0 0
63 4 0.7 2.915451895043732 1.4629490377251084 3.5306125744011734 0 0 0 0
48 3 1 1 3.3501492472082486 2.522832958171695 0 0 -1 0
68 4 0.7 2.915451895043732 4.092274237557335 2.0613612022708914 0 0 0 0
13 1 1.6 0.2441406249999999 4.565662084464993 3.4317910310916826 0 0 -1 0
60 3 1 1 -4.466262067780867 4.720679445028468 0 0 0 0
59 3 1 1 -2.624603007557102 4.128361287926403 0 1 0 0
22 2 1.3 0.4551661356395083 -1.6638551058529658 4.003840300667942 0 0 0 0
70 4 0.7 2.915451895043732 -2.1913479122165396 4.749364464059848 0 0 -1 0
16 1 1.6 0.2441406249999999 -0.708399921692461 -4.668855854046625 0 0 0 0
1 1 1.6 0.2441406249999999 0.6375900423592062 4.216261996279343 0 0 0 0
53 3 1 1 2.007546709076747 3.9056352331515196 0 0 0 0
34 2 1.3 0.4551661356395083 3.227938128415701 3.6542251493436737 0 0 0 0

Velocities

77 0.17084383187655688 -0.13128661966767524 0 0 0 0
64 -0.018181429635472604 0.030231864924750718 0 0 0 0
6 0.012169951786157391 0.07444250793147142 0 0 0 0
43 -0.053866473707968106 -0.011332874441464604 0 0 0 0
74 -0.15679182842980605 0.13741853944009108 0 0 0 0
35 0.01805111237819002 -0.025256126934336463 0 0 0 0
38 -0.006047377503625007 0.1244879287980211 0 0 0 0
42 -0.1328272515645193 -0.0686339842462591 0 0 0 0
18 0.17292590549488207 -0.40562055469208125 0 0 0 0
10 0.006418601234512837 -0.04885751830749339 0 0 0 0
80 0.0760456359332966 0.10184084153018028 0 0 0 0
37 -0.056191285803262346 -0.16809287172369058 0 0 0 0
33 0.10366976887550189 -0.0067839164513609305 0 0 0 0
17 0.0858129269348447 -0.07271874227634674 0 0 0 0
19 0.055262483608536445 -0.18100148838804897 0 0 0 0
45 -6.96292736049805e-05 -0.20838657419660836 0 0 0 0
27 0.0018375655594116255 -0.017913972875801966 0 0 0 0
69 0.08155928320688775 0.22737995797706748 0 0 0 0
14 -0.1622300636899207 -0.14978400878962056 0 0 0 0
78 0.07820832239147914 -0.02866219001459169 0 0 0 0
9 0.07896917635627583 0.061044257508725636 0 0 0 0
39 -0.12752649777270886 -0.05200007175915623 0 0 0 0
4 0.008747581606929317 0.010222259515423326 0 0 0 0
79 -0.195358943086257 0.12831127974563725 0 0 0 0
72 0.14013430600131077 -0.04414389921180215 0 0 0 0
25 -0.08964594685810552 0.05345991763240928 0 0 0 0
75 -0.13523463129244861 -0.053250352078636085 0 0 0 0
47 -0.08349542993904306 -0.026390278602446034 0 0 0 0
71 0.18607255478600526 -0.08636073147310656 0 0 0 0
30 0.09803581020568425 -0.021740687734100678 0 0 0 0
54 0.08084496235231306 -0.017704584770347972 0 0 0 0
28 -0.09638678173310317 -0.20769115082206313 0 0 0 0
52 -0.168055469253738 0.12850124403730012 0 0 0 0
76 0.14432209369440843 0.12754308468251516 0 0 0 0
31 0.03763832446654998 0.08740943955958651 0 0 0 0
61 -0.035974273993655104 -0.011814252709696821 0 0 0 0
73 -0.11598539235159412 -0.06343908898835209 0 0 0 0
7 -0.0569764147862099 0.01085466580598394 0 0 0 0
49 0.028867329947747534 -0.12494786926060318 0 0 0 0
67 -0.00784370349333407 0.06940014257315705 0 0 0 0
41 -0.1451841190153851 0.18436007805104201 0 0 0 0
65 -0.1968079384139808 0.08366144307646901 0 0 0 0
12 -0.0042408859921532005 0.17153317713362853 0 0 0 0
36 -0.002072614319412543 -0.03852621048167653 0 0 0 0
23 0.01038619693889984 0.09582269728872514 0 0 0 0
24 0.18882902267159313 -0.02435435441594057 0 0 0 0
29 -0.09473516961162316 -0.15502246579714293 0 0 0 0
66 0.11199508835786508 0.10394369808269656 0 0 0 0
11 -0.08390508875752059 -0.027944106249888447 0 0 0 0
51 -0.13512433944990032 -0.07691471356136355 0 0 0 0
15 -0.14059151773593798 -0.08394743467847442 0 0 0 0
62 -0.1250530230162172 0.0655399883348011 0 0 0 0
57 0.17911734443271474 0.024998958990628515 0 0 0 0
3 -0.00903575117793161 0.10973995659308501 0 0 0 0
26 -0.1495274305053579 0.008321187650647576 0 0 0 0
2 -0.03998511295889093 0.011150514459207 0 0 0 0
32 0.11779356456524356 0.13473040986575313 0 0 0 0
8 0.01483866801071406 -0.10911227894396955 0 0 0 0
58 0.1449808973023835 0.039358901760431754 0 0 0 0
56 0.14166596322205258 0.16929234493426615 0 0 0 0
44 -0.004073062994850795 -0.12009494473670192 0 0 0 0
46 0.097970465091079 0.026323370537643918 0 0 0 0
55 0.03374852127747957 -0.05609129067715402 0 0 0 0
50 0.06672814286837403 0.08148325376346947 0 0 0 0
21 0.11195449088481339 0.009461944587944453 0 0 0 0
5 -0.01918784555916399 0.036541649241923005 0 0 0 0
20 0.013334679030280263 0.1544941764607492 0 0 0 0
40 -0.16237956597576128 -0.01518789216562398 0 0 0 0
63 -0.008474348542118695 -0.031535819017569744 0 0 0 0
48 -0.04151335972294298 -0.03674540323711087 0 0 0 0
68 -0.012454749739879744 0.04895302717404107 0 0 0 0
13 -0.10908093463306923 -0.10655218141857092 0 0 0 0
60 -0.03384925170230173 0.024569392246602213 0 0 0 0
59 -0.008781259770923837 0.04985061496676429 0 0 0 0
22 0.1266186562066508 -0.04602851016533237 0 0 0 0
70 0.03741079278401175 0.14792580669447433 0 0 0 0
16 0.1300514640426077 -0.10811502340264734 0 0 0 0
1 0.020039477423506404 0.018986519849445476 0 0 0 0
53 0.02876192231007247 0.11157561215147446 0 0 0 0
34 -0.01791669235411906 -0.015179616193373048 0 0 0 0
