ITEM: TIMESTEP
0
ITEM: NUMBER OF ATOMS
80
ITEM: BOX BOUNDS pp pp pp
-1.0000000000000000e+01 1.0000000000000000e+01
-1.0000000000000000e+01 1.0000000000000000e+01
-1.0000000000000001e-01 1.0000000000000001e-01
ITEM: ATOMS id type xs ys zs
79 4 0.204262 0.0248543 0.5
70 4 0.364433 0.0214871 0.5
13 1 0.689356 0.0100177 0.5
9 1 0.81847 0.0259196 0.5
50 3 0.801333 0.00862012 0.5
15 1 0.853871 0.0167204 0.5
17 1 0.934018 0.0387885 0.5
7 1 0.175408 0.087511 0.5
16 1 0.258944 0.0753652 0.5
33 2 0.454935 0.0938055 0.5
44 3 0.58018 0.0794347 0.5
48 3 0.959545 0.0673752 0.5
74 4 0.0374324 0.127037 0.5
19 1 0.241158 0.147716 0.5
8 1 0.353729 0.12173 0.5
65 4 0.574234 0.153291 0.5
31 2 0.667347 0.107632 0.5
45 3 0.943661 0.117597 0.5
37 2 0.247349 0.196697 0.5
30 2 0.620587 0.202351 0.5
77 4 0.592681 0.194761 0.5
27 2 0.0457102 0.252161 0.5
69 4 0.0509457 0.244054 0.5
72 4 0.149297 0.235493 0.5
38 2 0.175951 0.21161 0.5
28 2 0.460178 0.212321 0.5
29 2 0.494807 0.228426 0.5
4 1 0.797776 0.2135 0.5
52 3 0.00906199 0.304855 0.5
35 2 0.291147 0.306272 0.5
58 3 0.352609 0.302709 0.5
32 2 0.714242 0.264269 0.5
47 3 0.754644 0.300313 0.5
66 4 0.862514 0.271215 0.5
39 2 0.372424 0.325278 0.5
40 2 0.722279 0.345172 0.5
75 4 0.185602 0.40549 0.5
41 3 0.200182 0.457024 0.5
67 4 0.198099 0.447365 0.5
6 1 0.406168 0.463518 0.5
46 3 0.814034 0.461838 0.5
49 3 0.105285 0.525967 0.5
64 4 0.13438 0.517159 0.5
61 4 0.461802 0.504875 0.5
56 3 0.803803 0.512921 0.5
59 3 0.951301 0.512801 0.5
5 1 0.122959 0.572463 0.5
78 4 0.344769 0.53301 0.5
54 3 0.552599 0.530682 0.5
68 4 0.760491 0.568088 0.5
76 4 0.715332 0.584163 0.5
10 1 0.0291341 0.657035 0.5
25 2 0.264393 0.656447 0.5
14 1 0.420339 0.639446 0.5
62 4 0.688264 0.652877 0.5
3 1 0.838321 0.656199 0.5
36 2 0.802087 0.678127 0.5
43 3 0.0843512 0.690543 0.5
18 1 0.136178 0.735842 0.5
11 1 0.406897 0.721945 0.5
2 1 0.936618 0.735067 0.5
26 2 0.950242 0.715755 0.5
60 3 0.214302 0.772403 0.5
24 2 0.884795 0.741899 0.5
55 3 0.0440768 0.799441 0.5
63 4 0.356865 0.822513 0.5
22 2 0.632762 0.836581 0.5
57 3 0.758781 0.840194 0.5
51 3 0.972857 0.814186 0.5
12 1 0.280352 0.871842 0.5
23 2 0.703925 0.865603 0.5
80 4 0.971076 0.881618 0.5
42 3 0.270239 0.90997 0.5
34 2 0.652045 0.918776 0.5
20 1 0.278335 0.979531 0.5
71 4 0.283572 0.98966 0.5
21 2 0.334622 0.992792 0.5
1 1 0.447075 0.997081 0.5
73 4 0.496757 0.986869 0.5
53 3 0.726838 0.967393 0.5
ITEM: TIMESTEP
10
ITEM: NUMBER OF ATOMS
80
ITEM: BOX BOUNDS pp pp pp
-9.2401579896902000e+00 9.2401579896902000e+00
-9.2401579896902000e+00 9.2401579896902000e+00
-1.0000000000000001e-01 1.0000000000000001e-01
ITEM: ATOMS id type xs ys zs
79 4 0.204262 0.0248543 0.5
70 4 0.364457 0.0215106 0.5
13 1 0.689334 0.0100427 0.5
9 1 0.81842 0.0260677 0.5
50 3 0.801181 0.00850571 0.5
15 1 0.854073 0.0166866 0.5
17 1 0.933952 0.0387139 0.5
7 1 0.175408 0.087511 0.5
16 1 0.25895 0.0753417 0.5
33 2 0.454935 0.0938055 0.5
44 3 0.58018 0.0794347 0.5
48 3 0.959611 0.0674499 0.5
74 4 0.0374324 0.127037 0.5
19 1 0.241142 0.147652 0.5
8 1 0.353729 0.12173 0.5
65 4 0.574234 0.153291 0.5
31 2 0.667347 0.107632 0.5
45 3 0.943661 0.117597 0.5
37 2 0.24736 0.196784 0.5
30 2 0.620663 0.202372 0.5
77 4 0.592605 0.19474 0.5
27 2 0.0456294 0.252286 0.5
69 4 0.0510266 0.243929 0.5
72 4 0.149257 0.235529 0.5
38 2 0.175992 0.211573 0.5
28 2 0.460087 0.212279 0.5
29 2 0.494899 0.228469 0.5
4 1 0.797776 0.2135 0.5
52 3 0.00906199 0.304855 0.5
35 2 0.291147 0.306272 0.5
58 3 0.352541 0.302632 0.5
32 2 0.714231 0.264259 0.5
47 3 0.754662 0.300314 0.5
66 4 0.862514 0.271215 0.5
39 2 0.372491 0.325356 0.5
40 2 0.722273 0.345181 0.5
75 4 0.185602 0.40549 0.5
41 3 0.200207 0.457142 0.5
67 4 0.198073 0.447247 0.5
6 1 0.406168 0.463518 0.5
46 3 0.814034 0.461838 0.5
49 3 0.10522 0.525926 0.5
64 4 0.134425 0.517139 0.5
61 4 0.461802 0.504875 0.5
56 3 0.803803 0.512921 0.5
59 3 0.951301 0.512801 0.5
5 1 0.122979 0.572524 0.5
78 4 0.344769 0.53301 0.5
54 3 0.552599 0.530682 0.5
68 4 0.760491 0.568088 0.5
76 4 0.715332 0.584163 0.5
10 1 0.0291299 0.657033 0.5
25 2 0.264393 0.656447 0.5
14 1 0.420339 0.639446 0.5
62 4 0.688264 0.652877 0.5
3 1 0.838418 0.65614 0.5
36 2 0.80199 0.678185 0.5
43 3 0.0843553 0.690546 0.5
18 1 0.136178 0.735843 0.5
11 1 0.406897 0.721945 0.5
2 1 0.93659 0.735205 0.5
26 2 0.950346 0.715606 0.5
60 3 0.214302 0.772403 0.5
24 2 0.884718 0.74191 0.5
55 3 0.0440768 0.799441 0.5
63 4 0.356865 0.822513 0.5
22 2 0.632762 0.836581 0.5
57 3 0.758782 0.840194 0.5
51 3 0.972857 0.814186 0.5
12 1 0.280376 0.871749 0.5
23 2 0.703925 0.865603 0.5
80 4 0.971076 0.881618 0.5
42 3 0.270215 0.910063 0.5
34 2 0.652045 0.918776 0.5
20 1 0.278201 0.979367 0.5
71 4 0.283649 0.989811 0.5
21 2 0.334654 0.992782 0.5
1 1 0.447048 0.997087 0.5
73 4 0.496784 0.986863 0.5
53 3 0.72686 0.967368 0.5
ITEM: TIMESTEP
20
ITEM: NUMBER OF ATOMS
80
ITEM: BOX BOUNDS pp pp pp
-8.3093502534516670e+00 8.3093502534516670e+00
-8.3093502534516670e+00 8.3093502534516670e+00
-1.0000000000000001e-01 1.0000000000000001e-01
ITEM: ATOMS id type xs ys zs
79 4 0.204262 0.0248543 0.5
70 4 0.364558 0.021608 0.5
13 1 0.689238 0.010152 0.5
9 1 0.818233 0.0266019 0.5
50 3 0.800618 0.00809155 0.5
15 1 0.854793 0.016558 0.5
17 1 0.933736 0.0384464 0.5
7 1 0.175382 0.0875105 0.5
16 1 0.259001 0.0752187 0.5
33 2 0.454935 0.0938055 0.5
44 3 0.58018 0.0794347 0.5
48 3 0.959862 0.0677119 0.5
74 4 0.0374324 0.127037 0.5
19 1 0.241074 0.147446 0.5
8 1 0.353729 0.12173 0.5
65 4 0.574234 0.153291 0.5
31 2 0.667347 0.107632 0.5
45 3 0.943657 0.117612 0.5
37 2 0.247405 0.197113 0.5
30 2 0.620944 0.202448 0.5
77 4 0.592324 0.194663 0.5
27 2 0.0453463 0.252725 0.5
69 4 0.0513121 0.243487 0.5
72 4 0.149102 0.235667 0.5
38 2 0.176143 0.211435 0.5
28 2 0.45975 0.212122 0.5
29 2 0.495236 0.228626 0.5
4 1 0.797776 0.2135 0.5
52 3 0.00905958 0.304859 0.5
35 2 0.291135 0.306273 0.5
58 3 0.352306 0.302349 0.5
32 2 0.71417 0.264205 0.5
47 3 0.754761 0.300314 0.5
66 4 0.862514 0.271215 0.5
39 2 0.372739 0.325637 0.5
40 2 0.722234 0.345234 0.5
75 4 0.185602 0.40549 0.5
41 3 0.200297 0.457559 0.5
67 4 0.197983 0.44683 0.5
6 1 0.406168 0.463518 0.5
46 3 0.814037 0.46182 0.5
49 3 0.104968 0.525761 0.5
64 4 0.134605 0.517037 0.5
61 4 0.461802 0.504875 0.5
56 3 0.803799 0.512938 0.5
59 3 0.951301 0.512801 0.5
5 1 0.12305 0.572791 0.5
78 4 0.344769 0.53301 0.5
54 3 0.552599 0.530682 0.5
68 4 0.760491 0.568088 0.5
76 4 0.715332 0.584163 0.5
10 1 0.029087 0.657007 0.5
25 2 0.264393 0.656447 0.5
14 1 0.420343 0.639419 0.5
62 4 0.688264 0.652877 0.5
3 1 0.838775 0.655924 0.5
36 2 0.801633 0.678402 0.5
43 3 0.0843856 0.690561 0.5
18 1 0.13619 0.735854 0.5
11 1 0.406893 0.721971 0.5
2 1 0.936514 0.735696 0.5
26 2 0.950725 0.715075 0.5
60 3 0.214302 0.772403 0.5
24 2 0.884415 0.741951 0.5
55 3 0.0440768 0.799441 0.5
63 4 0.356865 0.822513 0.5
22 2 0.632762 0.836581 0.5
57 3 0.758797 0.840187 0.5
51 3 0.972857 0.814186 0.5
12 1 0.280468 0.871405 0.5
23 2 0.70391 0.865609 0.5
80 4 0.971076 0.881618 0.5
42 3 0.270122 0.910394 0.5
34 2 0.652044 0.918777 0.5
20 1 0.277703 0.978794 0.5
71 4 0.283902 0.990343 0.5
21 2 0.3348 0.992738 0.5
1 1 0.446928 0.997112 0.5
73 4 0.496904 0.986839 0.5
53 3 0.726956 0.967259 0.5
ITEM: TIMESTEP
30
ITEM: NUMBER OF ATOMS
80
ITEM: BOX BOUNDS pp pp pp
-7.6127512136765674e+00 7.6127512136765674e+00
-7.6127512136765674e+00 7.6127512136765674e+00
-1.0000000000000001e-01 1.0000000000000001e-01
ITEM: ATOMS id type xs ys zs
79 4 0.204265 0.0248467 0.5
70 4 0.364781 0.0218233 0.5
13 1 0.689018 0.0104026 0.5
9 1 0.817857 0.0276508 0.5
50 3 0.799491 0.00727713 0.5
15 1 0.856154 0.0162845 0.5
17 1 0.933383 0.0379299 0.5
7 1 0.175221 0.0874937 0.5
16 1 0.259188 0.0749034 0.5
33 2 0.454935 0.0938055 0.5
44 3 0.58018 0.0794347 0.5
48 3 0.960378 0.0681925 0.5
74 4 0.0374324 0.127037 0.5
19 1 0.240959 0.147114 0.5
8 1 0.353729 0.12173 0.5
65 4 0.574234 0.153291 0.5
31 2 0.667347 0.107632 0.5
45 3 0.943634 0.117687 0.5
37 2 0.247535 0.197779 0.5
30 2 0.621505 0.202601 0.5
77 4 0.591763 0.194511 0.5
27 2 0.0448278 0.253531 0.5
69 4 0.0518575 0.242642 0.5
72 4 0.148782 0.235954 0.5
38 2 0.176418 0.211158 0.5
28 2 0.459076 0.211809 0.5
29 2 0.495909 0.228939 0.5
4 1 0.797776 0.2135 0.5
52 3 0.00903258 0.304898 0.5
35 2 0.291062 0.306278 0.5
58 3 0.351892 0.301789 0.5
32 2 0.714014 0.264065 0.5
47 3 0.755024 0.300304 0.5
66 4 0.862514 0.271215 0.5
39 2 0.373226 0.326193 0.5
40 2 0.722127 0.345384 0.5
75 4 0.185601 0.405487 0.5
41 3 0.20047 0.458358 0.5
67 4 0.197812 0.446033 0.5
6 1 0.406162 0.463514 0.5
46 3 0.814053 0.461741 0.5
49 3 0.104444 0.52541 0.5
64 4 0.134986 0.516782 0.5
61 4 0.461808 0.504879 0.5
56 3 0.803783 0.513018 0.5
59 3 0.951301 0.512801 0.5
5 1 0.123193 0.573397 0.5
78 4 0.344769 0.53301 0.5
54 3 0.552599 0.530682 0.5
68 4 0.760491 0.568088 0.5
76 4 0.715332 0.584163 0.5
10 1 0.0289489 0.656923 0.5
25 2 0.264393 0.656447 0.5
14 1 0.420364 0.639295 0.5
62 4 0.688264 0.652877 0.5
3 1 0.839488 0.655493 0.5
36 2 0.80092 0.678833 0.5
43 3 0.0844559 0.690585 0.5
18 1 0.136258 0.735913 0.5
11 1 0.406873 0.722096 0.5
2 1 0.936416 0.736643 0.5
26 2 0.951493 0.714029 0.5
60 3 0.214302 0.772403 0.5
24 2 0.883744 0.74205 0.5
55 3 0.0440768 0.799441 0.5
63 4 0.356865 0.822513 0.5
22 2 0.632749 0.836576 0.5
57 3 0.758875 0.840151 0.5
51 3 0.972857 0.814186 0.5
12 1 0.280651 0.870714 0.5
23 2 0.703868 0.865628 0.5
80 4 0.971076 0.881618 0.5
42 3 0.269929 0.911 0.5
34 2 0.652022 0.9188 0.5
20 1 0.276703 0.977746 0.5
71 4 0.284339 0.991354 0.5
21 2 0.335151 0.992642 0.5
1 1 0.44665 0.997169 0.5
73 4 0.497182 0.986781 0.5
53 3 0.727177 0.967008 0.5
ITEM: TIMESTEP
40
ITEM: NUMBER OF ATOMS
80
ITEM: BOX BOUNDS pp pp pp
-7.1212596009554927e+00 7.1212596009554927e+00
-7.1212596009554927e+00 7.1212596009554927e+00
-1.0000000000000001e-01 1.0000000000000001e-01
ITEM: ATOMS id type xs ys zs
79 4 0.20428 0.0247876 0.5
70 4 0.365167 0.0221994 0.5
13 1 0.688627 0.0108478 0.5
9 1 0.817244 0.0293311 0.5
50 3 0.797687 0.00597563 0.5
15 1 0.858232 0.0158108 0.5
17 1 0.932923 0.0370943 0.5
7 1 0.17478 0.0874583 0.5
16 1 0.259601 0.0743443 0.5
33 2 0.454935 0.0938089 0.5
44 3 0.58018 0.0794347 0.5
48 3 0.961233 0.0689075 0.5
74 4 0.0374324 0.127037 0.5
19 1 0.240839 0.146679 0.5
8 1 0.353736 0.121734 0.5
65 4 0.57423 0.153282 0.5
31 2 0.667347 0.107632 0.5
45 3 0.94358 0.117902 0.5
37 2 0.247822 0.198863 0.5
30 2 0.622409 0.202847 0.5
77 4 0.590864 0.194275 0.5
27 2 0.0440648 0.254722 0.5
69 4 0.052706 0.241328 0.5
72 4 0.148251 0.23643 0.5
38 2 0.17678 0.210733 0.5
28 2 0.457991 0.211304 0.5
29 2 0.496995 0.229444 0.5
4 1 0.797777 0.213499 0.5
52 3 0.0089471 0.30502 0.5
35 2 0.290861 0.306289 0.5
58 3 0.351304 0.300887 0.5
32 2 0.713713 0.263775 0.5
47 3 0.755531 0.300277 0.5
66 4 0.862514 0.271215 0.5
39 2 0.374015 0.327084 0.5
40 2 0.721919 0.345702 0.5
75 4 0.18559 0.405452 0.5
41 3 0.20074 0.459611 0.5
67 4 0.197552 0.444815 0.5
6 1 0.40612 0.463482 0.5
46 3 0.814091 0.461552 0.5
49 3 0.10357 0.524816 0.5
64 4 0.135629 0.516309 0.5
61 4 0.46185 0.50491 0.5
56 3 0.803746 0.513206 0.5
59 3 0.951301 0.512801 0.5
5 1 0.123425 0.574463 0.5
78 4 0.344769 0.53301 0.5
54 3 0.552599 0.530682 0.5
68 4 0.760491 0.568087 0.5
76 4 0.715332 0.584164 0.5
10 1 0.0286652 0.656743 0.5
25 2 0.264393 0.656447 0.5
14 1 0.420412 0.638996 0.5
62 4 0.688264 0.652877 0.5
3 1 0.840636 0.654794 0.5
36 2 0.79977 0.679529 0.5
43 3 0.0845751 0.690612 0.5
18 1 0.136424 0.73606 0.5
11 1 0.406824 0.722394 0.5
2 1 0.93633 0.738128 0.5
26 2 0.952744 0.71236 0.5
60 3 0.214307 0.772405 0.5
24 2 0.882572 0.742234 0.5
55 3 0.0440768 0.799441 0.5
63 4 0.356865 0.822513 0.5
22 2 0.632673 0.836535 0.5
57 3 0.759064 0.840063 0.5
51 3 0.972861 0.814193 0.5
12 1 0.280948 0.869591 0.5
23 2 0.703834 0.865662 0.5
80 4 0.971076 0.881618 0.5
42 3 0.269607 0.911884 0.5
34 2 0.651942 0.918894 0.5
20 1 0.27509 0.976164 0.5
71 4 0.284957 0.992918 0.5
21 2 0.335792 0.992471 0.5
1 1 0.446153 0.997268 0.5
73 4 0.497679 0.986679 0.5
53 3 0.727568 0.966563 0.5
ITEM: TIMESTEP
50
ITEM: NUMBER OF ATOMS
80
ITEM: BOX BOUNDS pp pp pp
-6.7853581697414480e+00 6.7853581697414480e+00
-6.7853581697414480e+00 6.7853581697414480e+00
-1.0000000000000001e-01 1.0000000000000001e-01
ITEM: ATOMS id type xs ys zs
79 4 0.204297 0.0246169 0.5
70 4 0.365744 0.0227668 0.5
13 1 0.688047 0.0115204 0.5
9 1 0.816364 0.0317077 0.5
50 3 0.79517 0.00414573 0.5
15 1 0.861007 0.0150892 0.5
17 1 0.932405 0.0358952 0.5
7 1 0.173936 0.0874088 0.5
16 1 0.260296 0.0735262 0.5
33 2 0.454939 0.0938466 0.5
44 3 0.58018 0.0794347 0.5
48 3 0.962468 0.069849 0.5
74 4 0.0374324 0.127037 0.5
19 1 0.24077 0.146159 0.5
8 1 0.353788 0.12176 0.5
65 4 0.574207 0.153233 0.5
31 2 0.667343 0.107652 0.5
45 3 0.943485 0.118334 0.5
37 2 0.248327 0.200406 0.5
30 2 0.623688 0.203199 0.5
77 4 0.589607 0.193971 0.5
27 2 0.043077 0.256272 0.5
69 4 0.0538695 0.239526 0.5
72 4 0.147486 0.237117 0.5
38 2 0.177164 0.210183 0.5
28 2 0.456458 0.210591 0.5
29 2 0.498527 0.230156 0.5
4 1 0.797802 0.213484 0.5
52 3 0.00877141 0.305272 0.5
35 2 0.290455 0.306305 0.5
58 3 0.350571 0.299611 0.5
32 2 0.71321 0.263282 0.5
47 3 0.75634 0.300227 0.5
66 4 0.862514 0.271215 0.5
39 2 0.375154 0.328343 0.5
40 2 0.721589 0.34626 0.5
75 4 0.185555 0.405334 0.5
41 3 0.201118 0.461353 0.5
67 4 0.197209 0.443191 0.5
6 1 0.406007 0.463399 0.5
46 3 0.814158 0.461217 0.5
49 3 0.102304 0.523946 0.5
64 4 0.136566 0.515581 0.5
61 4 0.461962 0.504994 0.5
56 3 0.803678 0.513541 0.5
59 3 0.951301 0.512801 0.5
5 1 0.123754 0.576061 0.5
78 4 0.344769 0.53301 0.5
54 3 0.552599 0.530682 0.5
68 4 0.7605 0.568084 0.5
76 4 0.715323 0.584167 0.5
10 1 0.0282321 0.656412 0.5
25 2 0.264393 0.656447 0.5
14 1 0.420499 0.638465 0.5
62 4 0.688264 0.652877 0.5
3 1 0.842242 0.653779 0.5
36 2 0.798149 0.68051 0.5
43 3 0.0847475 0.690633 0.5
18 1 0.136696 0.736314 0.5
11 1 0.406737 0.722926 0.5
2 1 0.93628 0.740158 0.5
26 2 0.954476 0.710045 0.5
60 3 0.214346 0.772423 0.5
24 2 0.88083 0.742538 0.5
55 3 0.0440769 0.799441 0.5
63 4 0.356865 0.822513 0.5
22 2 0.632482 0.836404 0.5
57 3 0.759406 0.839905 0.5
51 3 0.972886 0.814245 0.5
12 1 0.281373 0.867963 0.5
23 2 0.703846 0.865711 0.5
80 4 0.971076 0.881618 0.5
42 3 0.269142 0.913015 0.5
34 2 0.651772 0.919114 0.5
20 1 0.272815 0.974077 0.5
71 4 0.285735 0.995054 0.5
21 2 0.336777 0.992205 0.5
1 1 0.445393 0.997385 0.5
73 4 0.498435 0.986524 0.5
53 3 0.72816 0.96589 0.5
ITEM: TIMESTEP
60
ITEM: NUMBER OF ATOMS
80
ITEM: BOX BOUNDS pp pp pp
-6.5480568605975193e+00 6.5480568605975193e+00
-6.5480568605975193e+00 6.5480568605975193e+00
-1.0000000000000001e-01 1.0000000000000001e-01
ITEM: ATOMS id type xs ys zs
79 4 0.204305 0.0242895 0.5
70 4 0.366516 0.0235506 0.5
13 1 0.687283 0.0124301 0.5
9 1 0.81519 0.0348117 0.5
50 3 0.791964 0.00177737 0.5
15 1 0.8644 0.0140765 0.5
17 1 0.931902 0.0343206 0.5
7 1 0.172604 0.0873493 0.5
16 1 0.261299 0.072457 0.5
33 2 0.454964 0.0939533 0.5
44 3 0.58018 0.0794347 0.5
48 3 0.964107 0.0709992 0.5
74 4 0.0374324 0.127037 0.5
19 1 0.240787 0.145575 0.5
8 1 0.353926 0.121829 0.5
65 4 0.574145 0.15311 0.5
31 2 0.667325 0.107733 0.5
45 3 0.943337 0.119036 0.5
37 2 0.249096 0.20243 0.5
30 2 0.62536 0.20367 0.5
77 4 0.587997 0.193623 0.5
27 2 0.0418966 0.258135 0.5
69 4 0.0553428 0.237243 0.5
72 4 0.146476 0.238025 0.5
38 2 0.177508 0.209529 0.5
28 2 0.454472 0.209668 0.5
29 2 0.500513 0.23108 0.5
4 1 0.797883 0.213433 0.5
52 3 0.00847855 0.305692 0.5
35 2 0.289786 0.306327 0.5
58 3 0.349728 0.29795 0.5
32 2 0.71245 0.26256 0.5
47 3 0.757485 0.300151 0.5
66 4 0.862514 0.271215 0.5
39 2 0.376667 0.329982 0.5
40 2 0.721122 0.347109 0.5
75 4 0.185484 0.405095 0.5
41 3 0.201603 0.463586 0.5
67 4 0.196795 0.441198 0.5
6 1 0.4058 0.463245 0.5
46 3 0.814259 0.460711 0.5
49 3 0.100631 0.522787 0.5
64 4 0.137807 0.514583 0.5
61 4 0.46217 0.505148 0.5
56 3 0.803577 0.514047 0.5
59 3 0.951301 0.512801 0.5
5 1 0.124185 0.578218 0.5
78 4 0.344769 0.53301 0.5
54 3 0.552599 0.530682 0.5
68 4 0.760533 0.568072 0.5
76 4 0.71529 0.584179 0.5
10 1 0.02767 0.655878 0.5
25 2 0.264393 0.656447 0.5
14 1 0.42063 0.63766 0.5
62 4 0.688264 0.652877 0.5
3 1 0.844297 0.652405 0.5
36 2 0.796048 0.681782 0.5
43 3 0.0849738 0.69064 0.5
18 1 0.137069 0.736686 0.5
11 1 0.406606 0.723731 0.5
2 1 0.936286 0.742703 0.5
26 2 0.956634 0.707112 0.5
60 3 0.214454 0.772474 0.5
24 2 0.878498 0.742993 0.5
55 3 0.0440846 0.79944 0.5
63 4 0.356865 0.822513 0.5
22 2 0.632135 0.836137 0.5
57 3 0.759929 0.839662 0.5
51 3 0.972947 0.814387 0.5
12 1 0.281933 0.865774 0.5
23 2 0.703935 0.865778 0.5
80 4 0.971076 0.881618 0.5
42 3 0.26853 0.914336 0.5
34 2 0.651479 0.919486 0.5
20 1 0.269866 0.971564 0.5
71 4 0.286652 0.997734 0.5
21 2 0.338128 0.991821 0.5
1 1 0.44436 0.997484 0.5
73 4 0.49947 0.986311 0.5
53 3 0.728968 0.964969 0.5
ITEM: TIMESTEP
70
ITEM: NUMBER OF ATOMS
80
ITEM: BOX BOUNDS pp pp pp
-6.3905446268475341e+00 6.3905446268475341e+00
-6.3905446268475341e+00 6.3905446268475341e+00
-1.0000000000000001e-01 1.0000000000000001e-01
ITEM: ATOMS id type xs ys zs
79 4 0.204276 0.0237903 0.5
70 4 0.367457 0.0245734 0.5
13 1 0.686352 0.0135683 0.5
9 1 0.813697 0.0386364 0.5
50 3 0.788162 0.998905 0.5
15 1 0.868281 0.0127383 0.5
17 1 0.931506 0.0323898 0.5
7 1 0.170738 0.0872833 0.5
16 1 0.262606 0.0711797 0.5
33 2 0.45504 0.0941508 0.5
44 3 0.58018 0.0794347 0.5
48 3 0.966149 0.0723332 0.5
74 4 0.0374324 0.127037 0.5
19 1 0.240894 0.144951 0.5
8 1 0.354185 0.121962 0.5
65 4 0.574034 0.152887 0.5
31 2 0.667288 0.107911 0.5
45 3 0.943125 0.120032 0.5
37 2 0.250159 0.204932 0.5
30 2 0.627414 0.204261 0.5
77 4 0.586055 0.193255 0.5
27 2 0.0405663 0.260249 0.5
69 4 0.0571043 0.234513 0.5
72 4 0.145226 0.239153 0.5
38 2 0.177756 0.208794 0.5
28 2 0.452053 0.208543 0.5
29 2 0.502933 0.232205 0.5
4 1 0.798048 0.213309 0.5
52 3 0.00804728 0.306308 0.5
35 2 0.288823 0.30636 0.5
58 3 0.348814 0.295912 0.5
32 2 0.711401 0.261604 0.5
47 3 0.758971 0.300065 0.5
66 4 0.86252 0.27122 0.5
39 2 0.378544 0.331987 0.5
40 2 0.720514 0.348268 0.5
75 4 0.185367 0.404707 0.5
41 3 0.202189 0.466274 0.5
67 4 0.196326 0.438897 0.5
6 1 0.40548 0.463007 0.5
46 3 0.814397 0.460023 0.5
49 3 0.0985629 0.521344 0.5
64 4 0.139344 0.513326 0.5
61 4 0.462489 0.505386 0.5
56 3 0.803439 0.514736 0.5
59 3 0.951301 0.512801 0.5
5 1 0.124718 0.580918 0.5
78 4 0.344769 0.53301 0.5
54 3 0.552599 0.530682 0.5
68 4 0.760604 0.568047 0.5
76 4 0.715218 0.584204 0.5
10 1 0.02701 0.655098 0.5
25 2 0.264393 0.656447 0.5
14 1 0.420809 0.636562 0.5
62 4 0.688264 0.652877 0.5
3 1 0.846773 0.650656 0.5
36 2 0.79349 0.683332 0.5
43 3 0.0852514 0.690626 0.5
18 1 0.137533 0.737178 0.5
11 1 0.406427 0.724829 0.5
2 1 0.93636 0.745714 0.5
26 2 0.959122 0.703626 0.5
60 3 0.214657 0.772568 0.5
24 2 0.875599 0.743608 0.5
55 3 0.0441176 0.799433 0.5
63 4 0.356874 0.822507 0.5
22 2 0.631605 0.835703 0.5
57 3 0.760651 0.839327 0.5
51 3 0.973047 0.81466 0.5
12 1 0.282622 0.863013 0.5
23 2 0.704122 0.865863 0.5
80 4 0.971076 0.881618 0.5
42 3 0.267782 0.915776 0.5
34 2 0.651043 0.920023 0.5
20 1 0.266276 0.968722 0.5
71 4 0.28769 1.00088 0.5
21 2 0.339813 0.991292 0.5
1 1 0.443101 0.997527 0.5
73 4 0.500788 0.986041 0.5
53 3 0.729972 0.963788 0.5
ITEM: TIMESTEP
80
ITEM: NUMBER OF ATOMS
80
ITEM: BOX BOUNDS pp pp pp
-6.3020117983661299e+00 6.3020117983661299e+00
-6.3020117983661299e+00 6.3020117983661299e+00
-1.0000000000000001e-01 1.0000000000000001e-01
ITEM: ATOMS id type xs ys zs
79 4 0.20419 0.0231275 0.5
70 4 0.368528 0.0258467 0.5
13 1 0.685275 0.014908 0.5
9 1 0.811895 0.0431266 0.5
50 3 0.783928 0.995612 0.5
15 1 0.87247 0.0110562 0.5
17 1 0.931302 0.0301539 0.5
7 1 0.168336 0.0872128 0.5
16 1 0.264181 0.0697558 0.5
33 2 0.455192 0.0944507 0.5
44 3 0.58018 0.0794347 0.5
48 3 0.968571 0.0738187 0.5
74 4 0.0374324 0.127037 0.5
19 1 0.241089 0.144309 0.5
8 1 0.354584 0.122172 0.5
65 4 0.573873 0.152552 0.5
31 2 0.667225 0.108212 0.5
45 3 0.942841 0.121317 0.5
37 2 0.251522 0.207886 0.5
30 2 0.629802 0.204954 0.5
77 4 0.583822 0.192893 0.5
27 2 0.039139 0.262534 0.5
69 4 0.0591149 0.231396 0.5
72 4 0.143754 0.240485 0.5
38 2 0.177868 0.207997 0.5
28 2 0.44925 0.207239 0.5
29 2 0.505735 0.233509 0.5
4 1 0.798307 0.213076 0.5
52 3 0.00746398 0.30714 0.5
35 2 0.287567 0.306414 0.5
58 3 0.347871 0.293526 0.5
32 2 0.710064 0.260437 0.5
47 3 0.760775 0.29999 0.5
66 4 0.862543 0.271241 0.5
39 2 0.380742 0.33432 0.5
40 2 0.719771 0.349727 0.5
75 4 0.185201 0.404162 0.5
41 3 0.202858 0.469349 0.5
67 4 0.195823 0.436367 0.5
6 1 0.405043 0.462682 0.5
46 3 0.814571 0.459153 0.5
49 3 0.09614 0.519643 0.5
64 4 0.141142 0.511845 0.5
61 4 0.462927 0.505711 0.5
56 3 0.803265 0.515605 0.5
59 3 0.951301 0.512801 0.5
5 1 0.125357 0.584088 0.5
78 4 0.344769 0.53301 0.5
54 3 0.552599 0.530682 0.5
68 4 0.760721 0.568005 0.5
76 4 0.715101 0.584246 0.5
10 1 0.0262812 0.654054 0.5
25 2 0.264393 0.656447 0.5
14 1 0.421035 0.635175 0.5
62 4 0.688264 0.652877 0.5
3 1 0.849616 0.648547 0.5
36 2 0.790527 0.685126 0.5
43 3 0.0855741 0.690587 0.5
18 1 0.138074 0.737787 0.5
11 1 0.406201 0.726215 0.5
2 1 0.936509 0.749113 0.5
26 2 0.961813 0.699696 0.5
60 3 0.214975 0.772715 0.5
24 2 0.872197 0.74437 0.5
55 3 0.0441893 0.799417 0.5
63 4 0.356916 0.822484 0.5
22 2 0.630881 0.835086 0.5
57 3 0.761574 0.838897 0.5
51 3 0.973191 0.815096 0.5
12 1 0.283414 0.859721 0.5
23 2 0.704418 0.865965 0.5
80 4 0.971076 0.881619 0.5
42 3 0.266927 0.917247 0.5
34 2 0.650454 0.920726 0.5
20 1 0.262115 0.96567 0.5
71 4 0.288831 0.00437644 0.5
21 2 0.341767 0.990581 0.5
1 1 0.441699 0.997485 0.5
73 4 0.50237 0.985718 0.5
53 3 0.731119 0.962338 0.5
ITEM: TIMESTEP
90
ITEM: NUMBER OF ATOMS
80
ITEM: BOX BOUNDS pp pp pp
-6.2713215536886970e+00 6.2713215536886970e+00
-6.2713215536886970e+00 6.2713215536886970e+00
-1.0000000000000001e-01 1.0000000000000001e-01
ITEM: ATOMS id type xs ys zs
79 4 0.204031 0.0223276 0.5
70 4 0.369684 0.027369 0.5
13 1 0.684071 0.0164094 0.5
9 1 0.809824 0.0481811 0.5
50 3 0.779471 0.992015 0.5
15 1 0.876758 0.00903035 0.5
17 1 0.931353 0.0276927 0.5
7 1 0.165441 0.0871376 0.5
16 1 0.265966 0.0682479 0.5
33 2 0.455434 0.0948535 0.5
44 3 0.58018 0.0794347 0.5
48 3 0.971328 0.0754193 0.5
74 4 0.0374324 0.127037 0.5
19 1 0.241366 0.143671 0.5
8 1 0.35513 0.122468 0.5
65 4 0.573673 0.152104 0.5
31 2 0.667135 0.108654 0.5
45 3 0.942478 0.122857 0.5
37 2 0.253171 0.211239 0.5
30 2 0.63243 0.205707 0.5
77 4 0.581357 0.192562 0.5
27 2 0.0376725 0.264903 0.5
69 4 0.0613219 0.227973 0.5
72 4 0.142094 0.241997 0.5
38 2 0.177818 0.207155 0.5
28 2 0.446138 0.205792 0.5
29 2 0.508847 0.234956 0.5
4 1 0.79866 0.212716 0.5
52 3 0.0067235 0.308194 0.5
35 2 0.28605 0.306501 0.5
58 3 0.346942 0.290843 0.5
32 2 0.708486 0.259112 0.5
47 3 0.762855 0.299938 0.5
66 4 0.86259 0.271283 0.5
39 2 0.383188 0.336917 0.5
40 2 0.718905 0.351447 0.5
75 4 0.184984 0.403462 0.5
41 3 0.20359 0.472713 0.5
67 4 0.195308 0.433704 0.5
6 1 0.404491 0.462272 0.5
46 3 0.814778 0.458121 0.5
49 3 0.0934309 0.517733 0.5
64 4 0.143147 0.510194 0.5
61 4 0.463479 0.506121 0.5
56 3 0.803059 0.516637 0.5
59 3 0.951301 0.512801 0.5
5 1 0.126107 0.587617 0.5
78 4 0.344769 0.53301 0.5
54 3 0.552599 0.530682 0.5
68 4 0.760886 0.567948 0.5
76 4 0.714936 0.584304 0.5
10 1 0.0255134 0.652748 0.5
25 2 0.264393 0.656447 0.5
14 1 0.421304 0.633526 0.5
62 4 0.688264 0.652877 0.5
3 1 0.852754 0.64612 0.5
36 2 0.787228 0.687112 0.5
43 3 0.0859328 0.690518 0.5
18 1 0.138675 0.738505 0.5
11 1 0.405933 0.727865 0.5
2 1 0.936728 0.752802 0.5
26 2 0.964559 0.695458 0.5
60 3 0.215417 0.772918 0.5
24 2 0.8684 0.74525 0.5
55 3 0.0443068 0.799392 0.5
63 4 0.357014 0.822433 0.5
22 2 0.629971 0.834293 0.5
57 3 0.76269 0.838376 0.5
51 3 0.973386 0.815712 0.5
12 1 0.284275 0.85598 0.5
23 2 0.704821 0.866086 0.5
80 4 0.971076 0.881625 0.5
42 3 0.266011 0.918659 0.5
34 2 0.649712 0.921577 0.5
20 1 0.257474 0.96254 0.5
71 4 0.290054 0.0080971 0.5
21 2 0.343901 0.989659 0.5
1 1 0.440238 0.99734 0.5
73 4 0.504182 0.985351 0.5
53 3 0.732342 0.960625 0.5
ITEM: TIMESTEP
100
ITEM: NUMBER OF ATOMS
80
ITEM: BOX BOUNDS pp pp pp
-6.2832330159123844e+00 6.2832330159123844e+00
-6.2832330159123844e+00 6.2832330159123844e+00
-1.0000000000000001e-01 1.0000000000000001e-01
ITEM: ATOMS id type xs ys zs
79 4 0.203797 0.0214291 0.5
70 4 0.37088 0.0291284 0.5
13 1 0.682757 0.0180263 0.5
9 1 0.807553 0.0536665 0.5
50 3 0.775003 0.988242 0.5
15 1 0.880934 0.00667696 0.5
17 1 0.931696 0.0251048 0.5
7 1 0.162131 0.0870551 0.5
16 1 0.267893 0.0667078 0.5
33 2 0.45577 0.0953508 0.5
44 3 0.58018 0.0794347 0.5
48 3 0.97436 0.0771003 0.5
74 4 0.0374324 0.127037 0.5
19 1 0.241711 0.143052 0.5
8 1 0.355816 0.122854 0.5
65 4 0.573451 0.151555 0.5
31 2 0.667019 0.109241 0.5
45 3 0.942033 0.124595 0.5
37 2 0.255066 0.214911 0.5
30 2 0.635186 0.206472 0.5
77 4 0.578725 0.192283 0.5
27 2 0.0362228 0.267272 0.5
69 4 0.0636676 0.224334 0.5
72 4 0.140282 0.243656 0.5
38 2 0.177596 0.206283 0.5
28 2 0.442803 0.204241 0.5
29 2 0.512182 0.236507 0.5
4 1 0.799101 0.212228 0.5
52 3 0.00582755 0.309465 0.5
35 2 0.284331 0.306652 0.5
58 3 0.346061 0.287925 0.5
32 2 0.70674 0.2577 0.5
47 3 0.765153 0.299918 0.5
66 4 0.862662 0.271349 0.5
39 2 0.385795 0.339704 0.5
40 2 0.717938 0.353369 0.5
75 4 0.184714 0.402604 0.5
41 3 0.204363 0.476273 0.5
67 4 0.194805 0.431001 0.5
6 1 0.403838 0.461786 0.5
46 3 0.815012 0.45695 0.5
49 3 0.0905192 0.515671 0.5
64 4 0.145295 0.508437 0.5
61 4 0.464132 0.506607 0.5
56 3 0.802832 0.517799 0.5
59 3 0.951301 0.512801 0.5
5 1 0.126962 0.591374 0.5
78 4 0.344769 0.53301 0.5
54 3 0.552599 0.530682 0.5
68 4 0.76109 0.567881 0.5
76 4 0.714725 0.58438 0.5
10 1 0.0247422 0.651187 0.5
25 2 0.264393 0.656447 0.5
14 1 0.421608 0.631656 0.5
62 4 0.688264 0.652877 0.5
3 1 0.856107 0.643446 0.5
36 2 0.783676 0.689227 0.5
43 3 0.0863168 0.690417 0.5
18 1 0.13932 0.73932 0.5
11 1 0.405628 0.729735 0.5
2 1 0.937005 0.756674 0.5
26 2 0.967237 0.691051 0.5
60 3 0.215981 0.773177 0.5
24 2 0.864311 0.746215 0.5
55 3 0.0444708 0.799356 0.5
63 4 0.357184 0.822349 0.5
22 2 0.628897 0.833344 0.5
57 3 0.76398 0.837773 0.5
51 3 0.973642 0.81651 0.5
12 1 0.285169 0.851891 0.5
23 2 0.705318 0.866225 0.5
80 4 0.971076 0.881644 0.5
42 3 0.265097 0.919932 0.5
34 2 0.648832 0.922554 0.5
20 1 0.252447 0.95946 0.5
71 4 0.291345 0.0119063 0.5
21 2 0.346115 0.988509 0.5
1 1 0.438799 0.997083 0.5
73 4 0.506179 0.984948 0.5
53 3 0.733573 0.958665 0.5
ITEM: TIMESTEP
110
ITEM: NUMBER OF ATOMS
80
ITEM: BOX BOUNDS pp pp pp
-6.3172733498297156e+00 6.3172733498297156e+00
-6.3172733498297156e+00 6.3172733498297156e+00
-1.0000000000000001e-01 1.0000000000000001e-01
ITEM: ATOMS id type xs ys zs
79 4 0.203489 0.0204754 0.5
70 4 0.37208 0.0311083 0.5
13 1 0.681358 0.0197123 0.5
9 1 0.805156 0.0594432 0.5
50 3 0.770677 0.984412 0.5
15 1 0.88484 0.0040235 0.5
17 1 0.932354 0.022493 0.5
7 1 0.158498 0.0869598 0.5
16 1 0.269888 0.0651712 0.5
33 2 0.456199 0.0959281 0.5
44 3 0.58018 0.0794347 0.5
48 3 0.977611 0.0788346 0.5
74 4 0.0374324 0.127037 0.5
19 1 0.242112 0.142466 0.5
8 1 0.356629 0.123328 0.5
65 4 0.573218 0.15091 0.5
31 2 0.66688 0.10997 0.5
45 3 0.94151 0.126468 0.5
37 2 0.257156 0.21881 0.5
30 2 0.637973 0.207213 0.5
77 4 0.575987 0.192067 0.5
27 2 0.0348367 0.269568 0.5
69 4 0.0661004 0.220558 0.5
72 4 0.138355 0.245431 0.5
38 2 0.177209 0.20539 0.5
28 2 0.439328 0.202625 0.5
29 2 0.515655 0.238125 0.5
4 1 0.799613 0.211626 0.5
52 3 0.00478079 0.310945 0.5
35 2 0.282464 0.306902 0.5
58 3 0.345254 0.284834 0.5
32 2 0.704904 0.256272 0.5
47 3 0.767608 0.299932 0.5
66 4 0.862757 0.271435 0.5
39 2 0.38849 0.342611 0.5
40 2 0.716894 0.355428 0.5
75 4 0.184387 0.401589 0.5
41 3 0.205166 0.479947 0.5
67 4 0.194334 0.42834 0.5
6 1 0.4031 0.461238 0.5
46 3 0.815268 0.455672 0.5
49 3 0.0874891 0.513517 0.5
64 4 0.147515 0.506641 0.5
61 4 0.46487 0.507155 0.5
56 3 0.802593 0.519056 0.5
59 3 0.951301 0.512801 0.5
5 1 0.12791 0.595234 0.5
78 4 0.344769 0.53301 0.5
54 3 0.552599 0.530682 0.5
68 4 0.761324 0.567812 0.5
76 4 0.714474 0.584469 0.5
10 1 0.0240044 0.649379 0.5
25 2 0.264393 0.656447 0.5
14 1 0.421941 0.629612 0.5
62 4 0.688264 0.652877 0.5
3 1 0.859598 0.640601 0.5
36 2 0.779954 0.691416 0.5
43 3 0.0867158 0.690284 0.5
18 1 0.139994 0.740219 0.5
11 1 0.405295 0.731778 0.5
2 1 0.937321 0.760629 0.5
26 2 0.969764 0.686587 0.5
60 3 0.216664 0.773487 0.5
24 2 0.860003 0.747234 0.5
55 3 0.0446779 0.799309 0.5
63 4 0.357439 0.82223 0.5
22 2 0.627687 0.832267 0.5
57 3 0.765421 0.837095 0.5
51 3 0.973972 0.81749 0.5
12 1 0.286062 0.847561 0.5
23 2 0.705891 0.866382 0.5
80 4 0.971074 0.881679 0.5
42 3 0.264258 0.921007 0.5
34 2 0.647829 0.923626 0.5
20 1 0.247116 0.956526 0.5
71 4 0.292692 0.0156828 0.5
21 2 0.348308 0.987126 0.5
1 1 0.437452 0.996717 0.5
73 4 0.508315 0.984521 0.5
53 3 0.734747 0.956475 0.5
ITEM: TIMESTEP
120
ITEM: NUMBER OF ATOMS
80
ITEM: BOX BOUNDS pp pp pp
-6.3498063823108160e+00 6.3498063823108160e+00
-6.3498063823108160e+00 6.3498063823108160e+00
-1.0000000000000001e-01 1.0000000000000001e-01
ITEM: ATOMS id type xs ys zs
79 4 0.20311 0.0195065 0.5
70 4 0.373257 0.0332956 0.5
13 1 0.679897 0.0214279 0.5
9 1 0.802678 0.0653964 0.5
50 3 0.766565 0.980624 0.5
15 1 0.888386 0.00109724 0.5
17 1 0.933354 0.0199326 0.5
7 1 0.154627 0.0868443 0.5
16 1 0.271886 0.0636566 0.5
33 2 0.456716 0.0965708 0.5
44 3 0.58018 0.0794347 0.5
48 3 0.981037 0.0806072 0.5
74 4 0.0374324 0.127037 0.5
19 1 0.242554 0.14192 0.5
8 1 0.357551 0.123888 0.5
65 4 0.572981 0.150176 0.5
31 2 0.66672 0.110839 0.5
45 3 0.940914 0.128427 0.5
37 2 0.259398 0.222865 0.5
30 2 0.640719 0.207899 0.5
77 4 0.573202 0.191912 0.5
27 2 0.033549 0.271739 0.5
69 4 0.0685833 0.216703 0.5
72 4 0.136339 0.247301 0.5
38 2 0.176671 0.204485 0.5
28 2 0.435779 0.200976 0.5
29 2 0.519187 0.239792 0.5
4 1 0.800183 0.210924 0.5
52 3 0.00358561 0.312629 0.5
35 2 0.280481 0.307278 0.5
58 3 0.344537 0.28162 0.5
32 2 0.703052 0.254892 0.5
47 3 0.77017 0.299981 0.5
66 4 0.862871 0.27154 0.5
39 2 0.391233 0.345588 0.5
40 2 0.715791 0.357564 0.5
75 4 0.184 0.400413 0.5
41 3 0.206003 0.483666 0.5