ITEM: TIMESTEP
250
ITEM: NUMBER OF ATOMS
51
ITEM: BOX BOUNDS pp pp pp
-4.8057204546803600e+00 4.8057204546803600e+00
-4.8085915305436178e+00 4.8085915305436178e+00
-1.0000000000000001e-01 1.0000000000000001e-01
ITEM: ATOMS id type xs ys zs
19 1 0.369818 0.132895 0.4992
31 1 0.47415 0.0721958 0.499612
75 1 0.472422 0.164663 0.500441
42 1 0.52513 0.235449 0.499838
55 1 0.587179 0.183387 0.500779
32 1 0.301292 0.241795 0.499556
33 1 0.433154 0.260871 0.501202
38 1 0.519268 0.348058 0.499751
80 1 0.584017 0.270638 0.499788
39 1 0.676953 0.238024 0.499739
72 1 0.0242545 0.466776 0.500206
30 1 0.0636812 0.400995 0.500048
20 1 0.370669 0.372505 0.499912
13 1 0.786237 0.333024 0.500121
68 1 0.873778 0.38837 0.500256
6 1 0.948614 0.313035 0.500328
37 1 0.969292 0.550756 0.499911
40 1 0.0953541 0.523285 0.501076
2 1 0.36961 0.518167 0.500419
3 1 0.531336 0.490266 0.499211
7 1 0.670339 0.545765 0.500314
52 1 0.817194 0.462066 0.499287
66 1 0.882117 0.50171 0.498958
45 1 0.932001 0.442906 0.500674
24 1 0.0810976 0.639603 0.499845
4 1 0.227416 0.59244 0.500138
79 1 0.777448 0.532876 0.500818
67 1 0.753675 0.651153 0.499698
12 1 0.84919 0.619543 0.500551
57 1 0.973487 0.669795 0.500447
26 1 0.125819 0.763866 0.500227
53 1 0.0217846 0.765079 0.500332
62 1 0.160359 0.684093 0.499398
5 1 0.263313 0.751138 0.49939
15 1 0.369928 0.668526 0.500752
27 1 0.512227 0.694227 0.499162
61 1 0.593014 0.752645 0.499552
16 1 0.656982 0.681773 0.499865
14 1 0.784691 0.762446 0.499217
49 1 0.903853 0.732811 0.500425
50 1 0.0604242 0.855866 0.500495
23 1 0.388482 0.809133 0.499206
10 1 0.521444 0.847088 0.499878
17 1 0.665245 0.854562 0.499611
18 1 0.932304 0.854901 0.500042
22 1 0.0535725 0.936142 0.500553
1 1 0.184022 0.898071 0.500012
25 1 0.308696 0.895688 0.500682
35 1 0.394848 0.984756 0.50042
43 1 0.508812 0.962888 0.501221
9 1 0.788419 0.912269 0.500174
ITEM: TIMESTEP
500
ITEM: NUMBER OF ATOMS
51
ITEM: BOX BOUNDS pp pp pp
-4.8045189416622911e+00 4.8045189416622911e+00
-4.8085218999590751e+00 4.8085218999590751e+00
-1.0000000000000001e-01 1.0000000000000001e-01
ITEM: ATOMS id type xs ys zs
19 1 0.368443 0.134252 0.496861
31 1 0.47296 0.0724543 0.499479
75 1 0.472396 0.164686 0.501281
42 1 0.525372 0.234992 0.500574
55 1 0.587266 0.182579 0.501226
32 1 0.301152 0.242963 0.499874
33 1 0.433294 0.260864 0.501872
38 1 0.519618 0.347744 0.498699
80 1 0.583858 0.270271 0.498396
39 1 0.676616 0.238603 0.500382
72 1 0.0248955 0.467703 0.50066
30 1 0.0638367 0.401856 0.501361
20 1 0.37084 0.372739 0.500021
13 1 0.786074 0.333591 0.499371
68 1 0.873645 0.38842 0.500712
6 1 0.948754 0.313733 0.501392
37 1 0.9695 0.55129 0.5011
40 1 0.0956516 0.52406 0.502707
2 1 0.369484 0.518346 0.501057
3 1 0.530621 0.490311 0.500599
7 1 0.67057 0.545199 0.500454
52 1 0.817275 0.462327 0.499886
66 1 0.881508 0.503455 0.49737
45 1 0.930795 0.443802 0.50052
24 1 0.0813982 0.639755 0.500666
4 1 0.227681 0.592853 0.501401
79 1 0.777375 0.533382 0.500661
67 1 0.753951 0.65124 0.500517
12 1 0.848868 0.61995 0.50102
57 1 0.97345 0.669905 0.499846
26 1 0.125691 0.764132 0.501207
53 1 0.0214402 0.765394 0.501359
62 1 0.160333 0.684781 0.500378
5 1 0.264151 0.751669 0.498117
15 1 0.370101 0.669402 0.502281
27 1 0.512761 0.692173 0.499252
61 1 0.592349 0.75219 0.499141
16 1 0.657473 0.681232 0.497243
14 1 0.784154 0.762616 0.498459
49 1 0.904008 0.733346 0.501705
50 1 0.0600465 0.855807 0.499772
23 1 0.389605 0.810207 0.49991
10 1 0.522423 0.847474 0.499967
17 1 0.665559 0.856002 0.500253
18 1 0.932113 0.855808 0.500661
22 1 0.0536955 0.936223 0.50151
1 1 0.183865 0.89838 0.498144
25 1 0.30836 0.895386 0.50025
35 1 0.394948 0.98347 0.49991
43 1 0.50944 0.963676 0.500197
9 1 0.788716 0.912439 0.500399
ITEM: TIMESTEP
750
ITEM: NUMBER OF ATOMS
51
ITEM: BOX BOUNDS pp pp pp
-4.8033174286442231e+00 4.8033174286442231e+00
-4.8038033817030970e+00 4.8038033817030970e+00
-1.0000000000000001e-01 1.0000000000000001e-01
ITEM: ATOMS id type xs ys zs
19 1 0.367982 0.133815 0.495363
31 1 0.473148 0.0726674 0.500479
75 1 0.47155 0.164617 0.503886
42 1 0.524765 0.235043 0.502289
55 1 0.586392 0.182987 0.501337
32 1 0.301502 0.244126 0.500525
33 1 0.433303 0.261466 0.502558
38 1 0.519908 0.348145 0.500509
80 1 0.583564 0.27016 0.497479
39 1 0.676611 0.23793 0.499719
72 1 0.0254449 0.46707 0.50165
30 1 0.0643295 0.400935 0.499987
20 1 0.371828 0.374393 0.500506
13 1 0.785315 0.333701 0.497569
68 1 0.873089 0.389241 0.499371
6 1 0.94815 0.313859 0.50128
37 1 0.970405 0.55083 0.501117
40 1 0.0965746 0.523304 0.501133
2 1 0.370608 0.519636 0.498856
3 1 0.531461 0.49018 0.501797
7 1 0.670826 0.544978 0.500268
52 1 0.81887 0.462431 0.499495
66 1 0.882539 0.504186 0.497416
45 1 0.931348 0.444048 0.501326
24 1 0.0817328 0.63961 0.499676
4 1 0.228106 0.593162 0.501395
79 1 0.77801 0.533095 0.500289
67 1 0.754072 0.652094 0.499906
12 1 0.849088 0.619816 0.501457
57 1 0.974083 0.670128 0.500103
26 1 0.126102 0.764072 0.50142
53 1 0.021671 0.764469 0.501442
62 1 0.160852 0.684278 0.500763
5 1 0.264266 0.752691 0.496598
15 1 0.370191 0.67019 0.502208
27 1 0.513135 0.691237 0.498383
61 1 0.592221 0.75188 0.499976
16 1 0.657299 0.681251 0.496428
14 1 0.784592 0.763895 0.497737
49 1 0.90389 0.73256 0.500991
50 1 0.0607453 0.855847 0.497895
23 1 0.390692 0.809919 0.50012
10 1 0.522482 0.847692 0.500424
17 1 0.666476 0.857878 0.499842
18 1 0.932688 0.854457 0.500314
22 1 0.054135 0.935742 0.503461
1 1 0.185018 0.8977 0.498218
25 1 0.309253 0.89395 0.50164
35 1 0.395187 0.98384 0.499408
43 1 0.509526 0.963796 0.502193
9 1 0.790536 0.914379 0.50175
ITEM: TIMESTEP
1000
ITEM: NUMBER OF ATOMS
51
ITEM: BOX BOUNDS pp pp pp
-4.8021159156261550e+00 4.8021159156261550e+00
-4.8079328927521567e+00 4.8079328927521567e+00
-1.0000000000000001e-01 1.0000000000000001e-01
ITEM: ATOMS id type xs ys zs
19 1 0.368555 0.134088 0.495912
31 1 0.473218 0.0727338 0.50039
75 1 0.471314 0.165251 0.50228
42 1 0.525461 0.235084 0.501366
55 1 0.586831 0.182587 0.499871
32 1 0.300744 0.243741 0.500525
33 1 0.432945 0.261999 0.50277
38 1 0.520571 0.347624 0.500807
80 1 0.584285 0.270151 0.49683
39 1 0.677036 0.237488 0.497366
72 1 0.0252054 0.467031 0.501132
30 1 0.0646002 0.40124 0.49909
20 1 0.371338 0.374025 0.500364
13 1 0.78651 0.333155 0.49979
68 1 0.87372 0.389017 0.497693
6 1 0.948666 0.313663 0.501726
37 1 0.970338 0.550935 0.501443
40 1 0.096189 0.523454 0.501621
2 1 0.371656 0.519202 0.499804
3 1 0.531807 0.490267 0.502659
7 1 0.670591 0.545483 0.498974
52 1 0.818148 0.462644 0.498678
66 1 0.882938 0.502868 0.495601
45 1 0.932398 0.443606 0.503304
24 1 0.0824596 0.640002 0.499199
4 1 0.228494 0.593368 0.502615
79 1 0.777157 0.532234 0.500945
67 1 0.753998 0.651802 0.498864
12 1 0.849099 0.619403 0.501705
57 1 0.974638 0.670042 0.501337
26 1 0.126176 0.763813 0.500528
53 1 0.0217806 0.765176 0.501825
62 1 0.161305 0.684881 0.501036
5 1 0.264944 0.75261 0.497187
15 1 0.370312 0.669163 0.502124
27 1 0.512537 0.692801 0.498815
61 1 0.59202 0.752807 0.498683
16 1 0.657086 0.6817 0.497381
14 1 0.785029 0.763224 0.496627
49 1 0.904698 0.732475 0.501998
50 1 0.0608129 0.8561 0.496675
23 1 0.391089 0.809588 0.499875
10 1 0.52296 0.84804 0.49987
17 1 0.667025 0.857856 0.502052
18 1 0.932618 0.854991 0.499481
22 1 0.0545251 0.935412 0.504034
1 1 0.185183 0.897824 0.497296
25 1 0.309378 0.89432 0.502896
35 1 0.395425 0.984133 0.500866
43 1 0.509874 0.963987 0.502095
9 1 0.790509 0.913702 0.501435
ITEM: TIMESTEP
1250
ITEM: NUMBER OF ATOMS
51
ITEM: BOX BOUNDS pp pp pp
-4.8009144026080861e+00 4.8009144026080861e+00
-4.7996394723229185e+00 4.7996394723229185e+00
-1.0000000000000001e-01 1.0000000000000001e-01
ITEM: ATOMS id type xs ys zs
19 1 0.367972 0.132727 0.49759
31 1 0.472843 0.0724013 0.499917
75 1 0.47126 0.164721 0.501873
42 1 0.525027 0.234906 0.500752
55 1 0.587346 0.182555 0.499806
32 1 0.300809 0.242804 0.501202
33 1 0.432376 0.261468 0.500942
38 1 0.520237 0.347623 0.501153
80 1 0.583996 0.269848 0.498638
39 1 0.677161 0.237708 0.500038
72 1 0.0250821 0.467026 0.499397
30 1 0.0635865 0.400337 0.499387
20 1 0.36947 0.373734 0.501557
13 1 0.786097 0.333013 0.500132
68 1 0.873804 0.388847 0.498523
6 1 0.94867 0.312348 0.501966
37 1 0.970322 0.550953 0.500578
40 1 0.0962034 0.523054 0.501228
2 1 0.371582 0.519266 0.500391
3 1 0.532913 0.48984 0.50237
7 1 0.671634 0.545651 0.500811
52 1 0.817915 0.461538 0.496596
66 1 0.88331 0.50192 0.495824
45 1 0.932287 0.442615 0.503158
24 1 0.0828006 0.64044 0.500589
4 1 0.227843 0.593002 0.503783
79 1 0.778477 0.532858 0.502106
67 1 0.754761 0.652423 0.499936
12 1 0.849297 0.619957 0.502317
57 1 0.974446 0.669669 0.501038
26 1 0.12754 0.76511 0.499164
53 1 0.0224392 0.765237 0.501811
62 1 0.161791 0.685221 0.500967
5 1 0.264958 0.752152 0.496712
15 1 0.37103 0.66923 0.502808
27 1 0.513732 0.693634 0.497539
61 1 0.59367 0.752779 0.499607
16 1 0.65793 0.681634 0.496527
14 1 0.785426 0.764493 0.495525
49 1 0.905312 0.733112 0.503031
50 1 0.0611889 0.856201 0.497916
23 1 0.390648 0.809416 0.497966
10 1 0.523159 0.847648 0.498829
17 1 0.666633 0.857363 0.502547
18 1 0.933365 0.855116 0.499255
22 1 0.0545889 0.936592 0.503853
1 1 0.185443 0.899095 0.497088
25 1 0.30898 0.893893 0.503492
35 1 0.395308 0.983532 0.500348
43 1 0.50985 0.963754 0.501638
9 1 0.789982 0.914737 0.501969
ITEM: TIMESTEP
1500
ITEM: NUMBER OF ATOMS
51
ITEM: BOX BOUNDS pp pp pp
-4.7997128895900181e+00 4.7997128895900181e+00
-4.8065457434662653e+00 4.8065457434662653e+00
-1.0000000000000001e-01 1.0000000000000001e-01
ITEM: ATOMS id type xs ys zs
19 1 0.368077 0.133849 0.498678
31 1 0.472468 0.0722458 0.498806
75 1 0.471516 0.164857 0.501125
42 1 0.524745 0.235635 0.500643
55 1 0.587139 0.183571 0.501263
32 1 0.300021 0.242943 0.500842
33 1 0.432711 0.261487 0.50193
38 1 0.519869 0.34829 0.501565
80 1 0.583897 0.270668 0.497725
39 1 0.676766 0.238093 0.501922
72 1 0.0249915 0.466492 0.498824
30 1 0.06369 0.400663 0.500651
20 1 0.369746 0.372881 0.50014
13 1 0.786176 0.332973 0.500827
68 1 0.874381 0.387697 0.496881
6 1 0.948945 0.311753 0.500711
37 1 0.969747 0.550234 0.501885
40 1 0.0957661 0.52315 0.500996
2 1 0.37028 0.517899 0.501674
3 1 0.531847 0.49039 0.50215
7 1 0.671247 0.546055 0.500724
52 1 0.818121 0.461741 0.496992
66 1 0.883442 0.500747 0.497967
45 1 0.933293 0.441442 0.502233
24 1 0.0821862 0.639685 0.500003
4 1 0.22774 0.592344 0.502217
79 1 0.778068 0.532973 0.502036
67 1 0.755022 0.652208 0.499774
12 1 0.849652 0.619537 0.500752
57 1 0.974013 0.668899 0.501084
26 1 0.126486 0.764656 0.498438
53 1 0.0220915 0.765836 0.502499
62 1 0.16137 0.685087 0.499639
5 1 0.264586 0.75093 0.496935
15 1 0.370645 0.668543 0.503272
27 1 0.51274 0.694179 0.496375
61 1 0.593025 0.752923 0.500007
16 1 0.657717 0.682535 0.497183
14 1 0.785772 0.763917 0.495808
49 1 0.905155 0.733706 0.502337
50 1 0.0608313 0.856549 0.497919
23 1 0.389536 0.809209 0.499444
10 1 0.522236 0.847684 0.497508
17 1 0.666044 0.857163 0.502984
18 1 0.933015 0.855951 0.499259
22 1 0.0545603 0.936777 0.504502
1 1 0.184562 0.898314 0.497391
25 1 0.308505 0.894375 0.502036
35 1 0.396102 0.98228 0.501192
43 1 0.510971 0.964013 0.501705
9 1 0.789593 0.913976 0.504943
ITEM: TIMESTEP
1750
ITEM: NUMBER OF ATOMS
51
ITEM: BOX BOUNDS pp pp pp
-4.7985113765719500e+00 4.7985113765719500e+00
-4.8069273088594304e+00 4.8069273088594304e+00
-1.0000000000000001e-01 1.0000000000000001e-01
ITEM: ATOMS id type xs ys zs
19 1 0.367277 0.132378 0.497771
31 1 0.472722 0.0722365 0.499895
75 1 0.470958 0.164518 0.501611
42 1 0.524725 0.234687 0.500028
55 1 0.587018 0.182978 0.502856
32 1 0.300071 0.241813 0.5011
33 1 0.431851 0.260677 0.501983
38 1 0.518076 0.347272 0.50004
80 1 0.583307 0.270615 0.49956
39 1 0.676569 0.23868 0.501128
72 1 0.0253094 0.467023 0.499528
30 1 0.0649248 0.401081 0.500756
20 1 0.369637 0.372594 0.501101
13 1 0.786655 0.33294 0.502389
68 1 0.874623 0.387214 0.497527
6 1 0.949828 0.312102 0.502641
37 1 0.969658 0.550225 0.503222
40 1 0.0958225 0.523807 0.50236
2 1 0.370595 0.518193 0.502524
3 1 0.53194 0.489875 0.502969
7 1 0.670342 0.546588 0.500296
52 1 0.816786 0.462541 0.496357
66 1 0.882933 0.500781 0.49921
45 1 0.93266 0.44215 0.502323
24 1 0.0826918 0.640356 0.499937
4 1 0.227702 0.5928 0.502333
79 1 0.777498 0.533803 0.503139
67 1 0.754007 0.652615 0.501431
12 1 0.849444 0.619824 0.50473
57 1 0.97427 0.668639 0.50162
26 1 0.127245 0.764631 0.496991
53 1 0.0222697 0.765555 0.503827
62 1 0.161835 0.685436 0.49905
5 1 0.264427 0.750963 0.498256
15 1 0.370745 0.6684 0.502983
27 1 0.512509 0.695542 0.495769
61 1 0.592657 0.754463 0.501119
16 1 0.656858 0.682915 0.498849
14 1 0.785502 0.763851 0.496635
49 1 0.90469 0.732348 0.502815
50 1 0.0605122 0.856297 0.495995
23 1 0.389265 0.808486 0.500798
10 1 0.520851 0.848903 0.499254
17 1 0.664983 0.855181 0.503408
18 1 0.931989 0.854734 0.500978
22 1 0.0534275 0.936496 0.503694
1 1 0.184634 0.898514 0.496457
25 1 0.308426 0.89362 0.500094
35 1 0.396018 0.982424 0.499763
43 1 0.511727 0.964811 0.503133
9 1 0.787761 0.91335 0.505622
ITEM: TIMESTEP
2000
ITEM: NUMBER OF ATOMS
51
ITEM: BOX BOUNDS pp pp pp
-4.7973098635538811e+00 4.7973098635538811e+00
-4.8107085395759883e+00 4.8107085395759883e+00
-1.0000000000000001e-01 1.0000000000000001e-01
ITEM: ATOMS id type xs ys zs
19 1 0.367664 0.13328 0.496023
31 1 0.472885 0.0722829 0.499739
75 1 0.470811 0.164612 0.504114
42 1 0.524504 0.234751 0.500693
55 1 0.587297 0.182851 0.500471
32 1 0.300032 0.242468 0.502967
33 1 0.431675 0.261179 0.503121
38 1 0.519187 0.34744 0.499689
80 1 0.583319 0.27 0.4997
39 1 0.676347 0.239381 0.501666
72 1 0.0252287 0.466579 0.497741
30 1 0.0654346 0.400984 0.499383
20 1 0.368518 0.372677 0.500541
13 1 0.787477 0.332494 0.502272
68 1 0.87541 0.387551 0.498173
6 1 0.950651 0.312488 0.502502
37 1 0.968996 0.549904 0.500952
40 1 0.095767 0.523732 0.503504
2 1 0.37135 0.518234 0.503781
3 1 0.533087 0.489314 0.503397
7 1 0.67032 0.547113 0.500369
52 1 0.816105 0.462106 0.493634
66 1 0.882732 0.499331 0.496557
45 1 0.933839 0.44127 0.500552
24 1 0.0832012 0.640459 0.499995
4 1 0.227962 0.593215 0.501581
79 1 0.777183 0.534093 0.504066
67 1 0.754477 0.652458 0.500888
12 1 0.849366 0.620354 0.505832
57 1 0.974563 0.669082 0.501809
26 1 0.126416 0.765146 0.494648
53 1 0.0217402 0.765659 0.503788
62 1 0.162011 0.685811 0.50056
5 1 0.26389 0.75186 0.498322
15 1 0.370511 0.669257 0.502808
27 1 0.512716 0.69656 0.495713
61 1 0.593112 0.754369 0.502208
16 1 0.657657 0.683574 0.499583
14 1 0.785888 0.763928 0.49582
49 1 0.905826 0.732827 0.50218
50 1 0.0601027 0.856844 0.495576
23 1 0.388793 0.809371 0.500946
10 1 0.521556 0.848701 0.498099
17 1 0.665339 0.854042 0.503611
18 1 0.932178 0.855671 0.502505
22 1 0.0536501 0.936959 0.503667
1 1 0.184073 0.899446 0.496968
25 1 0.308346 0.894797 0.49849
35 1 0.396524 0.982199 0.501814
43 1 0.512029 0.964555 0.503543
9 1 0.788001 0.91345 0.508029
ITEM: TIMESTEP
2250
ITEM: NUMBER OF ATOMS
51
ITEM: BOX BOUNDS pp pp pp
-4.7961083505358131e+00 4.7961083505358131e+00
-4.8093132786636117e+00 4.8093132786636117e+00
-1.0000000000000001e-01 1.0000000000000001e-01
ITEM: ATOMS id type xs ys zs
19 1 0.368447 0.133089 0.495518
31 1 0.473731 0.0722738 0.49776
75 1 0.47166 0.164299 0.504541
42 1 0.524327 0.235217 0.501084
55 1 0.587029 0.183333 0.497564
32 1 0.29991 0.24195 0.501896
33 1 0.432237 0.260971 0.502728
38 1 0.51891 0.348198 0.498937
80 1 0.583239 0.270384 0.499706
39 1 0.676936 0.238281 0.501924
72 1 0.0245706 0.467009 0.498483
30 1 0.0639917 0.401222 0.498529
20 1 0.368223 0.37215 0.499756
13 1 0.787839 0.331324 0.500306
68 1 0.874904 0.388015 0.498635
6 1 0.95007 0.31226 0.500898
37 1 0.968878 0.550142 0.501239
40 1 0.0956823 0.523713 0.503379
2 1 0.370682 0.517995 0.503524
3 1 0.532072 0.490129 0.50424
7 1 0.670922 0.547296 0.4991
52 1 0.817017 0.461274 0.49326
66 1 0.882526 0.499978 0.496605
45 1 0.934196 0.441983 0.499069
24 1 0.0835771 0.640358 0.498552
4 1 0.227444 0.593603 0.502252
79 1 0.777976 0.532693 0.503521
67 1 0.753899 0.652356 0.500189
12 1 0.849156 0.620056 0.504703
57 1 0.975074 0.668854 0.500515
26 1 0.125855 0.765432 0.49482
53 1 0.0213526 0.766038 0.504183
62 1 0.161974 0.686815 0.500698
5 1 0.263645 0.751837 0.501069
15 1 0.370068 0.668784 0.502821
27 1 0.511992 0.697212 0.497885
61 1 0.593112 0.754726 0.504306
16 1 0.657319 0.683604 0.500918
14 1 0.785874 0.76381 0.495472
49 1 0.90568 0.732403 0.501004
50 1 0.0601897 0.85711 0.496081
23 1 0.388298 0.809966 0.500751
10 1 0.520997 0.848501 0.496473
17 1 0.665612 0.854927 0.504817
18 1 0.931931 0.855062 0.501732
22 1 0.052917 0.936501 0.504083
1 1 0.183626 0.899398 0.495732
25 1 0.307966 0.894665 0.500954
35 1 0.39779 0.98187 0.500432
43 1 0.513522 0.964791 0.503174
9 1 0.788408 0.912924 0.509166
ITEM: TIMESTEP
2500
ITEM: NUMBER OF ATOMS
51
ITEM: BOX BOUNDS pp pp pp
-4.7949068375177450e+00 4.7949068375177450e+00
-4.8101061847054654e+00 4.8101061847054654e+00
-1.0000000000000001e-01 1.0000000000000001e-01
ITEM: ATOMS id type xs ys zs
19 1 0.368564 0.133719 0.495499
31 1 0.473407 0.0722056 0.497491
75 1 0.471677 0.165089 0.505669
42 1 0.525265 0.235781 0.501522
55 1 0.587878 0.184171 0.497529
32 1 0.300109 0.242238 0.503058
33 1 0.433211 0.261422 0.503398
38 1 0.519462 0.348568 0.498949
80 1 0.584544 0.271146 0.499077
39 1 0.677944 0.238864 0.500208
72 1 0.0247225 0.467327 0.498782
30 1 0.0640289 0.401342 0.498198
20 1 0.368416 0.372726 0.501554
13 1 0.787101 0.333241 0.500546
68 1 0.875677 0.387021 0.499068
6 1 0.949871 0.311691 0.500846
37 1 0.968624 0.550136 0.500575
40 1 0.0955162 0.52373 0.505848
2 1 0.370677 0.518576 0.505034
3 1 0.531544 0.490663 0.503223
7 1 0.670279 0.546616 0.499429
52 1 0.81653 0.462154 0.49302
66 1 0.883076 0.499686 0.496467
45 1 0.933927 0.441617 0.49954
24 1 0.0828327 0.640324 0.498767
4 1 0.227229 0.593149 0.501647
79 1 0.777804 0.533501 0.50354
67 1 0.753589 0.652343 0.498768
12 1 0.848706 0.61987 0.503973
57 1 0.974237 0.669346 0.500366
26 1 0.125895 0.764895 0.494164
53 1 0.0211488 0.765547 0.503252
62 1 0.161524 0.685807 0.5
5 1 0.26365 0.751935 0.500477
15 1 0.36997 0.669434 0.502698
27 1 0.512242 0.69688 0.497963
61 1 0.593463 0.754742 0.504515
16 1 0.656738 0.682681 0.501532
14 1 0.784549 0.763662 0.495233
49 1 0.904557 0.732542 0.50127
50 1 0.0597504 0.856847 0.496216
23 1 0.38858 0.810007 0.499509
10 1 0.521288 0.848716 0.496305
17 1 0.665278 0.856096 0.504358
18 1 0.931035 0.854481 0.499863
22 1 0.0522666 0.936623 0.503252
1 1 0.183154 0.899325 0.493797
25 1 0.307272 0.895435 0.501635
35 1 0.397702 0.981602 0.499486
43 1 0.512854 0.965137 0.503609
9 1 0.787768 0.913879 0.509583
ITEM: TIMESTEP
2750
ITEM: NUMBER OF ATOMS
51
ITEM: BOX BOUNDS pp pp pp
-4.7937053244996761e+00 4.7937053244996761e+00
-4.8051668786075048e+00 4.8051668786075048e+00
-1.0000000000000001e-01 1.0000000000000001e-01
ITEM: ATOMS id type xs ys zs
19 1 0.3678 0.132424 0.494027
31 1 0.473161 0.0718316 0.495575
75 1 0.47098 0.164122 0.504411
42 1 0.524321 0.234535 0.50228
55 1 0.586915 0.182934 0.498619
32 1 0.300162 0.241541 0.503228
33 1 0.43201 0.260862 0.504196
38 1 0.518871 0.347682 0.50087
80 1 0.58354 0.270041 0.499033
39 1 0.677163 0.237933 0.500612
72 1 0.0250263 0.466565 0.498155
30 1 0.0641349 0.400608 0.496571
20 1 0.368845 0.37266 0.501464
13 1 0.787894 0.332025 0.501723
68 1 0.875609 0.386892 0.498945
6 1 0.950072 0.310586 0.499843
37 1 0.969732 0.549877 0.50125
40 1 0.095918 0.522983 0.505998
2 1 0.368763 0.518046 0.504486
3 1 0.530262 0.489569 0.504457
7 1 0.668733 0.546765 0.499276
52 1 0.815838 0.461864 0.492038
66 1 0.883251 0.498482 0.497004
45 1 0.934942 0.440685 0.499018
24 1 0.0831927 0.639986 0.499858
4 1 0.227406 0.592659 0.503684
79 1 0.776078 0.532891 0.504069
67 1 0.754069 0.652391 0.499737
12 1 0.849116 0.619527 0.50317
57 1 0.974981 0.669133 0.498766
26 1 0.125659 0.764875 0.494673
53 1 0.0204556 0.765584 0.503011
62 1 0.161891 0.685672 0.49863
5 1 0.263029 0.751345 0.499736
15 1 0.369905 0.668939 0.503265
27 1 0.511833 0.698076 0.49818
61 1 0.59386 0.755353 0.504819
16 1 0.657037 0.682827 0.503294
14 1 0.785816 0.763816 0.493637
49 1 0.905388 0.73211 0.501621
50 1 0.0594377 0.856557 0.496181
23 1 0.388693 0.809808 0.499665
10 1 0.521358 0.84812 0.497323
17 1 0.66561 0.854342 0.502604
18 1 0.931251 0.855048 0.499353
22 1 0.0526682 0.9367 0.502502
1 1 0.183326 0.899334 0.492857
25 1 0.307526 0.89463 0.503156
35 1 0.398217 0.980172 0.49992
43 1 0.514078 0.964415 0.501843
9 1 0.788084 0.913687 0.507298
ITEM: TIMESTEP
3000
ITEM: NUMBER OF ATOMS
51
ITEM: BOX BOUNDS pp pp pp
-4.7925038114816081e+00 4.7925038114816081e+00
-4.8014983835185543e+00 4.8014983835185543e+00
-1.0000000000000001e-01 1.0000000000000001e-01
ITEM: ATOMS id type xs ys zs
19 1 0.367521 0.132228 0.496543
31 1 0.472723 0.0714978 0.497654
75 1 0.4706 0.163951 0.505092
42 1 0.524744 0.234795 0.501785
55 1 0.58746 0.182868 0.497806
32 1 0.300001 0.241662 0.503924
33 1 0.43187 0.26035 0.505218
38 1 0.518828 0.347368 0.500763
80 1 0.583776 0.270127 0.499346
39 1 0.676955 0.238239 0.502087
72 1 0.0251506 0.46627 0.498481
30 1 0.0640871 0.400587 0.495831
20 1 0.368619 0.371767 0.500796
13 1 0.787404 0.331984 0.50117
68 1 0.875298 0.387119 0.496037
6 1 0.950154 0.311741 0.500228
37 1 0.96898 0.549652 0.501945
40 1 0.0954768 0.523587 0.505309
2 1 0.369006 0.517278 0.502663
3 1 0.530386 0.490013 0.504547
7 1 0.669167 0.54598 0.498718
52 1 0.815668 0.462159 0.48998
66 1 0.882552 0.499327 0.497269
45 1 0.933941 0.441525 0.49667
24 1 0.0828439 0.640976 0.499663
4 1 0.226809 0.592566 0.504953
79 1 0.776166 0.533568 0.506362
67 1 0.75382 0.652042 0.498596
12 1 0.84876 0.619552 0.503347
57 1 0.974036 0.668662 0.497686
26 1 0.125316 0.765549 0.493848
53 1 0.0202628 0.765467 0.500509
62 1 0.162024 0.686688 0.498964
5 1 0.263039 0.751173 0.500259
15 1 0.370047 0.668537 0.50155
27 1 0.511709 0.698023 0.501343
61 1 0.594091 0.754598 0.506268
16 1 0.656304 0.681923 0.504939
14 1 0.78516 0.763428 0.494071
49 1 0.905089 0.732471 0.501716
50 1 0.0587931 0.856586 0.495046
23 1 0.388691 0.808717 0.499474
10 1 0.52181 0.848169 0.499124
17 1 0.665746 0.85405 0.502053
18 1 0.930469 0.855193 0.500681
22 1 0.0514891 0.936525 0.502096
1 1 0.182804 0.899642 0.493255
25 1 0.30695 0.894007 0.503652
35 1 0.397357 0.979988 0.499596
43 1 0.512373 0.964073 0.502378
9 1 0.787429 0.914559 0.507935
ITEM: TIMESTEP
3250
ITEM: NUMBER OF ATOMS
51
ITEM: BOX BOUNDS pp pp pp
-4.7913022984635401e+00 4.7913022984635401e+00
-4.8105181988190813e+00 4.8105181988190813e+00
-1.0000000000000001e-01 1.0000000000000001e-01
ITEM: ATOMS id type xs ys zs
19 1 0.366849 0.13171 0.496301
31 1 0.472653 0.0713252 0.498124
75 1 0.469677 0.163839 0.50541
42 1 0.523816 0.233839 0.503385
55 1 0.586921 0.182358 0.49684
32 1 0.29943 0.241124 0.504235
33 1 0.431368 0.259979 0.504137
38 1 0.517672 0.346885 0.501429
80 1 0.582324 0.269967 0.497804
39 1 0.675834 0.23898 0.500274
72 1 0.024324 0.466377 0.498765
30 1 0.0634736 0.400495 0.495265
20 1 0.368312 0.372052 0.500144
13 1 0.787045 0.332033 0.502494
68 1 0.875044 0.386768 0.495356
6 1 0.949791 0.311298 0.499081
37 1 0.968349 0.549497 0.500247
40 1 0.0948601 0.523259 0.50494
2 1 0.370185 0.517432 0.503826
3 1 0.531509 0.488839 0.505295
7 1 0.669601 0.546931 0.499407
52 1 0.814916 0.462008 0.48995
66 1 0.881841 0.498934 0.496364
45 1 0.933605 0.441225 0.495704
24 1 0.0822091 0.640057 0.501029
4 1 0.227118 0.592566 0.506415
79 1 0.776437 0.533205 0.505865
67 1 0.75374 0.652542 0.499048
12 1 0.848396 0.619243 0.503229
57 1 0.97374 0.668325 0.49827
26 1 0.124874 0.76548 0.493564
53 1 0.0203093 0.765944 0.500379
62 1 0.161226 0.686345 0.500847
5 1 0.262749 0.751572 0.499353
15 1 0.369862 0.668394 0.499499
27 1 0.511847 0.698401 0.500535
61 1 0.593839 0.754789 0.5068
16 1 0.656849 0.682965 0.504543
14 1 0.785214 0.763997 0.493817
49 1 0.904604 0.731819 0.501379
50 1 0.058343 0.856919 0.493878
23 1 0.387247 0.808733 0.50232
10 1 0.519825 0.847374 0.495914
17 1 0.664041 0.854994 0.50302
18 1 0.930115 0.854501 0.500285
22 1 0.0509319 0.936972 0.502816
1 1 0.182624 0.899487 0.493553
25 1 0.306687 0.894478 0.50221
35 1 0.398246 0.978939 0.498937
43 1 0.513737 0.964006 0.501225
9 1 0.787298 0.91316 0.506549
ITEM: TIMESTEP
3500
ITEM: NUMBER OF ATOMS
51
ITEM: BOX BOUNDS pp pp pp
-4.7901007854454711e+00 4.7901007854454711e+00
-4.8028058105568991e+00 4.8028058105568991e+00
-1.0000000000000001e-01 1.0000000000000001e-01
ITEM: ATOMS id type xs ys zs
19 1 0.366384 0.131476 0.49684
31 1 0.471322 0.0719126 0.496682
75 1 0.46978 0.164266 0.507154
42 1 0.522745 0.234846 0.502138
55 1 0.585634 0.183096 0.498098
32 1 0.298645 0.240237 0.505219
33 1 0.430354 0.26041 0.503861
38 1 0.517242 0.347221 0.503053
80 1 0.581839 0.270319 0.495741
39 1 0.675546 0.237987 0.501333
72 1 0.0233368 0.466445 0.500254
30 1 0.0639659 0.401001 0.496281
20 1 0.366637 0.372062 0.500213
13 1 0.785828 0.332019 0.503508
68 1 0.873969 0.387183 0.495702
6 1 0.949279 0.312024 0.501352
37 1 0.968166 0.550081 0.49999
40 1 0.0946674 0.523199 0.50536
2 1 0.369492 0.517706 0.503547
3 1 0.53014 0.489891 0.504694
7 1 0.668994 0.546327 0.499779
52 1 0.816374 0.461415 0.489863
66 1 0.882059 0.500187 0.497859
45 1 0.933155 0.441669 0.497246
24 1 0.082096 0.640151 0.500869
4 1 0.226455 0.592562 0.507569
79 1 0.776504 0.5326 0.50571
67 1 0.752888 0.652115 0.499774
12 1 0.84783 0.619907 0.50493
57 1 0.973148 0.668599 0.497404
26 1 0.125251 0.765471 0.493351
53 1 0.0205446 0.765595 0.49969
62 1 0.161168 0.686404 0.501573
5 1 0.263011 0.751396 0.497953
15 1 0.369405 0.668637 0.498648
27 1 0.511415 0.699061 0.501509
61 1 0.594035 0.75543 0.507724
16 1 0.656018 0.682361 0.505789
14 1 0.784255 0.763591 0.496472
49 1 0.903868 0.732626 0.500158
50 1 0.0591121 0.856667 0.493585
23 1 0.388218 0.809756 0.501191
10 1 0.519878 0.848386 0.497581
17 1 0.664044 0.85548 0.503637
18 1 0.930647 0.855352 0.500763
22 1 0.0519919 0.936645 0.502151
1 1 0.183044 0.899013 0.4932
25 1 0.307628 0.895184 0.502029
35 1 0.396413 0.980743 0.499977
43 1 0.512067 0.964589 0.500256
9 1 0.78679 0.913647 0.505409
ITEM: TIMESTEP
3750
ITEM: NUMBER OF ATOMS
51
ITEM: BOX BOUNDS pp pp pp
-4.7888992724274031e+00 4.7888992724274031e+00
-4.8098018194433818e+00 4.8098018194433818e+00
-1.0000000000000001e-01 1.0000000000000001e-01
ITEM: ATOMS id type xs ys zs
19 1 0.366935 0.132825 0.495785
31 1 0.472734 0.0721136 0.495397
75 1 0.470644 0.164682 0.505863
42 1 0.523249 0.235392 0.504787
55 1 0.585373 0.183302 0.495546
32 1 0.298489 0.241351 0.506271
33 1 0.430854 0.261066 0.504461
38 1 0.517853 0.348015 0.5048
80 1 0.582227 0.270577 0.496537
39 1 0.675607 0.238346 0.500535
72 1 0.0232693 0.466086 0.500852
30 1 0.0637483 0.400733 0.49483
20 1 0.36555 0.371844 0.498532
13 1 0.786028 0.33169 0.501445
68 1 0.873805 0.386622 0.494746
6 1 0.949123 0.311285 0.503064
37 1 0.967908 0.549718 0.501219
40 1 0.0947602 0.522786 0.50571
2 1 0.369232 0.516593 0.502662
3 1 0.530221 0.490257 0.503707
7 1 0.669234 0.54606 0.499804
52 1 0.815518 0.461645 0.490303
66 1 0.881188 0.499968 0.496806
45 1 0.932241 0.441245 0.497025
24 1 0.0822243 0.639541 0.502746
4 1 0.226909 0.591956 0.505479
79 1 0.776027 0.532784 0.503709
67 1 0.753235 0.652892 0.50084
12 1 0.84792 0.619893 0.504682
57 1 0.973536 0.668721 0.497908
26 1 0.125088 0.764466 0.492904
53 1 0.020471 0.765638 0.501395
62 1 0.160942 0.685522 0.500784
5 1 0.262968 0.749821 0.497042
15 1 0.369469 0.667285 0.498338
27 1 0.510881 0.701042 0.501477
61 1 0.593357 0.75578 0.507266
16 1 0.655682 0.682243 0.505948
14 1 0.784651 0.76409 0.495927
49 1 0.904476 0.732742 0.49831
50 1 0.058775 0.85626 0.491199
23 1 0.387482 0.80756 0.499377
10 1 0.519828 0.847955 0.499273
17 1 0.664211 0.855015 0.504115
18 1 0.930628 0.855316 0.499948
22 1 0.052509 0.9363 0.502774
1 1 0.183083 0.898377 0.49482
25 1 0.30758 0.89478 0.502045
35 1 0.397282 0.980725 0.500371
43 1 0.512572 0.964495 0.499013
9 1 0.787197 0.914173 0.506282
ITEM: TIMESTEP
4000
ITEM: NUMBER OF ATOMS
51
ITEM: BOX BOUNDS pp pp pp
-4.7876977594093351e+00 4.7876977594093351e+00
-4.8110087292054775e+00 4.8110087292054775e+00
-1.0000000000000001e-01 1.0000000000000001e-01
ITEM: ATOMS id type xs ys zs
19 1 0.367722 0.131422 0.496259
31 1 0.473834 0.0721026 0.495118
75 1 0.470222 0.164091 0.506022
42 1 0.52314 0.234608 0.50667
55 1 0.585956 0.1834 0.4949
32 1 0.299021 0.240605 0.505306
33 1 0.430721 0.260143 0.504509
38 1 0.517075 0.347305 0.505618
80 1 0.582218 0.270354 0.496322
39 1 0.675987 0.238198 0.501003
72 1 0.0238808 0.465937 0.50048
30 1 0.0634497 0.400181 0.493413
20 1 0.366096 0.371334 0.499214
13 1 0.7858 0.331544 0.50249
68 1 0.873893 0.386785 0.494725
6 1 0.948827 0.311098 0.50206
37 1 0.967503 0.548606 0.500241
40 1 0.0943527 0.523024 0.505261
2 1 0.36876 0.517187 0.503279
3 1 0.53017 0.489837 0.502675
7 1 0.668711 0.546987 0.499158
52 1 0.814349 0.460999 0.488696
66 1 0.88116 0.498464 0.495378
45 1 0.932858 0.440869 0.495934
24 1 0.0829629 0.639513 0.50259
4 1 0.226364 0.592886 0.504931
79 1 0.776478 0.533513 0.502992
67 1 0.753113 0.652511 0.500475
12 1 0.848271 0.619649 0.5031
57 1 0.974243 0.667094 0.497057
26 1 0.125383 0.764514 0.492415
53 1 0.0205156 0.765533 0.502815
62 1 0.161368 0.685886 0.500371
5 1 0.263146 0.750786 0.497564
15 1 0.369874 0.668522 0.498499
27 1 0.511451 0.699276 0.503274
61 1 0.593742 0.755646 0.505338
16 1 0.656187 0.682821 0.506701
14 1 0.785202 0.763937 0.495646
49 1 0.905539 0.731943 0.498942
50 1 0.0596506 0.856302 0.491211
23 1 0.38829 0.809639 0.498972
10 1 0.520458 0.848862 0.499747
17 1 0.664755 0.854018 0.503954
18 1 0.931006 0.854688 0.500073
22 1 0.0521044 0.93644 0.503944
1 1 0.183272 0.898742 0.49696
25 1 0.307481 0.895129 0.502837
35 1 0.398221 0.980968 0.5005
43 1 0.513895 0.964928 0.501699
9 1 0.787607 0.913709 0.504802
ITEM: TIMESTEP
4250
ITEM: NUMBER OF ATOMS
51
ITEM: BOX BOUNDS pp pp pp
-4.7864962463912661e+00 4.7864962463912661e+00
-4.8097749406673724e+00 4.8097749406673724e+00
-1.0000000000000001e-01 1.0000000000000001e-01
ITEM: ATOMS id type xs ys zs
19 1 0.367716 0.131264 0.498067
31 1 0.47361 0.0718473 0.495268
75 1 0.470247 0.164377 0.505704