LAMMPS (23 Jun 2022 - Update 4)
  using 1 OpenMP thread(s) per MPI task
# Compute elastic constant tensor for a crystal
#
# Written by Aidan Thompson (Sandia, athomps@sandia.gov)
#
#  This script uses the following three include files.
#
#   init.mod      (must be modified for different crystal structures)
# 	       	  Define units, deformation parameters and initial
#		  configuration of the atoms and simulation cell.
#
#
#   potential.mod    (must be modified for different pair styles)
# 		     Define pair style and other attributes
#		     not stored in restart file
#
#
#   displace.mod    (displace.mod should not need to be modified)
# 		    Perform positive and negative box displacements
# 		    in direction ${dir} and size ${up}.
# 		    It uses the resultant changes
#		    in stress to compute one
# 		    row of the elastic stiffness tensor
#
#		    Inputs variables:
#		    	   dir = the Voigt deformation component
#		    		    (1,2,3,4,5,6)
#		    Global constants:
#       	    	   up = the deformation magnitude (strain units)
#       		   cfac = conversion from LAMMPS pressure units to
#               	   output units for elastic constants
#
#
#  To run this on a different system, it should only be necessary to
#  modify the files init.mod and potential.mod. In order to calculate
#  the elastic constants correctly, care must be taken to specify
#  the correct units in init.mod (units, cfac and cunits). It is also
#  important to verify that the minimization of energy w.r.t atom
#  positions in the deformed cell is fully converged.
#  One indication of this is that the elastic constants are insensitive
#  to the choice of the variable ${up} in init.mod. Another is to check
#  the final max and two-norm forces reported in the log file. If you know
#  that minimization is not required, you can set maxiter = 0.0 in
#  init.mod.
#



variable dt equal 0.01
variable strain equal 0.05
variable srate equal 1e-4
variable M equal 1000 # averaging time for properties
variable strainsteps equal ${strain}/${dt}/${srate}
variable strainsteps equal 0.05/${dt}/${srate}
variable strainsteps equal 0.05/0.01/${srate}
variable strainsteps equal 0.05/0.01/0.0001


dimension 2
include init.mod
# NOTE: This script can be modified for different atomic structures,
# units, etc. See in.elastic for more info.
#

# Define the finite deformation size. Try several values of this
# variable to verify that results do not depend on it.
variable up equal 1.0e-1

# Define the amount of random jiggle for atoms
# This prevents atoms from staying on saddle points
variable atomjiggle equal 1.0e-6

# Uncomment one of these blocks, depending on what units
# you are using in LAMMPS and for output

# metal units, elastic constants in eV/A^3
#units		metal
#variable cfac equal 6.2414e-7
#variable cunits string eV/A^3

# Choose potential
# metal units, elastic constants in GPa
units		metal
atom_style	full
#pair_style      lj/cut 1.0
#pair_style      yukawa 1.0 2.0
#pair_modify     mix arithmetic
bond_style      harmonic
angle_style     harmonic
dihedral_style  zero
special_bonds   amber
variable cfac equal 1.0e-4
variable cunits string GPa
boundary	p p p

# Need to set mass to something, just to satisfy LAMMPS
#mass 1 1.0e-20
read_data network.lmp
Reading data file ...
  orthogonal box = (-4.806051 -4.806051 -0.1) to (4.806051 4.806051 0.1)
  1 by 1 by 1 MPI processor grid
WARNING: Atom style in data file differs from currently defined atom style (src/read_data.cpp:538)
  reading atoms ...
  51 atoms
WARNING: Bond style in data file differs from currently defined bond style (src/read_data.cpp:630)
  scanning bonds ...
  6 = max bonds/atom
  reading bonds ...
  108 bonds
Finding 1-2 1-3 1-4 neighbors ...
  special bond factors lj:    0        0        0.5     
  special bond factors coul:  0        0        0.8333333333333334
     8 = max # of 1-2 neighbors
    30 = max # of 1-3 neighbors
   154 = max # of 1-4 neighbors
    31 = max # of special neighbors
  special bonds CPU = 0.000 seconds
  read_data CPU = 0.003 seconds

# real units, elastic constants in GPa
#units		real
#variable cfac equal 1.01325e-4
#variable cunits string GPa

# Define minimization parameters
variable etol equal 0.0
variable ftol equal 5.0e-10
variable maxiter equal 100000
variable maxeval equal 20000
variable dmax equal 1.0e-2


include potential.mod
# NOTE: This script can be modified for different pair styles
# See in.elastic for more info.

# Setup neighbor style
neighbor 3.0 nsq
neigh_modify once no every 1 delay 0 check yes
comm_modify cutoff 2.0

# Setup minimization style
min_style	     cg
min_modify	     dmax ${dmax} line quadratic
min_modify	     dmax 0.01 line quadratic

timestep	0.001


# Setup output
thermo		500
thermo_style custom step temp pe ebond eangle edihed press pxx pyy pzz pxy pxz pyz lx ly lz vol
thermo_modify norm no


#change_box all triclinic
comm_modify mode single cutoff 10.0 vel yes
atom_modify sort 0 0



# Compute initial state

#dump rela all atom 1 traj_relax.lmpstrj
fix 3 all box/relax x 0 y 0 # xy 0  #MS comment: relax if the network is periodic
minimize ${etol} ${ftol} ${maxiter} ${maxeval}
minimize 0 ${ftol} ${maxiter} ${maxeval}
minimize 0 5e-10 ${maxiter} ${maxeval}
minimize 0 5e-10 100000 ${maxeval}
minimize 0 5e-10 100000 20000
Neighbor list info ...
  update every 1 steps, delay 0 steps, check yes
  max neighbors/atom: 2000, page size: 100000
  master list distance cutoff = 0
  ghost atom cutoff = 10
  0 neighbor lists, perpetual/occasional/extra = 0 0 0
WARNING: Inconsistent image flags (src/domain.cpp:819)
Per MPI rank memory allocation (min/avg/max) = 9.022 | 9.022 | 9.022 Mbytes
   Step          Temp          PotEng         E_bond        E_angle        E_dihed         Press           Pxx            Pyy            Pzz            Pxy            Pxz            Pyz             Lx             Ly             Lz           Volume    
         0   0              3.2654919e-11  3.2654919e-11  0              0              0.31108727     0.39027974     0.23189479     0             -0.10901564     0              0              9.612102       9.612102       0.2            92.392505    
       181   0              7.5062417e-14  7.5062417e-14  0              0             -1.2496748e-07 -2.7783662e-07  2.7901648e-08  0              7.5348128e-06  0              0              9.6121041      9.6121012      0.2            92.392518    
Loop time of 0.0095657 on 1 procs for 181 steps with 51 atoms

100.0% CPU use with 1 MPI tasks x 1 OpenMP threads

Minimization stats:
  Stopping criterion = force tolerance
  Energy initial, next-to-last, final = 
    3.26549187201116e-11 7.50624482880956e-14 7.50624166839146e-14
  Force two-norm initial, final = 3.3261439e-05 3.9334753e-10
  Force max component initial, final = 2.2506212e-05 1.217179e-10
  Final line search alpha, max atom move = 1 1.217179e-10
  Iterations, force evaluations = 181 362

MPI task timing breakdown:
Section |  min time  |  avg time  |  max time  |%varavg| %total
---------------------------------------------------------------
Pair    | 0          | 0          | 0          |   0.0 |  0.00
Bond    | 0.0013017  | 0.0013017  | 0.0013017  |   0.0 | 13.61
Neigh   | 0          | 0          | 0          |   0.0 |  0.00
Comm    | 0.0028373  | 0.0028373  | 0.0028373  |   0.0 | 29.66
Output  | 0          | 0          | 0          |   0.0 |  0.00
Modify  | 0          | 0          | 0          |   0.0 |  0.00
Other   |            | 0.005427   |            |       | 56.73

Nlocal:             51 ave          51 max          51 min
Histogram: 1 0 0 0 0 0 0 0 0 0
Nghost:            426 ave         426 max         426 min
Histogram: 1 0 0 0 0 0 0 0 0 0
Neighs:              0 ave           0 max           0 min
Histogram: 1 0 0 0 0 0 0 0 0 0

Total # of neighbors = 0
Ave neighs/atom = 0
Ave special neighs/atom = 21.529412
Neighbor list builds = 0
Dangerous builds = 0
#dump rela all atom 1 traj_relax.lmpstrj
thermo 100
unfix 3

fix 2d all enforce2d



#dump dump0 all xyz 1000000 cfg0.xyz
#dump_modify dump0 format line "%d %20.10g %20.10g %20.10g"
#minimize ${etol} ${ftol} ${maxiter} ${maxeval}

#undump rela

#write_restart restart.equil

# These formulas define the derivatives w.r.t. strain components
# Constants uses $, variables use v_


timestep        ${dt}
timestep        0.01
variable nsteps equal round(${strainsteps})
variable nsteps equal round(50000)

fix             4 all nve
fix             5 all langevin 0.1 0.1 1 904297
#fix		6 all press/berendsen y  0.0 0.0 1 x 0.0 0.0 10
fix             6 all nph y 0.0 0.0 10 ptemp 0.1 # x 0.0 0.0 10

# For PLUMED2
# fix 22 all plumed plumedfile plumed.dat outfile plumed.out

#fix             6 all nph x 0.0 0.0 10
fix     	9 all deform 1 x erate -${srate} units box remap x
fix     	9 all deform 1 x erate -0.0001 units box remap x

#fix     8 all deform 1 xy erate ${srate} units box remap x



#fix    10 all ave/time

dump 1 all atom 250 deform_dump.lammpstrj


#To avoid flying ice cube phenomenon:
#fix 21 all momentum 100 linear 1 1 1 angular


run  ${nsteps}
run  50000
WARNING: One or more atoms are time integrated more than once (src/modify.cpp:292)
WARNING: Inconsistent image flags (src/domain.cpp:819)
Per MPI rank memory allocation (min/avg/max) = 7.897 | 7.897 | 7.897 Mbytes
   Step          Temp          PotEng         E_bond        E_angle        E_dihed         Press           Pxx            Pyy            Pzz            Pxy            Pxz            Pyz             Lx             Ly             Lz           Volume    
       181   0              7.5062417e-14  7.5062417e-14  0              0             -1.2496748e-07 -2.7783662e-07  2.7901648e-08  0              7.5348128e-06  0              0              9.6121041      9.6121012      0.2            92.392518    
       200   0.10422412     6.0477782e-05  6.0477782e-05  0              0              11.745456     -25.160657      48.531346      0              68.605951      0              0              9.6119215      9.6126762      0.2            92.396289    
       300   0.1516635      0.00070678536  0.00070678536  0              0              196.98245      382.41604      11.403761      0             -282.66141      0              0              9.6109603      9.6113308      0.2            92.374119    
       400   0.18323699     0.0008170881   0.0008170881   0              0              200.62054      498.18004     -97.084423      0              488.16332      0              0              9.6099991      9.617792       0.2            92.426972    
       500   0.19839233     0.00088768522  0.00088768522  0              0              403.20693      811.95878     -5.6989968      0              189.57721      0              0              9.6090379      9.6170438      0.2            92.410538    
       600   0.19457873     0.00089151011  0.00089151011  0              0              150.17644      219.0046       81.182285      0             -32.781508      0              0              9.6080767      9.6141518      0.2            92.373507    
       700   0.18141995     0.00097551401  0.00097551401  0              0              252.73109      681.40278     -176.10421      0             -255.33676      0              0              9.6071155      9.6144265      0.2            92.366905    
       800   0.19722601     0.00084433517  0.00084433517  0              0              302.88224      478.40563      127.19898      0             -304.13748      0              0              9.6061543      9.6160913      0.2            92.373656    
       900   0.19948457     0.0011154477   0.0011154477   0              0             -71.87996      -96.645191     -47.258243      0             -350.91571      0              0              9.605193       9.6153965      0.2            92.357739    
      1000   0.19130645     0.0011011918   0.0011011918   0              0              173.14171      532.63794     -186.49471      0             -695.25         0              0              9.6042318      9.6158658      0.2            92.353004    
      1100   0.16731034     0.0007261396   0.0007261396   0              0              354.85392      319.51847      390.0232       0              162.11896      0              0              9.6032706      9.6114353      0.2            92.301215    
      1200   0.17684805     0.00079011503  0.00079011503  0              0             -164.07631     -39.276455     -289.00356      0             -646.6805       0              0              9.6023094      9.6106074      0.2            92.284026    
      1300   0.22286438     0.00096682983  0.00096682983  0              0              340.78384      731.44538     -50.014346      0             -264.79397      0              0              9.6013482      9.6015756      0.2            92.188071    
      1400   0.21400842     0.00083796911  0.00083796911  0              0              547.34687      725.06463      369.46874      0              58.730917      0              0              9.600387       9.5988872      0.2            92.153032    
      1500   0.21141501     0.00073842918  0.00073842918  0              0              174.93771      914.92183     -565.20909      0              143.17497      0              0              9.5994258      9.6130915      0.2            92.280158    
      1600   0.21955407     0.00084814828  0.00084814828  0              0              634.19034      908.04937      360.19832      0             -386.43266      0              0              9.5984646      9.6023911      0.2            92.168211    
      1700   0.22704698     0.00082881618  0.00082881618  0              0             -32.500044     -93.968996      28.808149      0              637.32484      0              0              9.5975034      9.6179928      0.2            92.308718    
      1800   0.22423914     0.00078064991  0.00078064991  0              0             -470.52686     -482.32492     -458.87657      0              17.319038      0              0              9.5965421      9.6191202      0.2            92.310293    
      1900   0.20595981     0.00070511239  0.00070511239  0              0              385.74159     -55.859975      827.18308      0              189.16568      0              0              9.5955809      9.616207       0.2            92.273092    
      2000   0.17722783     0.00078434733  0.00078434733  0              0             -271.85677      86.647497     -630.52252      0              787.55296      0              0              9.5946197      9.6214171      0.2            92.313838    
      2100   0.20623652     0.00083471932  0.00083471932  0              0             -161.80405     -316.96615     -6.8250218      0              227.86083      0              0              9.5936585      9.6310386      0.2            92.396895    
      2200   0.19348828     0.00083880593  0.00083880593  0              0              497.24393      155.218        839.10978      0             -211.49285      0              0              9.5926973      9.6204357      0.2            92.285928    
      2300   0.20626621     0.0007678594   0.0007678594   0              0             -433.08988      253.72418     -1120.0164      0              293.03978      0              0              9.5917361      9.6265406      0.2            92.335237    
      2400   0.22818231     0.00076971684  0.00076971684  0              0              779.80117      763.61655      795.8292       0              216.04605      0              0              9.5907749      9.613189       0.2            92.197931    
      2500   0.21148343     0.00080975913  0.00080975913  0              0              158.14683      175.25387      140.86188      0              255.44647      0              0              9.5898137      9.6202124      0.2            92.256044    
      2600   0.24932311     0.00076837397  0.00076837397  0              0             -553.22829     -133.07523     -973.5374       0              19.912416      0              0              9.5888525      9.6075544      0.2            92.125422    
      2700   0.23441961     0.00066655203  0.00066655203  0              0              1458.5895      1691.6416      1225.3955      0             -175.41475      0              0              9.5878913      9.5975253      0.2            92.020029    
      2800   0.22994397     0.00070182038  0.00070182038  0              0             -608.80588     -447.20814     -770.53796      0             -251.21785      0              0              9.58693        9.6133008      0.2            92.162042    
      2900   0.21248596     0.00093780339  0.00093780339  0              0             -98.819249      74.73853      -272.49828      0             -300.215        0              0              9.5859688      9.6169195      0.2            92.187491    
      3000   0.17233998     0.0008020224   0.0008020224   0              0              1093.871       1218.8811      968.67818      0             -149.18764      0              0              9.5850076      9.6029968      0.2            92.044797    
      3100   0.17109366     0.00086574773  0.00086574773  0              0             -860.37701     -702.46482     -1018.4018      0             -111.43728      0              0              9.5840464      9.6225199      0.2            92.222677    
      3200   0.2116518      0.00092497295  0.00092497295  0              0              900.21441      1291.4219      508.82532      0              398.19006      0              0              9.5830852      9.6069774      0.2            92.064483    
      3300   0.19208109     0.00082337006  0.00082337006  0              0              924.29165      1611.5861      236.85276      0              391.73523      0              0              9.582124       9.6136981      0.2            92.119647    
      3400   0.19703565     0.0010014955   0.0010014955   0              0              31.602509      910.11801     -847.0703       0              115.59858      0              0              9.5811628      9.6196433      0.2            92.167368    
      3500   0.17391494     0.00089840807  0.00089840807  0              0              943.11285      1021.1076      864.96862      0              222.00358      0              0              9.5802016      9.6056116      0.2            92.023696    
      3600   0.1678014      0.00086488704  0.00086488704  0              0              124.46155      594.05563     -345.29069      0             -611.34023      0              0              9.5792404      9.6160234      0.2            92.1142      
      3700   0.25282806     0.00064682806  0.00064682806  0              0              45.720568      449.51117     -358.2276       0              234.8203       0              0              9.5782792      9.6196018      0.2            92.139231    
      3800   0.1908287      0.0008171677   0.0008171677   0              0              1022.7403      1246.2252      799.09298      0              205.52235      0              0              9.5773179      9.6131079      0.2            92.067791    
      3900   0.18974024     0.00066820864  0.00066820864  0              0             -257.74986      236.57434     -752.22164      0              208.96437      0              0              9.5763567      9.6205756      0.2            92.130064    
      4000   0.18329147     0.00069608764  0.00069608764  0              0              549.77524      873.6367       225.78738      0              10.07384       0              0              9.5753955      9.6220175      0.2            92.134623    
      4100   0.214763       0.00096617195  0.00096617195  0              0              936.77329      1424.3036      449.09704      0             -10.578232      0              0              9.5744343      9.6201568      0.2            92.107559    
      4200   0.22247923     0.00096683345  0.00096683345  0              0             -15.162381      686.87245     -717.33222      0             -677.17901      0              0              9.5734731      9.6300777      0.2            92.19329     
      4300   0.19920443     0.00083017176  0.00083017176  0              0              827.05589      1096.2281      557.72203      0             -673.33404      0              0              9.5725119      9.6100146      0.2            91.991979    
      4400   0.22970121     0.0010874887   0.0010874887   0              0              421.35932      784.11349      58.450778      0             -55.557777      0              0              9.5715507      9.6258344      0.2            92.134162    
      4500   0.22992938     0.00072385619  0.00072385619  0              0              68.374146      652.85843     -516.25152      0              478.98876      0              0              9.5705895      9.6325773      0.2            92.189443    
      4600   0.18762686     0.0009205792   0.0009205792   0              0              421.12113      261.11244      580.97431      0              347.01356      0              0              9.5696283      9.6231662      0.2            92.090123    
      4700   0.2057521      0.0007314434   0.0007314434   0              0              42.879054      458.04631     -372.42313      0              845.68388      0              0              9.568667       9.6311528      0.2            92.157294    
      4800   0.25420139     0.00093035678  0.00093035678  0              0              679.16211      1444.5382     -86.362595      0              512.42693      0              0              9.5677058      9.629505       0.2            92.132271    
      4900   0.18965424     0.00083269491  0.00083269491  0              0              894.12828      1280.1272      507.98323      0             -161.351        0              0              9.5667446      9.6373552      0.2            92.198116    
      5000   0.2485935      0.001040122    0.001040122    0              0              23.903196      686.58493     -638.915        0              124.07684      0              0              9.5657834      9.651829       0.2            92.327306    
      5100   0.17408098     0.0010205662   0.0010205662   0              0              245.0749       140.55064      349.45274      0              845.08693      0              0              9.5648222      9.6444656      0.2            92.247599    
      5200   0.20293239     0.00099413349  0.00099413349  0              0              499.09105      916.47898      81.506441      0             -45.673855      0              0              9.563861       9.6429454      0.2            92.223789    
      5300   0.19322558     0.00096027628  0.00096027628  0              0             -146.22764      186.25626     -478.85999      0             -26.350231      0              0              9.5628998      9.6478477      0.2            92.261401    
      5400   0.21690957     0.0009329806   0.0009329806   0              0              512.87377      445.9984       579.56518      0              314.50441      0              0              9.5619386      9.6384375      0.2            92.162147    
      5500   0.20315935     0.00089743029  0.00089743029  0              0             -116.25231      245.31933     -477.9766       0              598.2936       0              0              9.5609774      9.6538108      0.2            92.299866    
      5600   0.23456739     0.00089553549  0.00089553549  0              0              218.09405      422.12248      13.947834      0              718.51902      0              0              9.5600162      9.6312563      0.2            92.074966    
      5700   0.22884714     0.00099900177  0.00099900177  0              0              780.0394       1080.274       479.66901      0              386.16437      0              0              9.5590549      9.6306822      0.2            92.06022     
      5800   0.2352014      0.0011647193   0.0011647193   0              0              21.05193       620.09114     -578.15445      0              335.09606      0              0              9.5580937      9.6357097      0.2            92.099017    
      5900   0.20749685     0.0014151971   0.0014151971   0              0              733.45376      1292.9778      173.78604      0              166.41764      0              0              9.5571325      9.6492155      0.2            92.218832    
      6000   0.27105699     0.00098363984  0.00098363984  0              0              325.06787      372.75669      277.25986      0              246.48271      0              0              9.5561713      9.6371628      0.2            92.094379    
      6100   0.24823806     0.0010404366   0.0010404366   0              0             -372.95054     -275.59819     -470.44204      0              844.70009      0              0              9.5552101      9.643275       0.2            92.143519    
      6200   0.22542592     0.00085674011  0.00085674011  0              0              765.63554      1067.2804      463.8208       0              132.81758      0              0              9.5542489      9.6432043      0.2            92.133574    
      6300   0.20042807     0.0010331676   0.0010331676   0              0              529.17492      1120.3576     -62.157547      0              536.25334      0              0              9.5532877      9.64908        0.2            92.180437    
      6400   0.14251475     0.0008817525   0.0008817525   0              0             -126.28353      102.78879     -355.5255       0              397.27304      0              0              9.5523265      9.6602557      0.2            92.277916    
      6500   0.30005036     0.00076307813  0.00076307813  0              0              548.21286      602.66885      493.61268      0             -132.47756      0              0              9.5513653      9.6537033      0.2            92.206047    
      6600   0.22123309     0.00084300494  0.00084300494  0              0             -126.83962      31.096106     -284.89064      0              176.37375      0              0              9.550404       9.6558634      0.2            92.217397    
      6700   0.21670708     0.00083874063  0.00083874063  0              0             -108.51939     -100.07186     -117.13728      0              2.3932126      0              0              9.5494428      9.6632656      0.2            92.278803    
      6800   0.23145281     0.00108233     0.00108233     0              0              479.77042      485.19872      474.1413       0              42.615201      0              0              9.5484816      9.6592772      0.2            92.231431    
      6900   0.17736222     0.0010710536   0.0010710536   0              0              228.4455       773.42119     -316.66414      0              677.74827      0              0              9.5475204      9.6578355      0.2            92.208382    
      7000   0.26835206     0.00079848849  0.00079848849  0              0              421.21804      776.51873      65.765493      0              229.48112      0              0              9.5465592      9.6511889      0.2            92.135646    
      7100   0.20735612     0.00077210694  0.00077210694  0              0              428.49461      516.10769      340.72937      0              310.37475      0              0              9.545598       9.6590278      0.2            92.201197    
      7200   0.18199289     0.00087132583  0.00087132583  0              0              152.61609      686.7721      -381.6733       0              650.80482      0              0              9.5446368      9.6636926      0.2            92.236436    
      7300   0.19230525     0.00083641142  0.00083641142  0              0              267.42708      411.98362      122.73452      0              1070.2734      0              0              9.5436756      9.6663019      0.2            92.252049    
      7400   0.21816556     0.00092982919  0.00092982919  0              0              58.369048     -186.63055      303.21862      0              337.28906      0              0              9.5427144      9.6733185      0.2            92.309715    
      7500   0.24411405     0.00079575173  0.00079575173  0              0              246.43915      1011.2961     -518.55648      0             -387.54031      0              0              9.5417532      9.6760882      0.2            92.326845    
      7600   0.20629013     0.00071278592  0.00071278592  0              0              943.76063      1503.3331      384.04892      0              143.49565      0              0              9.5407919      9.6597341      0.2            92.161513    
      7700   0.236405       0.00093539533  0.00093539533  0              0              531.60627      904.33143      158.75473      0              13.533241      0              0              9.5398307      9.6619709      0.2            92.173566    
      7800   0.21583382     0.0011352901   0.0011352901   0              0              394.7916       1250.2775     -460.84326      0              300.13156      0              0              9.5388695      9.6719697      0.2            92.259657    
      7900   0.17739351     0.00096667732  0.00096667732  0              0              619.08977      791.40845      446.66358      0              524.63987      0              0              9.5379083      9.6712345      0.2            92.243348    
      8000   0.21785555     0.00095172388  0.00095172388  0              0              150.64352      363.29534     -62.159873      0              412.85335      0              0              9.5369471      9.6778531      0.2            92.297173    
      8100   0.22139867     0.00082297816  0.00082297816  0              0             -297.67675     -245.31332     -350.17203      0              513.08921      0              0              9.5359859      9.6767552      0.2            92.277401    
      8200   0.2301988      0.0010205288   0.0010205288   0              0              229.64067      39.922481      419.18326      0              187.48826      0              0              9.5350247      9.669123       0.2            92.195327    
      8300   0.15641446     0.00094599707  0.00094599707  0              0             -43.967948      54.758232     -142.83223      0              207.04821      0              0              9.5340635      9.6678947      0.2            92.174321    
      8400   0.18430101     0.00076432684  0.00076432684  0              0              282.09905      772.91408     -208.86598      0              429.82797      0              0              9.5331023      9.6760924      0.2            92.243179    
      8500   0.22094472     0.00077177729  0.00077177729  0              0              554.164        763.16921      345.00345      0              617.3956       0              0              9.5321411      9.6768342      0.2            92.240948    
      8600   0.16568153     0.00091699408  0.00091699408  0              0              33.591037      399.09237     -332.05212      0              223.69612      0              0              9.5311798      9.6829691      0.2            92.29012     
      8700   0.19986055     0.00078387026  0.00078387026  0              0              646.01661      1229.4856      62.413122      0             -94.375942      0              0              9.5302186      9.6761493      0.2            92.215818    
      8800   0.22037028     0.00086263785  0.00086263785  0              0              370.46715      471.11986      269.64283      0              278.5212       0              0              9.5292574      9.6720955      0.2            92.167888    
      8900   0.24872689     0.00095288824  0.00095288824  0              0              82.040817      550.42245     -386.52995      0             -175.57074      0              0              9.5282962      9.6657494      0.2            92.098124    
      9000   0.21078167     0.00087712911  0.00087712911  0              0              889.76099      1525.4879      253.8506       0              142.95534      0              0              9.527335       9.6602055      0.2            92.036014    
      9100   0.19955358     0.00086568233  0.00086568233  0              0              1164.449       2219.7394      108.97142      0              209.09954      0              0              9.5263738      9.6623615      0.2            92.047267    
      9200   0.16798953     0.00091895174  0.00091895174  0              0              674.43325      1779.7676     -431.04577      0              719.32163      0              0              9.5254126      9.6703341      0.2            92.113922    
      9300   0.26302765     0.00084410305  0.00084410305  0              0              992.16852      1625.6068      358.58924      0             -89.809647      0              0              9.5244514      9.6691792      0.2            92.093627    
      9400   0.20758305     0.00083059314  0.00083059314  0              0              514.6646       907.69611      121.49213      0             -532.08099      0              0              9.5234902      9.6767772      0.2            92.156692    
      9500   0.21942298     0.00071877733  0.00071877733  0              0              469.70759      1280.7956     -341.55673      0             -122.3637       0              0              9.5225289      9.6762763      0.2            92.142621    
      9600   0.18331788     0.00092902536  0.00092902536  0              0              361.77113      425.28519      298.08868      0              228.76218      0              0              9.5215677      9.6656127      0.2            92.031786    
      9700   0.21017084     0.00088105973  0.00088105973  0              0              532.92903      941.09124      124.61712      0             -27.13751       0              0              9.5206065      9.6807586      0.2            92.166694    
      9800   0.20720818     0.0010240873   0.0010240873   0              0              383.94548      1161.0705     -393.31223      0             -55.95913       0              0              9.5196453      9.6718457      0.2            92.072541    
      9900   0.24574692     0.0010105446   0.0010105446   0              0              887.01924      1369.824       404.05851      0              510.24667      0              0              9.5186841      9.6646022      0.2            91.994295    
     10000   0.19035771     0.00078054574  0.00078054574  0              0             -25.136503     -17.19569      -33.212609      0              312.6761       0              0              9.5177229      9.6715577      0.2            92.051206    
     10100   0.19328271     0.00090006715  0.00090006715  0              0             -137.66709      151.27857     -426.76478      0             -138.58508      0              0              9.5167617      9.6744682      0.2            92.069608    
     10200   0.19803851     0.00098590082  0.00098590082  0              0              875.24022      1173.3869      576.95244      0             -465.59634      0              0              9.5158005      9.6724542      0.2            92.041144    
     10300   0.24065441     0.00095520883  0.00095520883  0              0              420.12241      997.31922     -157.24194      0             -357.51154      0              0              9.5148393      9.6737708      0.2            92.044374    
     10400   0.25113104     0.00087098137  0.00087098137  0              0              166.95332      691.58303     -357.83295      0              114.215        0              0              9.5138781      9.6852144      0.2            92.143949    
     10500   0.21258648     0.00096882646  0.00096882646  0              0              850.76151      1126.4763      574.92003      0              679.49416      0              0              9.5129168      9.6784087      0.2            92.069897    
     10600   0.18012493     0.00087669541  0.00087669541  0              0              531.83191      1346.7411     -283.20914      0              595.18371      0              0              9.5119556      9.6744861      0.2            92.023283    
     10700   0.16226669     0.00077073801  0.00077073801  0              0              946.47182      2225.6561     -332.84763      0             -136.14532      0              0              9.5109944      9.6851066      0.2            92.114995    
     10800   0.20925991     0.00086126064  0.00086126064  0              0              1527.5409      2445.9305      609.00227      0             -116.83225      0              0              9.5100332      9.6724889      0.2            91.985691    
     10900   0.25896703     0.0010307054   0.0010307054   0              0              24.209595      403.08637     -354.83762      0              113.19266      0              0              9.509072       9.682206       0.2            92.068794    
     11000   0.2498837      0.00081635065  0.00081635065  0              0              75.661191      397.40709     -246.21943      0             -120.80097      0              0              9.5081108      9.6842945      0.2            92.079345    
     11100   0.18841948     0.00085904122  0.00085904122  0              0              779.81791      878.83462      680.65705      0              499.88692      0              0              9.5071496      9.6779946      0.2            92.010142    
     11200   0.2022727      0.00090553539  0.00090553539  0              0              163.60631      860.69733     -533.64619      0              57.74759       0              0              9.5061884      9.6824341      0.2            92.043042    
     11300   0.14249518     0.0009222642   0.0009222642   0              0              624.08343      1471.386      -223.39079      0              124.42637      0              0              9.5052272      9.6886758      0.2            92.093064    
     11400   0.1993456      0.00088025386  0.00088025386  0              0              1199.5737      1382.1614      1016.8418      0              225.13475      0              0              9.5042659      9.6751982      0.2            91.955657    
     11500   0.20192771     0.0010055088   0.0010055088   0              0             -404.09124      160.57085     -968.90864      0              268.96091      0              0              9.5033047      9.6828002      0.2            92.018601    
     11600   0.25996794     0.00083036198  0.00083036198  0              0              353.03128      627.37713      78.518792      0              447.80114      0              0              9.5023435      9.6805292      0.2            91.987714    
     11700   0.2016793      0.001074122    0.001074122    0              0              1649.4485      2200.6337      1098.0858      0             -141.23764      0              0              9.5013823      9.6823936      0.2            91.996124    
     11800   0.19615795     0.00097917911  0.00097917911  0              0             -696.82147      76.166262     -1469.9796      0             -100.3661       0              0              9.5004211      9.6923398      0.2            92.08131     
     11900   0.22926542     0.00079700278  0.00079700278  0              0              1263.7423      1939.1333      588.1895       0             -236.07541      0              0              9.4994599      9.6843683      0.2            91.996268    
     12000   0.21432209     0.00089025095  0.00089025095  0              0              1197.6778      1457.9924      937.22059      0              591.41047      0              0              9.4984987      9.6777246      0.2            91.923854    
     12100   0.247795       0.00083113726  0.00083113726  0              0             -629.5186       356.63421     -1615.8548      0              427.41264      0              0              9.4975375      9.6973461      0.2            92.100908    
     12200   0.24020378     0.00075080542  0.00075080542  0              0              1197.4111      1473.6045      921.06591      0             -320.71676      0              0              9.4965763      9.6831052      0.2            91.956347    
     12300   0.22650527     0.00091062586  0.00091062586  0              0              514.60143      711.29399      317.71131      0              104.47552      0              0              9.4956151      9.6979358      0.2            92.087865    
     12400   0.22948623     0.00085157445  0.00085157445  0              0             -394.06793      426.55327     -1214.8541      0             -230.99514      0              0              9.4946538      9.6960669      0.2            92.060799    
     12500   0.22113972     0.0010009622   0.0010009622   0              0              1433.9322      1804.0226      1063.6666      0             -4.4902365      0              0              9.4936926      9.6831161      0.2            91.928528    
     12600   0.17118765     0.00087348457  0.00087348457  0              0              716.90575      1508.1508     -74.485126      0             -392.03509      0              0              9.4927314      9.6934879      0.2            92.017677    
     12700   0.18071435     0.00087110417  0.00087110417  0              0              160.96369      1045.9736     -724.21726      0             -243.48665      0              0              9.4917702      9.7056225      0.2            92.123539    
     12800   0.21654018     0.0008315617   0.0008315617   0              0              866.00752      845.4508       886.39375      0              212.12978      0              0              9.490809       9.7079762      0.2            92.136548    
     12900   0.18250774     0.00075447854  0.00075447854  0              0             -244.76307     -129.1656      -360.48659      0              506.63887      0              0              9.4898478      9.7239331      0.2            92.278645    
     13000   0.17807261     0.00068793776  0.00068793776  0              0             -65.903938      255.22237     -387.14994      0              240.07616      0              0              9.4888866      9.721517       0.2            92.246372    
     13100   0.16422404     0.00072188478  0.00072188478  0              0              625.84814      478.07135      773.48944      0              651.32629      0              0              9.4879254      9.7153046      0.2            92.178085    
     13200   0.18623723     0.00071577193  0.00071577193  0              0             -179.86763      129.07032     -488.96665      0              34.02638       0              0              9.4869642      9.7236289      0.2            92.247719    
     13300   0.17718412     0.0007836191   0.0007836191   0              0             -86.365577      38.844576     -211.70663      0             -169.91017      0              0              9.486003       9.7264241      0.2            92.264888    
     13400   0.16503682     0.00084535725  0.00084535725  0              0              1276.8064      1810.7898      742.6687       0             -86.787829      0              0              9.4850417      9.7221225      0.2            92.214737    
     13500   0.1876024      0.00072348087  0.00072348087  0              0             -319.13741     -25.477803     -612.92787      0             -255.88599      0              0              9.4840805      9.7338331      0.2            92.316457    
     13600   0.25375552     0.00068993292  0.00068993292  0              0              252.22009      535.23377     -30.973526      0              371.15904      0              0              9.4831193      9.7195867      0.2            92.172       
     13700   0.19671047     0.00079897054  0.00079897054  0              0              337.42178      23.03802       651.62471      0             -528.65359      0              0              9.4821581      9.7163665      0.2            92.132123    
     13800   0.22394943     0.00076495442  0.00076495442  0              0             -691.12555     -644.0079      -738.38522      0              641.74008      0              0              9.4811969      9.7286997      0.2            92.239718    
     13900   0.16704216     0.00082178613  0.00082178613  0              0             -165.64585     -554.12663      222.66947      0             -591.61254      0              0              9.4802357      9.7378623      0.2            92.31723     
     14000   0.22665454     0.00085626962  0.00085626962  0              0              161.44156     -212.98774      535.71126      0              32.770836      0              0              9.4792745      9.7313159      0.2            92.245814    
     14100   0.22139567     0.00077619919  0.00077619919  0              0             -588.32197     -466.8084      -709.97795      0             -83.097614      0              0              9.4783133      9.7293039      0.2            92.21739     
     14200   0.21072736     0.00080902123  0.00080902123  0              0             -157.19179     -517.18937      202.65846      0             -264.17016      0              0              9.4773521      9.7258979      0.2            92.175759    
     14300   0.2311774      0.00093398754  0.00093398754  0              0             -533.89193     -1529.9604      462.0326       0             -45.917103      0              0              9.4763908      9.7221213      0.2            92.130621    
     14400   0.23105715     0.00074184534  0.00074184534  0              0             -764.65306     -966.43842     -563.07247      0             -82.964025      0              0              9.4754296      9.735678       0.2            92.249732    
     14500   0.20073183     0.0009488291   0.0009488291   0              0             -226.61936     -618.72142      165.35284      0              85.509547      0              0              9.4744684      9.7278148      0.2            92.165875    
     14600   0.21782135     0.00073363588  0.00073363588  0              0             -257.64502     -913.37639      397.93527      0             -538.00613      0              0              9.4735072      9.7287789      0.2            92.165657    
     14700   0.19306981     0.00086145096  0.00086145096  0              0             -730.17201     -937.23966     -523.24893      0              188.05623      0              0              9.472546       9.7499749      0.2            92.357086    
     14800   0.22823389     0.00089055888  0.00089055888  0              0              85.775253     -19.30645       190.69166      0             -609.98075      0              0              9.4715848      9.744528       0.2            92.296123    
     14900   0.19959922     0.00073418669  0.00073418669  0              0              83.511501     -227.38645      394.26318      0              68.934912      0              0              9.4706236      9.7439425      0.2            92.281211    
     15000   0.18602316     0.00081169065  0.00081169065  0              0             -479.5025      -424.5649      -534.61641      0              686.28839      0              0              9.4696624      9.7401869      0.2            92.236281    
     15100   0.20129507     0.0006746811   0.0006746811   0              0              137.51664     -66.870835      341.73965      0              230.94747      0              0              9.4687012      9.734252       0.2            92.170723    
     15200   0.19707551     0.00055694159  0.00055694159  0              0             -45.569546     -212.34823      121.07222      0             -827.66753      0              0              9.46774        9.7406985      0.2            92.2224      
     15300   0.17334332     0.00069310056  0.00069310056  0              0             -320.75656     -66.008998     -575.60665      0              493.47912      0              0              9.4667787      9.7452324      0.2            92.255959    
     15400   0.16097457     0.00056979046  0.00056979046  0              0              240.71996      111.38341      369.90574      0             -278.98303      0              0              9.4658175      9.7418234      0.2            92.214323    
     15500   0.19865797     0.00072723023  0.00072723023  0              0              249.13924      369.78043      128.31057      0             -551.32413      0              0              9.4648563      9.7416472      0.2            92.203291    
     15600   0.20696186     0.00094717009  0.00094717009  0              0             -488.44288     -438.57878     -538.46496      0              379.08534      0              0              9.4638951      9.7408001      0.2            92.185911    
     15700   0.20676291     0.0011094379   0.0011094379   0              0              455.74258      529.19959      382.12164      0             -350.11853      0              0              9.4629339      9.740509       0.2            92.173793    
     15800   0.25506847     0.00081548871  0.00081548871  0              0              75.87836       132.8674       18.728329      0              102.71521      0              0              9.4619727      9.7305662      0.2            92.070352    
     15900   0.21457049     0.00072707553  0.00072707553  0              0             -70.10347       204.51087     -344.895        0              17.103564      0              0              9.4610115      9.7442386      0.2            92.190353    
     16000   0.20311777     0.00070891139  0.00070891139  0              0              171.35001      2.3228246      340.22796      0             -162.32245      0              0              9.4600503      9.739816       0.2            92.139149    
     16100   0.22882478     0.00089250732  0.00089250732  0              0              143.48066      257.8538       28.96133       0             -40.965166      0              0              9.4590891      9.7377339      0.2            92.110092    
     16200   0.17096662     0.00088466817  0.00088466817  0              0             -461.7823      -511.44084     -412.25791      0             -726.86952      0              0              9.4581278      9.742443       0.2            92.145272    
     16300   0.18704384     0.00081003182  0.00081003182  0              0              164.81602      159.39335      170.1132       0              107.80461      0              0              9.4571666      9.7259041      0.2            91.979495    
     16400   0.16130689     0.00094179738  0.00094179738  0              0              111.58977      184.27031      38.744573      0             -466.86969      0              0              9.4562054      9.7252633      0.2            91.964088    
     16500   0.21066787     0.00068724709  0.00068724709  0              0             -70.72382       46.198416     -187.79213      0             -914.65503      0              0              9.4552442      9.7330734      0.2            92.028586    
     16600   0.20279647     0.00083982793  0.00083982793  0              0              717.78896      1153.5435      281.84958      0              41.047758      0              0              9.454283       9.7250591      0.2            91.943461    
     16700   0.21716754     0.00076850689  0.00076850689  0              0             -66.669141     -157.9258       24.423883      0              109.8721       0              0              9.4533218      9.7379335      0.2            92.055819    
     16800   0.23477961     0.00085863855  0.00085863855  0              0             -93.015382      127.75692     -313.92059      0              159.92646      0              0              9.4523606      9.731164       0.2            91.982471    
     16900   0.1803186      0.00092026018  0.00092026018  0              0              722.93797      1071.1106      374.60187      0             -506.84706      0              0              9.4513994      9.7341713      0.2            92.00154     
     17000   0.20434352     0.00079118934  0.00079118934  0              0              277.70558      535.53513      19.724318      0             -136.52745      0              0              9.4504382      9.7431422      0.2            92.076963    
     17100   0.20738216     0.00066452668  0.00066452668  0              0              63.524699      462.13272     -335.2258       0             -94.710018      0              0              9.449477       9.7398857      0.2            92.036825    
     17200   0.24722984     0.00064028687  0.00064028687  0              0              655.03206      886.68842      423.22142      0              192.72494      0              0              9.4485157      9.7423284      0.2            92.050543    
     17300   0.14509393     0.00070543301  0.00070543301  0              0             -47.401208      2.8836637     -97.860284      0             -199.81513      0              0              9.4475545      9.7493523      0.2            92.107537    
     17400   0.15102784     0.00085825627  0.00085825627  0              0              16.774192      437.84586     -404.45025      0             -28.066175      0              0              9.4465933      9.7459852      0.2            92.066359    
     17500   0.21234387     0.00070644433  0.00070644433  0              0              505.99423      577.4737       434.36454      0             -100.70622      0              0              9.4456321      9.734648       0.2            91.949904    
     17600   0.24800348     0.001039232    0.001039232    0              0              383.25859      901.4354      -135.0651       0             -1042.9879      0              0              9.4446709      9.7326835      0.2            91.921992    
     17700   0.17540369     0.0011004879   0.0011004879   0              0              107.9311       606.60343     -390.86767      0             -120.89219      0              0              9.4437097      9.7237362      0.2            91.828142    
     17800   0.22216672     0.00093478277  0.00093478277  0              0              885.35212      1158.2649      612.29184      0             -197.69112      0              0              9.4427485      9.725813       0.2            91.838406    
     17900   0.21148414     0.00087295001  0.00087295001  0              0              274.0093       665.43273     -117.57138      0              178.5947       0              0              9.4417873      9.7321263      0.2            91.888667    
     18000   0.19738919     0.00073384166  0.00073384166  0              0              134.03165      772.53507     -504.57396      0              521.88861      0              0              9.4408261      9.732241       0.2            91.880394    
     18100   0.16751843     0.00080800321  0.00080800321  0              0              821.68258      1079.9074      563.28008      0             -111.16134      0              0              9.4398649      9.734938       0.2            91.896499    
     18200   0.16935123     0.00099359249  0.00099359249  0              0              699.10493      1387.1741      10.852493      0              316.59319      0              0              9.4389036      9.7416848      0.2            91.950824    
     18300   0.1629921      0.00085272362  0.00085272362  0              0              142.81854      822.06645     -536.57125      0             -2.9265571      0              0              9.4379424      9.7550671      0.2            92.067762    
     18400   0.21288645     0.00073958064  0.00073958064  0              0              1068.3898      1495.2018      641.4554       0             -43.892048      0              0              9.4369812      9.7381915      0.2            91.899131    
     18500   0.20775549     0.00086911846  0.00086911846  0              0              88.802411      408.74895     -231.31218      0             -313.40501      0              0              9.43602        9.7544593      0.2            92.043273    
     18600   0.15639847     0.00096063821  0.00096063821  0              0             -442.33252     -510.69507     -374.1116       0              2.7602189      0              0              9.4350588      9.76273        0.2            92.111932    
     18700   0.26885089     0.00083857559  0.00083857559  0              0              830.60263      1037.8166      623.22327      0              108.2019       0              0              9.4340976      9.7467174      0.2            91.951483    
     18800   0.18573683     0.00071195772  0.00071195772  0              0              237.42732      813.77696     -339.11257      0             -427.23459      0              0              9.4331364      9.7577574      0.2            92.046256    
     18900   0.2232716      0.00092569141  0.00092569141  0              0             -113.62897      71.289102     -298.68219      0              416.50599      0              0              9.4321752      9.7628891      0.2            92.08528     
     19000   0.178332       0.0010670903   0.0010670903   0              0              769.13132      912.76568      625.29684      0             -547.77655      0              0              9.431214       9.75247        0.2            91.977631    
     19100   0.17888735     0.00079651595  0.00079651595  0              0             -215.52682     -87.072597     -344.20397      0              133.32888      0              0              9.4302527      9.7707071      0.2            92.140237    
     19200   0.20962126     0.00085289166  0.00085289166  0              0              48.517002      264.84228     -167.9366       0              41.057353      0              0              9.4292915      9.757555       0.2            92.006831    
     19300   0.21501455     0.00087937111  0.00087937111  0              0              1122.7299      1615.1674      630.1642       0              641.85253      0              0              9.4283303      9.7527187      0.2            91.951854    
     19400   0.19730868     0.0009339188   0.0009339188   0              0              275.31855      895.88509     -345.3983       0              145.46459      0              0              9.4273691      9.7548925      0.2            91.962972    
     19500   0.22436492     0.0008102553   0.0008102553   0              0              348.60864      963.33796     -266.27517      0              881.90122      0              0              9.4264079      9.7535451      0.2            91.940895    
     19600   0.21624557     0.00075171114  0.00075171114  0              0              585.64133      508.40997      662.73072      0              340.55025      0              0              9.4254467      9.7417208      0.2            91.82007     
     19700   0.14762584     0.00096538088  0.00096538088  0              0              467.87245      1276.2858     -340.69778      0              310.69187      0              0              9.4244855      9.7493305      0.2            91.882423    
     19800   0.22224921     0.00076998414  0.00076998414  0              0              554.03922      1447.8414     -339.88481      0              40.286392      0              0              9.4235243      9.7444919      0.2            91.827456    
     19900   0.21330293     0.00087748364  0.00087748364  0              0              826.26502      1089.6304      562.72537      0              109.28989      0              0              9.4225631      9.7378029      0.2            91.755062    
     20000   0.18611501     0.00086456165  0.00086456165  0              0              330.82533      996.79547     -335.2753       0              47.402336      0              0              9.4216019      9.7466039      0.2            91.828621    
     20100   0.2642402      0.00076469147  0.00076469147  0              0             -35.554451      206.1232      -277.36937      0              402.17705      0              0              9.4206406      9.7435428      0.2            91.790415    
     20200   0.19125104     0.0011117259   0.0011117259   0              0              815.06694      1052.9609      577.01504      0             -277.5919       0              0              9.4196794      9.7408731      0.2            91.755902    
     20300   0.26602166     0.00076675857  0.00076675857  0              0              654.68025      1584.7265     -275.53767      0             -319.66081      0              0              9.4187182      9.7448343      0.2            91.783848    
     20400   0.19172346     0.00072935354  0.00072935354  0              0              104.57251      443.76867     -234.7712       0             -145.47591      0              0              9.417757       9.7520879      0.2            91.842794    
     20500   0.17964691     0.00073146403  0.00073146403  0              0              42.459694     -271.96634      356.71411      0             -175.04942      0              0              9.4167958      9.7541221      0.2            91.852576    
     20600   0.21239684     0.00084865958  0.00084865958  0              0              329.72918      776.90732     -117.61199      0              11.163531      0              0              9.4158346      9.7547988      0.2            91.849572    
     20700   0.23241877     0.0007419199   0.0007419199   0              0             -171.31089     -157.20332     -185.57007      0             -239.89224      0              0              9.4148734      9.7579114      0.2            91.8695      
     20800   0.23032375     0.00077941603  0.00077941603  0              0              454.39179      566.27811      342.35327      0             -11.446889      0              0              9.4139122      9.7479079      0.2            91.765948    
     20900   0.19473826     0.0010169991   0.0010169991   0              0              244.09988      594.26594     -106.21386      0             -680.39104      0              0              9.412951       9.7473973      0.2            91.751773    
     21000   0.16062492     0.00084043246  0.00084043246  0              0              188.2694       650.60039     -274.22577      0             -30.957462      0              0              9.4119897      9.7626668      0.2            91.88612     
     21100   0.15665788     0.00099906646  0.00099906646  0              0              258.50413      115.87769      400.99417      0             -225.78464      0              0              9.4110285      9.7558708      0.2            91.812779    
     21200   0.19864471     0.0007099338   0.0007099338   0              0             -173.78344     -225.94113     -121.75319      0             -281.81608      0              0              9.4100673      9.7526771      0.2            91.773348    
     21300   0.18996264     0.00073278366  0.00073278366  0              0              66.442265      404.41041     -271.69206      0             -537.47594      0              0              9.4091061      9.7535159      0.2            91.771866    
     21400   0.21009093     0.00077184169  0.00077184169  0              0              521.49562      643.94257      398.8654       0             -204.2241       0              0              9.4081449      9.7425954      0.2            91.659749    
     21500   0.23763645     0.00077135975  0.00077135975  0              0             -238.27402     -306.39103     -170.31247      0              303.84483      0              0              9.4071837      9.7547931      0.2            91.76513     
     21600   0.1869976      0.00073313415  0.00073313415  0              0             -322.9095      -389.94524     -255.99674      0              866.90901      0              0              9.4062225      9.7528874      0.2            91.737829    
     21700   0.19317877     0.00073578374  0.00073578374  0              0              288.53791      5.7004822      571.22381      0              545.06231      0              0              9.4052613      9.7512759      0.2            91.713297    
     21800   0.2017438      0.00061756812  0.00061756812  0              0             -549.36901     -951.2926      -147.58243      0              333.62989      0              0              9.4043001      9.7583473      0.2            91.770427    
     21900   0.1885754      0.00080471831  0.00080471831  0              0             -191.41945      56.718427     -439.71305      0              398.84177      0              0              9.4033389      9.766305       0.2            91.835876    
     22000   0.20103784     0.00080659808  0.00080659808  0              0              470.68796      244.98229      696.22045      0             -213.29901      0              0              9.4023776      9.7619315      0.2            91.785367    
     22100   0.18042926     0.00079406883  0.00079406883  0              0              356.64462      837.6476      -124.49242      0              34.099152      0              0              9.4014164      9.763827       0.2            91.793804    
     22200   0.20905265     0.0007940311   0.0007940311   0              0              120.43584      864.01877     -623.31671      0             -207.36779      0              0              9.4004552      9.7747493      0.2            91.887093    
     22300   0.19323585     0.00073526789  0.00073526789  0              0              992.56219      1202.9379      782.02233      0             -407.9791       0              0              9.399494       9.7635543      0.2            91.772471    
     22400   0.22879331     0.00070747704  0.00070747704  0              0              543.52017      1194.0166     -107.13371      0             -216.35717      0              0              9.3985328      9.7797831      0.2            91.915612    
     22500   0.21828783     0.00084427404  0.00084427404  0              0             -282.74411      223.68293     -789.31008      0             -256.43382      0              0              9.3975716      9.7827047      0.2            91.933668    
     22600   0.22810622     0.001032365    0.001032365    0              0              1113.9217      1501.3299      726.36235      0              300.4615       0              0              9.3966104      9.7736943      0.2            91.839597    
     22700   0.23498075     0.00080608432  0.00080608432  0              0              208.2766       242.13148      174.29622      0              480.88231      0              0              9.3956492      9.7835879      0.2            91.92316     
     22800   0.21794212     0.00076444803  0.00076444803  0              0             -525.1262      -263.67585     -786.72568      0             -218.79577      0              0              9.394688       9.7823435      0.2            91.902065    
     22900   0.17667075     0.00077347278  0.00077347278  0              0              805.01224      1184.938       424.93807      0              103.1949       0              0              9.3937268      9.7737772      0.2            91.812192    
     23000   0.23597799     0.00076254072  0.00076254072  0              0              879.6829       1194.5933      564.60908      0              388.53716      0              0              9.3927655      9.7713876      0.2            91.780353    
     23100   0.22251469     0.00082862629  0.00082862629  0              0             -382.3125       284.00361     -1048.7787      0             -298.2173       0              0              9.3918043      9.7861148      0.2            91.909275    
     23200   0.18305511     0.0010243054   0.0010243054   0              0              626.08344      987.36217      264.68368      0              20.229366      0              0              9.3908431      9.7688862      0.2            91.738078    
     23300   0.18265925     0.00089791187  0.00089791187  0              0              1299.5521      1736.4655      862.48714      0             -124.42279      0              0              9.3898819      9.7715711      0.2            91.753899    
     23400   0.20145945     0.00084286124  0.00084286124  0              0             -31.600981      885.12502     -948.46393      0              191.40475      0              0              9.3889207      9.7820787      0.2            91.843161    
     23500   0.1604068      0.00088139158  0.00088139158  0              0              165.11422      425.33075     -95.283281      0             -433.97106      0              0              9.3879595      9.7708327      0.2            91.728182    
     23600   0.2616513      0.00078591419  0.00078591419  0              0              789.17706      647.96189      930.20696      0              181.93729      0              0              9.3869983      9.776811       0.2            91.774908    
     23700   0.27657134     0.00070387125  0.00070387125  0              0             -28.678719      498.57858     -556.11289      0             -241.95746      0              0              9.3860371      9.7751436      0.2            91.74986     
     23800   0.1653964      0.00076863075  0.00076863075  0              0              363.64668      1180.4768     -453.32487      0             -209.00866      0              0              9.3850759      9.7757937      0.2            91.746566    
     23900   0.17529892     0.00073405148  0.00073405148  0              0              1190.6776      1607.9486      773.26718      0              512.91815      0              0              9.3841146      9.7695751      0.2            91.678813    
     24000   0.23877078     0.00070425151  0.00070425151  0              0              456.10846      1179.8118     -267.75895      0              42.929784      0              0              9.3831534      9.7775546      0.2            91.744295    
     24100   0.21366973     0.00089235946  0.00089235946  0              0             -222.53983      81.420292     -526.63945      0             -400.89626      0              0              9.3821922      9.7858908      0.2            91.813109    
     24200   0.20686086     0.00063288908  0.00063288908  0              0              1140.3858      1606.7539      673.85845      0             -582.91459      0              0              9.381231       9.7728212      0.2            91.681093    
     24300   0.17499915     0.0009602896   0.0009602896   0              0             -31.775743      29.107376     -92.812945      0             -291.96896      0              0              9.3802698      9.7769128      0.2            91.71008     
     24400   0.2080856      0.00081913208  0.00081913208  0              0              53.915805      566.913       -459.24615      0             -49.980574      0              0              9.3793086      9.7772222      0.2            91.703584    
     24500   0.20911716     0.0011197698   0.0011197698   0              0              698.66603      930.68694      466.49797      0             -358.24526      0              0              9.3783474      9.7891692      0.2            91.806229    
     24600   0.21533053     0.00095898432  0.00095898432  0              0              801.79626      1442.144       161.27631      0             -510.67957      0              0              9.3773862      9.7821918      0.2            91.73139     
     24700   0.18322899     0.0008420985   0.0008420985   0              0              810.88437      2007.1773     -385.58704      0             -401.87489      0              0              9.376425       9.788912       0.2            91.784999    
     24800   0.26550843     0.00083913959  0.00083913959  0              0              894.43825      1572.6411      216.09871      0              198.42668      0              0              9.3754638      9.7852672      0.2            91.741418    
     24900   0.18333299     0.00088177227  0.00088177227  0              0              511.45457      780.39357      242.36607      0             -68.913639      0              0              9.3745025      9.790771       0.2            91.783608    
     25000   0.22256535     0.00090704696  0.00090704696  0              0             -7.1229046      448.41647     -462.86642      0             -322.82093      0              0              9.3735413      9.7896683      0.2            91.76386     
     25100   0.20548033     0.0007654982   0.0007654982   0              0              617.37246      1184.8333      49.751233      0             -475.33228      0              0              9.3725801      9.7927119      0.2            91.782977    
     25200   0.24210822     0.00092793004  0.00092793004  0              0              841.01499      1154.541       527.3358       0             -144.78789      0              0              9.3716189      9.7817122      0.2            91.670479    
     25300   0.16682703     0.00098810672  0.00098810672  0              0             -50.727812      328.11768     -429.67466      0             -217.22832      0              0              9.3706577      9.780361       0.2            91.648415    
     25400   0.17287105     0.00079836752  0.00079836752  0              0              216.29584      584.13441     -151.66515      0             -248.30698      0              0              9.3696965      9.7876928      0.2            91.707711    
     25500   0.2017635      0.00080255528  0.00080255528  0              0              1141.1165      1672.5479      609.54846      0              196.995        0              0              9.3687353      9.7792476      0.2            91.619182    
     25600   0.16573426     0.00079120094  0.00079120094  0              0              487.35316      1123.9943     -149.42971      0             -602.83936      0              0              9.3677741      9.7911201      0.2            91.721001    
     25700   0.16300702     0.0010109474   0.0010109474   0              0             -278.15185     -190.38945     -366.08575      0              846.6959       0              0              9.3668129      9.7800961      0.2            91.60833     
     25800   0.17307193     0.00094540966  0.00094540966  0              0              502.16322      585.231        418.9552       0             -253.57479      0              0              9.3658516      9.7850988      0.2            91.645784    
     25900   0.1584557      0.00070858382  0.00070858382  0              0              571.41146      1132.3714      10.316364      0             -460.73716      0              0              9.3648904      9.7829406      0.2            91.616167    
     26000   0.22248868     0.00077410148  0.00077410148  0              0             -36.102619      447.39108     -519.73738      0              584.1239       0              0              9.3639292      9.7937372      0.2            91.707862    
     26100   0.18635365     0.00074862175  0.00074862175  0              0              474.20889      637.87532      310.38279      0              323.10655      0              0              9.362968       9.7843639      0.2            91.610686    
     26200   0.25207964     0.00083208794  0.00083208794  0              0              560.70647      836.64583      284.64132      0             -83.499555      0              0              9.3620068      9.7872634      0.2            91.628426    
     26300   0.20479268     0.00098650731  0.00098650731  0              0             -73.550363      331.19908     -478.44912      0             -312.28903      0              0              9.3610456      9.801956       0.2            91.756557    
     26400   0.16358406     0.00087330905  0.00087330905  0              0              627.856        1114.709       140.8466       0              520.60379      0              0              9.3600844      9.7984619      0.2            91.71443     
     26500   0.19717544     0.0007983704   0.0007983704   0              0              500.67206      713.34779      287.82522      0             -227.26016      0              0              9.3591232      9.8029977      0.2            91.747463    
     26600   0.18952428     0.00081257661  0.00081257661  0              0             -225.93299     -184.40848     -267.60852      0             -648.83089      0              0              9.358162       9.8167499      0.2            91.866735    
     26700   0.17048613     0.00077314099  0.00077314099  0              0              476.1183       968.20931     -16.121343      0             -665.41308      0              0              9.3572008      9.8213872      0.2            91.900692    
     26800   0.16904271     0.00095329691  0.00095329691  0              0              355.83445      507.12247      204.42872      0              1.8014418      0              0              9.3562395      9.8157155      0.2            91.838186    
     26900   0.18077683     0.00079916094  0.00079916094  0              0              139.03015      292.51045     -14.570476      0             -624.0935       0              0              9.3552783      9.819306       0.2            91.862341    
     27000   0.18416485     0.00084788995  0.00084788995  0              0              199.38852      438.38434     -39.728084      0             -159.05283      0              0              9.3543171      9.8172959      0.2            91.834099    
     27100   0.18579964     0.00062672523  0.00062672523  0              0              358.39915      714.25785      2.4027321      0             -129.57594      0              0              9.3533559      9.8135975      0.2            91.79007     
     27200   0.20369777     0.00069903435  0.00069903435  0              0             -176.12296     -354.18905      1.7837742      0             -87.710488      0              0              9.3523947      9.8155472      0.2            91.798872    
     27300   0.2059788      0.00071054834  0.00071054834  0              0             -122.55066     -281.59445      36.340221      0             -340.9987       0              0              9.3514335      9.8056445      0.2            91.696832    
     27400   0.19505916     0.00079771713  0.00079771713  0              0              295.74758      540.97668      50.37776       0             -4.6464577      0              0              9.3504723      9.8132109      0.2            91.758157    
     27500   0.16866532     0.00089976094  0.00089976094  0              0              34.476896      156.51438     -87.718108      0             -316.67856      0              0              9.3495111      9.8117073      0.2            91.734666    
     27600   0.22246383     0.00081015245  0.00081015245  0              0              6.9008916      36.546674     -22.936876      0             -493.66328      0              0              9.3485499      9.810393       0.2            91.712948    
     27700   0.16313321     0.00073111369  0.00073111369  0              0              228.13821      311.21567      144.93037      0              260.60476      0              0              9.3475887      9.8028661      0.2            91.63316     
     27800   0.21901975     0.00064836887  0.00064836887  0              0              298.93688      544.31577      53.408869      0              420.99395      0              0              9.3466274      9.8119141      0.2            91.708305    
     27900   0.26143172     0.00085613799  0.00085613799  0              0              302.01257      673.37011     -69.474396      0              317.58679      0              0              9.3456662      9.8019253      0.2            91.605522    
[...]
     42900   0.22170131     0.00093497433  0.00093497433  0              0              134.74231      423.2623      -153.95871      0             -184.58133      0              0              9.2014847      9.8716574      0.2            90.833904    
     43000   0.22253559     0.0010453177   0.0010453177   0              0             -298.4889      -167.42866     -429.70423      0              290.04589      0              0              9.2005235      9.8671335      0.2            90.782793    
     43100   0.23013914     0.00088582914  0.00088582914  0              0              288.28871      288.96045      287.4634       0              197.11022      0              0              9.1995622      9.8621614      0.2            90.727568    
     43200   0.18093968     0.00098624389  0.00098624389  0              0              317.99724      169.63803      466.19096      0              743.93144      0              0              9.198601       9.8620744      0.2            90.717287    
     43300   0.18399325     0.0011228021   0.0011228021   0              0             -92.491065      130.18652     -315.30613      0              409.72363      0              0              9.1976398      9.8650751      0.2            90.735408    
     43400   0.2762956      0.00092612373  0.00092612373  0              0             -136.22005      80.932796     -353.522        0              336.02612      0              0              9.1966786      9.8590997      0.2            90.670972    
     43500   0.20000653     0.00085314255  0.00085314255  0              0              946.88765      1436.4666      457.12734      0             -8.2814694      0              0              9.1957174      9.8690158      0.2            90.75268     
     43600   0.16352062     0.00080828285  0.00080828285  0              0              185.57498      113.39936      257.56795      0             -258.62304      0              0              9.1947562      9.8678474      0.2            90.732451    
     43700   0.18260719     0.00087836867  0.00087836867  0              0             -187.82909      102.23245     -478.04552      0              297.69897      0              0              9.193795       9.8883105      0.2            90.9111      
     43800   0.26612539     0.00088849716  0.00088849716  0              0             -9.2045126      94.038111     -112.62476      0              43.756552      0              0              9.1928338      9.8879191      0.2            90.897996    
     43900   0.20437458     0.0010165649   0.0010165649   0              0              467.73352      446.46601      488.8889       0              429.33351      0              0              9.1918726      9.884551       0.2            90.857533    
     44000   0.28394613     0.00084743768  0.00084743768  0              0             -134.95944     -240.97333     -29.115659      0              567.41725      0              0              9.1909114      9.8924468      0.2            90.920601    
     44100   0.18206456     0.00096415111  0.00096415111  0              0             -118.47072      156.08863     -393.18911      0              858.83884      0              0              9.1899501      9.9055247      0.2            91.031278    
     44200   0.19335209     0.00093983832  0.00093983832  0              0             -71.141878     -258.81625      116.3747       0              429.84696      0              0              9.1889889      9.9032883      0.2            91.001206    
     44300   0.18072988     0.00091508668  0.00091508668  0              0              367.64291      415.12457      319.98027      0              279.95504      0              0              9.1880277      9.8907835      0.2            90.876793    
     44400   0.21925146     0.00084869905  0.00084869905  0              0              389.93687      994.23287     -214.47677      0              726.81979      0              0              9.1870665      9.898268       0.2            90.936047    
     44500   0.18217119     0.00074114812  0.00074114812  0              0             -95.955068     -4.3196925     -187.76265      0              408.21572      0              0              9.1861053      9.8889607      0.2            90.841034    
     44600   0.17946665     0.001030796    0.001030796    0              0              142.42318      83.058926      201.61993      0              143.24748      0              0              9.1851441      9.8925797      0.2            90.86477     
     44700   0.17743753     0.00097790657  0.00097790657  0              0              339.35251      534.53118      144.021        0             -417.69603      0              0              9.1841829      9.8919139      0.2            90.849147    
     44800   0.19602438     0.00076104229  0.00076104229  0              0              43.519419      280.57908     -193.69003      0             -470.09132      0              0              9.1832217      9.8974729      0.2            90.890688    
     44900   0.24333065     0.0008832648   0.0008832648   0              0             -202.42196     -140.25125     -264.74245      0             -415.84559      0              0              9.1822605      9.8962344      0.2            90.869801    
     45000   0.18985064     0.0008383833   0.0008383833   0              0              617.18705      977.7238       256.46385      0              13.59244       0              0              9.1812992      9.8976131      0.2            90.872948    
     45100   0.22527901     0.00090382839  0.00090382839  0              0              583.41226      890.85322      275.86378      0             -811.14434      0              0              9.180338       9.9029326      0.2            90.912269    
     45200   0.19449198     0.00090454244  0.00090454244  0              0              404.76422      1045.3293     -235.92678      0             -550.03074      0              0              9.1793768      9.905993       0.2            90.930843    
     45300   0.2127147      0.00097825132  0.00097825132  0              0             -227.02896     -320.09578     -134.10529      0             -570.7637       0              0              9.1784156      9.9029856      0.2            90.893718    
     45400   0.2124119      0.00070255639  0.00070255639  0              0              530.88511      786.17133      275.4011       0             -3.2407402      0              0              9.1774544      9.9052205      0.2            90.90471     
     45500   0.21896504     0.00089887225  0.00089887225  0              0              364.35452      617.93602      110.58906      0             -391.8382       0              0              9.1764932      9.9097151      0.2            90.936433    
     45600   0.20145507     0.00089892168  0.00089892168  0              0              240.63784      730.62238     -249.47045      0              86.755275      0              0              9.175532       9.9081866      0.2            90.912883    
     45700   0.22861723     0.00075869771  0.00075869771  0              0             -20.136614      92.792457     -133.23619      0             -245.18103      0              0              9.1745708      9.9033093      0.2            90.858612    
     45800   0.23698091     0.00084336829  0.00084336829  0              0              462.12656      539.54698      384.55316      0             -299.08548      0              0              9.1736096      9.9012284      0.2            90.830004    
     45900   0.2249329      0.00087749876  0.00087749876  0              0              93.686732      62.564324      124.64341      0              270.64372      0              0              9.1726484      9.9108216      0.2            90.908482    
     46000   0.16824698     0.0010975252   0.0010975252   0              0             -711.07647     -910.80765     -511.48677      0             -20.258398      0              0              9.1716871      9.9131962      0.2            90.920735    
     46100   0.26142641     0.00061527146  0.00061527146  0              0             -293.93421     -515.97906     -72.048656      0             -395.44547      0              0              9.1707259      9.9205752      0.2            90.978877    
     46200   0.19967432     0.00072729568  0.00072729568  0              0             -299.88637     -1171.2692      571.33229      0             -356.47283      0              0              9.1697647      9.9095757      0.2            90.868478    
     46300   0.16337727     0.00078426019  0.00078426019  0              0             -291.33188     -745.23094      162.39347      0             -281.81943      0              0              9.1688035      9.9089969      0.2            90.853645    
     46400   0.19012124     0.00074139013  0.00074139013  0              0             -571.84941     -562.87479     -580.95816      0              190.74283      0              0              9.1678423      9.9159643      0.2            90.907997    
     46500   0.20357782     0.00065497204  0.00065497204  0              0              108.50548      274.65492     -57.783641      0             -336.25409      0              0              9.1668811      9.9050322      0.2            90.798252    
     46600   0.25169822     0.00076461211  0.00076461211  0              0              350.35606      94.184992      606.34308      0             -217.16981      0              0              9.1659199      9.9023219      0.2            90.76389     
     46700   0.20312811     0.00088314215  0.00088314215  0              0             -31.118122     -114.77988      52.390456      0              27.513342      0              0              9.1649587      9.9061149      0.2            90.789134    
     46800   0.19177126     0.00078596551  0.00078596551  0              0             -426.88787     -6.1427244     -847.79859      0             -262.34647      0              0              9.1639975      9.9199099      0.2            90.906029    
     46900   0.24111319     0.00078994739  0.00078994739  0              0             -346.19575     -709.54868      17.032781      0              364.86482      0              0              9.1630363      9.9107216      0.2            90.812301    
     47000   0.24610608     0.00061845474  0.00061845474  0              0              612.29952      222.43549      1002.0192      0              73.852232      0              0              9.162075       9.8957665      0.2            90.665756    
     47100   0.1830678      0.00085714636  0.00085714636  0              0              336.52577      841.08838     -168.18366      0             -919.90354      0              0              9.1611138      9.9095635      0.2            90.782639    
     47200   0.2037162      0.00078840094  0.00078840094  0              0             -851.62308     -624.43377     -1078.9211      0              243.40061      0              0              9.1601526      9.9182017      0.2            90.852241    
     47300   0.19145482     0.00089837785  0.00089837785  0              0             -102.58849     -433.52662      228.16739      0              144.84302      0              0              9.1591914      9.909267       0.2            90.760873    
     47400   0.16399359     0.00089712194  0.00089712194  0              0              576.33083      173.82475      978.70035      0             -409.16892      0              0              9.1582302      9.9094107      0.2            90.752664    
     47500   0.17307254     0.0010866714   0.0010866714   0              0             -252.51658     -209.71148     -295.4738       0              363.98224      0              0              9.157269       9.9189292      0.2            90.830303    
     47600   0.24203023     0.00095042466  0.00095042466  0              0             -687.40337     -605.91717     -769.04115      0              242.3836       0              0              9.1563078      9.9177665      0.2            90.810122    
     47700   0.19343064     0.00076414954  0.00076414954  0              0              305.53887      311.5359       299.39207      0              216.83877      0              0              9.1553466      9.9192318      0.2            90.814005    
     47800   0.15954407     0.00091204102  0.00091204102  0              0              686.5833       565.93691      807.06574      0             -40.513065      0              0              9.1543854      9.9120998      0.2            90.739181    
     47900   0.21360515     0.0007567807   0.0007567807   0              0              7.7513965      388.36921     -373.03088      0             -10.683286      0              0              9.1534241      9.9258077      0.2            90.855128    
     48000   0.19192807     0.00073994374  0.00073994374  0              0             -434.27362     -147.41197     -721.28989      0             -262.39803      0              0              9.1524629      9.9299454      0.2            90.883457    
     48100   0.24392613     0.00095336491  0.00095336491  0              0              230.94782     -71.240415      532.99609      0             -467.57262      0              0              9.1515017      9.9217288      0.2            90.798718    
     48200   0.24837621     0.0011591928   0.0011591928   0              0              615.42315      688.39906      542.29024      0             -900.34856      0              0              9.1505405      9.92045        0.2            90.777479    
     48300   0.21882695     0.0006361213   0.0006361213   0              0             -394.07111     -236.13271     -552.19597      0             -346.85128      0              0              9.1495793      9.932397       0.2            90.877254    
     48400   0.22567288     0.0008723581   0.0008723581   0              0             -265.61779      20.211559     -551.61706      0              17.015512      0              0              9.1486181      9.9264947      0.2            90.813709    
     48500   0.23604195     0.00082192791  0.00082192791  0              0              662.86637      734.084        591.47919      0              5.2068803      0              0              9.1476569      9.9112477      0.2            90.664694    
     48600   0.18883646     0.00074525695  0.00074525695  0              0              559.30638      759.91181      358.55031      0             -353.56968      0              0              9.1466957      9.9145322      0.2            90.685209    
     48700   0.13958299     0.00080921593  0.00080921593  0              0             -387.27954     -160.2399      -614.4523       0              196.37252      0              0              9.1457345      9.9161967      0.2            90.690902    
     48800   0.15960204     0.00069159603  0.00069159603  0              0             -171.33869     -66.860992     -275.99098      0             -137.75541      0              0              9.1447733      9.9273686      0.2            90.783535    
     48900   0.20161442     0.00060679252  0.00060679252  0              0              517.20168      445.73315      588.53192      0             -8.3923165      0              0              9.143812       9.9208534      0.2            90.714419    
     49000   0.17706918     0.00078225071  0.00078225071  0              0             -395.52311     -958.524        167.32851      0              448.11412      0              0              9.1428508      9.9255469      0.2            90.747795    
     49100   0.14878299     0.00099847725  0.00099847725  0              0             -772.05416     -1189.0878     -355.2034       0              389.06137      0              0              9.1418896      9.927979       0.2            90.760488    
     49200   0.18561856     0.00067451329  0.00067451329  0              0             -197.97725     -285.75617     -110.38237      0              200.05301      0              0              9.1409284      9.9218158      0.2            90.694608    
     49300   0.14797138     0.00092163411  0.00092163411  0              0              204.19807      185.71332      222.52428      0              152.32243      0              0              9.1399672      9.919975       0.2            90.668246    
     49400   0.21281599     0.00066959199  0.00066959199  0              0              203.16631      278.34996      127.77278      0             -89.040808      0              0              9.139006       9.9199203      0.2            90.658211    
     49500   0.18011428     0.00099233521  0.00099233521  0              0             -429.40008     -678.0529      -180.92273      0              28.122703      0              0              9.1380448      9.9188508      0.2            90.638903    
     49600   0.20103932     0.00091290555  0.00091290555  0              0              151.76147      261.48095      41.871023      0              179.42137      0              0              9.1370836      9.9138931      0.2            90.584069    
     49700   0.15636881     0.00094504365  0.00094504365  0              0             -189.50721     -603.51462      224.35192      0             -516.33389      0              0              9.1361224      9.9310541      0.2            90.731325    
     49800   0.26562827     0.00089835053  0.00089835053  0              0             -761.45992     -1507.7925     -15.271791      0             -269.11566      0              0              9.1351611      9.9267339      0.2            90.682314    
     49900   0.22289714     0.0009308588   0.0009308588   0              0             -424.35502     -653.35818     -195.51668      0              501.60404      0              0              9.1341999      9.9254816      0.2            90.661333    
     50000   0.20705607     0.0008139384   0.0008139384   0              0             -339.67677     -645.26672     -34.239869      0             -10.929269      0              0              9.1332387      9.9280288      0.2            90.675057    
     50100   0.20448815     0.00094536532  0.00094536532  0              0             -156.56075     -405.02135      91.735066      0             -271.41472      0              0              9.1322775      9.934339       0.2            90.723141    
     50181   0.23930485     0.00077121569  0.00077121569  0              0             -265.80704     -528.11737     -3.6243217      0             -824.31728      0              0              9.1314989      9.9294336      0.2            90.670613    
Loop time of 0.966748 on 1 procs for 50000 steps with 51 atoms

Performance: 44685.882 ns/day, 0.001 hours/ns, 51719.771 timesteps/s
99.6% CPU use with 1 MPI tasks x 1 OpenMP threads

MPI task timing breakdown:
Section |  min time  |  avg time  |  max time  |%varavg| %total
---------------------------------------------------------------
Pair    | 0          | 0          | 0          |   0.0 |  0.00
Bond    | 0.13376    | 0.13376    | 0.13376    |   0.0 | 13.84
Neigh   | 0          | 0          | 0          |   0.0 |  0.00
Comm    | 0.32228    | 0.32228    | 0.32228    |   0.0 | 33.34
Output  | 0.0062294  | 0.0062294  | 0.0062294  |   0.0 |  0.64
Modify  | 0.48042    | 0.48042    | 0.48042    |   0.0 | 49.69
Other   |            | 0.02405    |            |       |  2.49

Nlocal:             51 ave          51 max          51 min
Histogram: 1 0 0 0 0 0 0 0 0 0
Nghost:            426 ave         426 max         426 min
Histogram: 1 0 0 0 0 0 0 0 0 0
Neighs:              0 ave           0 max           0 min
Histogram: 1 0 0 0 0 0 0 0 0 0

Total # of neighbors = 0
Ave neighs/atom = 0
Ave special neighs/atom = 21.529412
Neighbor list builds = 0
Dangerous builds = 0


Total wall time: 0:00:00
