ITEM: TIMESTEP
250
ITEM: NUMBER OF ATOMS
46
ITEM: BOX BOUNDS pp pp pp
-4.8225583869286970e+00 4.8225583869286970e+00
-4.8245453079208103e+00 4.8245453079208103e+00
-1.0000000000000001e-01 1.0000000000000001e-01
ITEM: ATOMS id type xs ys zs
37 1 0.0509166 0.0306734 0.50062
49 1 0.162978 0.0462261 0.499908
71 1 0.419352 0.0653152 0.499268
38 1 0.228066 0.122077 0.500113
79 1 0.297929 0.194321 0.501496
34 1 0.348101 0.124786 0.498598
25 1 0.475884 0.139279 0.500354
12 1 0.622285 0.123434 0.501025
27 1 0.759606 0.195771 0.498937
3 1 0.89269 0.23713 0.499582
15 1 0.182448 0.361009 0.50053
47 1 0.286558 0.280337 0.499609
10 1 0.405622 0.24182 0.50019
36 1 0.553199 0.248572 0.500008
42 1 0.655188 0.250561 0.50009
46 1 0.355203 0.457272 0.499522
21 1 0.442544 0.389149 0.500405
80 1 0.534217 0.348626 0.500382
29 1 0.55863 0.442811 0.499396
31 1 0.62843 0.348441 0.500868
63 1 0.641711 0.458435 0.499645
5 1 0.764779 0.331546 0.499901
20 1 0.962506 0.434133 0.498323
52 1 0.879939 0.354125 0.500746
24 1 0.0829572 0.457236 0.499796
18 1 0.216383 0.506854 0.500223
60 1 0.443842 0.492274 0.499747
45 1 0.704082 0.445217 0.50077
14 1 0.822661 0.480095 0.499885
1 1 0.349881 0.56646 0.49991
50 1 0.521479 0.551069 0.500446
4 1 0.635578 0.57015 0.499631
19 1 0.465632 0.649813 0.500353
41 1 0.586557 0.691259 0.498827
53 1 0.6189 0.799553 0.500547
13 1 0.704738 0.719619 0.500967
9 1 0.843161 0.794539 0.500594
51 1 0.0562311 0.821522 0.500538
22 1 0.385649 0.83217 0.499908
23 1 0.502982 0.773969 0.500354
7 1 0.718859 0.880821 0.500421
54 1 0.971273 0.772315 0.500772
16 1 0.139731 0.920121 0.500361
28 1 0.269301 0.869011 0.499738
2 1 0.369063 0.961205 0.500418
8 1 0.979651 0.904554 0.499512
ITEM: TIMESTEP
500
ITEM: NUMBER OF ATOMS
46
ITEM: BOX BOUNDS pp pp pp
-4.8213525929903405e+00 4.8213525929903405e+00
-4.8219661893121613e+00 4.8219661893121613e+00
-1.0000000000000001e-01 1.0000000000000001e-01
ITEM: ATOMS id type xs ys zs
37 1 0.0510048 0.0308707 0.499609
49 1 0.16387 0.0464802 0.499465
71 1 0.420765 0.0649478 0.500029
38 1 0.228343 0.123684 0.500796
79 1 0.298616 0.194607 0.501209
34 1 0.348765 0.124834 0.499905
25 1 0.476161 0.139567 0.501479
12 1 0.62211 0.122347 0.501464
27 1 0.760361 0.197449 0.500686
3 1 0.893868 0.237251 0.501063
15 1 0.182605 0.36224 0.499423
47 1 0.286347 0.281478 0.50205
10 1 0.405413 0.241332 0.499605
36 1 0.553571 0.248756 0.498937
42 1 0.655448 0.250134 0.499575
46 1 0.354975 0.457634 0.498177
21 1 0.442122 0.388712 0.498571
80 1 0.534132 0.348907 0.499894
29 1 0.559094 0.44289 0.499515
31 1 0.628784 0.348034 0.500528
63 1 0.642032 0.458151 0.500293
5 1 0.765194 0.332098 0.500193
20 1 0.962112 0.435426 0.499987
52 1 0.879928 0.354161 0.500378
24 1 0.0820532 0.458034 0.500323
18 1 0.215537 0.507627 0.500701
60 1 0.443753 0.492125 0.500363
45 1 0.704253 0.445279 0.499681
14 1 0.82254 0.480741 0.500708
1 1 0.349409 0.566336 0.500963
50 1 0.521833 0.551042 0.499614
4 1 0.636084 0.570106 0.499351
19 1 0.465207 0.64963 0.501801
41 1 0.586607 0.691622 0.498485
53 1 0.619213 0.798963 0.500616
13 1 0.705054 0.719649 0.500741
9 1 0.844012 0.795303 0.500458
51 1 0.0565846 0.823104 0.5025
22 1 0.384578 0.832257 0.500566
23 1 0.502634 0.773656 0.501252
7 1 0.718593 0.881374 0.500641
54 1 0.972163 0.77246 0.499592
16 1 0.140031 0.920913 0.501385
28 1 0.268458 0.869256 0.499571
2 1 0.3685 0.961266 0.497568
8 1 0.978783 0.905254 0.498897
ITEM: TIMESTEP
750
ITEM: NUMBER OF ATOMS
46
ITEM: BOX BOUNDS pp pp pp
-4.8201467990519848e+00 4.8201467990519848e+00
-4.8277213468706295e+00 4.8277213468706295e+00
-1.0000000000000001e-01 1.0000000000000001e-01
ITEM: ATOMS id type xs ys zs
37 1 0.050204 0.0314073 0.499183
49 1 0.163047 0.048054 0.499208
71 1 0.420851 0.0647807 0.501401
38 1 0.229019 0.123375 0.501444
79 1 0.298699 0.194492 0.502371
34 1 0.349823 0.125205 0.50069
25 1 0.47632 0.139745 0.502636
12 1 0.622262 0.123452 0.503165
27 1 0.760955 0.196696 0.49947
3 1 0.894744 0.237761 0.501949
15 1 0.183952 0.362279 0.498788
47 1 0.287499 0.280654 0.500261
10 1 0.406405 0.241598 0.500261
36 1 0.554119 0.248984 0.500397
42 1 0.656217 0.25096 0.50011
46 1 0.355895 0.457078 0.497679
21 1 0.442387 0.387523 0.49868
80 1 0.534978 0.349023 0.498561
29 1 0.559458 0.442749 0.499377
31 1 0.62934 0.348799 0.499261
63 1 0.642135 0.459388 0.501347
5 1 0.766371 0.332247 0.499795
20 1 0.961642 0.435827 0.498995
52 1 0.880767 0.354752 0.501585
24 1 0.0818446 0.456221 0.497683
18 1 0.21526 0.507534 0.501345
60 1 0.444364 0.490765 0.500448
45 1 0.704013 0.445414 0.499736
14 1 0.822869 0.48076 0.500367
1 1 0.350788 0.565779 0.501593
50 1 0.521986 0.550537 0.500056
4 1 0.63488 0.570422 0.500257
19 1 0.466115 0.649502 0.502304
41 1 0.586782 0.69196 0.499906
53 1 0.619735 0.799005 0.500688
13 1 0.705059 0.71989 0.502015
9 1 0.84375 0.795368 0.498363
51 1 0.0567017 0.823048 0.503247
22 1 0.384982 0.831834 0.499237
23 1 0.502797 0.774556 0.502223
7 1 0.718511 0.881537 0.501768
54 1 0.972096 0.772964 0.49878
16 1 0.139942 0.922035 0.499696
28 1 0.26896 0.869643 0.500143
2 1 0.368775 0.960875 0.496695
8 1 0.979104 0.905335 0.497887
ITEM: TIMESTEP
1000
ITEM: NUMBER OF ATOMS
46
ITEM: BOX BOUNDS pp pp pp
-4.8189410051136283e+00 4.8189410051136283e+00
-4.8273874408548814e+00 4.8273874408548814e+00
-1.0000000000000001e-01 1.0000000000000001e-01
ITEM: ATOMS id type xs ys zs
37 1 0.0499709 0.0323178 0.497455
49 1 0.162889 0.048816 0.498402
71 1 0.421551 0.0657975 0.501266
38 1 0.227972 0.125085 0.49974
79 1 0.298706 0.194596 0.503122
34 1 0.349139 0.124348 0.50045
25 1 0.477324 0.139464 0.502516
12 1 0.623332 0.123208 0.501995
27 1 0.760704 0.197137 0.49714
3 1 0.894397 0.236493 0.501595
15 1 0.184743 0.361894 0.501101
47 1 0.28791 0.281233 0.499377
10 1 0.406127 0.241143 0.499727
36 1 0.55433 0.24891 0.502276
42 1 0.656507 0.250521 0.498495
46 1 0.356566 0.456555 0.497222
21 1 0.443168 0.387751 0.498358
80 1 0.535075 0.348778 0.499712
29 1 0.558872 0.44253 0.499523
31 1 0.629458 0.348479 0.499034
63 1 0.641609 0.459061 0.503339
5 1 0.766551 0.331437 0.498693
20 1 0.962126 0.43609 0.496702
52 1 0.881094 0.353729 0.502694
24 1 0.082742 0.455335 0.497782
18 1 0.215901 0.507989 0.50301
60 1 0.44512 0.491049 0.502676
45 1 0.70328 0.44409 0.49983
14 1 0.82146 0.480946 0.498886
1 1 0.350946 0.565824 0.501963
50 1 0.521718 0.550937 0.501514
4 1 0.635119 0.570425 0.499833
19 1 0.465861 0.650236 0.499919
41 1 0.586343 0.692144 0.500816
53 1 0.619242 0.798711 0.500589
13 1 0.705112 0.719649 0.50222
9 1 0.84428 0.795693 0.496158
51 1 0.0575565 0.822942 0.503732
22 1 0.385986 0.833043 0.499366
23 1 0.503009 0.774155 0.503269
7 1 0.718465 0.880754 0.501659
54 1 0.972919 0.77305 0.498511
16 1 0.140038 0.922835 0.498756
28 1 0.26952 0.869463 0.500366
2 1 0.370025 0.961913 0.498763
8 1 0.980283 0.905681 0.500151
ITEM: TIMESTEP
1250
ITEM: NUMBER OF ATOMS
46
ITEM: BOX BOUNDS pp pp pp
-4.8177352111752718e+00 4.8177352111752718e+00
-4.8289578210964734e+00 4.8289578210964734e+00
-1.0000000000000001e-01 1.0000000000000001e-01
ITEM: ATOMS id type xs ys zs
37 1 0.0505945 0.0317911 0.499062
49 1 0.163156 0.048111 0.499465
71 1 0.421585 0.0652448 0.50108
38 1 0.228579 0.123571 0.499181
79 1 0.299002 0.194343 0.502653
34 1 0.349622 0.124608 0.500922
25 1 0.478263 0.139064 0.501996
12 1 0.624392 0.123912 0.502557
27 1 0.760505 0.195675 0.496835
3 1 0.893531 0.236339 0.501643
15 1 0.184889 0.363335 0.502267
47 1 0.288082 0.280794 0.497942
10 1 0.406899 0.240551 0.499367
36 1 0.554783 0.248966 0.501186
42 1 0.656897 0.251768 0.498354
46 1 0.356289 0.455622 0.498934
21 1 0.441882 0.386768 0.497156
80 1 0.534041 0.34855 0.500326
29 1 0.557822 0.442789 0.499075
31 1 0.628648 0.34927 0.497727
63 1 0.641028 0.457869 0.50242
5 1 0.765628 0.331895 0.499153
20 1 0.962454 0.434667 0.497299
52 1 0.880662 0.353242 0.504136
24 1 0.0828106 0.45723 0.498465
18 1 0.215835 0.508841 0.504278
60 1 0.445207 0.489819 0.502137
45 1 0.703376 0.444206 0.499476
14 1 0.822368 0.480125 0.50057
1 1 0.351781 0.564218 0.500743
50 1 0.520601 0.551548 0.503357
4 1 0.634659 0.56989 0.500436
19 1 0.465823 0.650943 0.501912
41 1 0.587694 0.692221 0.498438
53 1 0.620455 0.798748 0.500795
13 1 0.706022 0.719102 0.502344
9 1 0.845204 0.795021 0.496864
51 1 0.0579276 0.823714 0.504392
22 1 0.386188 0.832148 0.497576
23 1 0.503619 0.774389 0.503284
7 1 0.718897 0.881062 0.50293
54 1 0.973485 0.773072 0.498051
16 1 0.140966 0.92278 0.498895
28 1 0.269898 0.870165 0.50144
2 1 0.370072 0.96161 0.497531
8 1 0.980113 0.906052 0.500205
ITEM: TIMESTEP
1500
ITEM: NUMBER OF ATOMS
46
ITEM: BOX BOUNDS pp pp pp
-4.8165294172369162e+00 4.8165294172369162e+00
-4.8252690304497445e+00 4.8252690304497445e+00
-1.0000000000000001e-01 1.0000000000000001e-01
ITEM: ATOMS id type xs ys zs
37 1 0.0501254 0.0325742 0.496274
49 1 0.162694 0.0487919 0.500526
71 1 0.421226 0.0648535 0.501913
38 1 0.228367 0.124465 0.497738
79 1 0.299073 0.194951 0.503083
34 1 0.349643 0.12507 0.502035
25 1 0.477598 0.139067 0.501112
12 1 0.624117 0.123769 0.502746
27 1 0.760153 0.195775 0.497828
3 1 0.89307 0.23599 0.503609
15 1 0.184632 0.362991 0.502716
47 1 0.287967 0.281474 0.49914
10 1 0.407092 0.241799 0.500105
36 1 0.554423 0.248324 0.499829
42 1 0.656874 0.251597 0.49965
46 1 0.355835 0.456631 0.49916
21 1 0.441583 0.386499 0.496652
80 1 0.533721 0.347994 0.499625
29 1 0.557843 0.442174 0.499517
31 1 0.628552 0.34887 0.497006
63 1 0.640844 0.45855 0.504177
5 1 0.765485 0.331585 0.501469
20 1 0.961995 0.435656 0.497622
52 1 0.880789 0.35327 0.505615
24 1 0.0826247 0.457819 0.495317
18 1 0.216201 0.509503 0.503715
60 1 0.444772 0.48934 0.50099
45 1 0.70294 0.444824 0.498545
14 1 0.82177 0.48017 0.501166
1 1 0.352409 0.56513 0.501697
50 1 0.520794 0.550085 0.503822
4 1 0.634097 0.570377 0.500074
19 1 0.466146 0.650556 0.500315
41 1 0.588051 0.692382 0.498137
53 1 0.620946 0.797795 0.499402
13 1 0.706433 0.718247 0.501097
9 1 0.844027 0.795038 0.497854
51 1 0.0571141 0.823506 0.502199
22 1 0.386258 0.832154 0.499927
23 1 0.504059 0.7744 0.500865
7 1 0.719011 0.880523 0.501464
54 1 0.972916 0.772981 0.500942
16 1 0.140196 0.922549 0.499753
28 1 0.269265 0.870653 0.50263
2 1 0.370557 0.960999 0.497047
8 1 0.979831 0.905849 0.500571
ITEM: TIMESTEP
1750
ITEM: NUMBER OF ATOMS
46
ITEM: BOX BOUNDS pp pp pp
-4.8153236232985597e+00 4.8153236232985597e+00
-4.8269544395392687e+00 4.8269544395392687e+00
-1.0000000000000001e-01 1.0000000000000001e-01
ITEM: ATOMS id type xs ys zs
37 1 0.0503688 0.0315631 0.494413
49 1 0.162755 0.0485323 0.499235
71 1 0.421813 0.0654971 0.502645
38 1 0.227897 0.124661 0.496629
79 1 0.29881 0.194471 0.503946
34 1 0.349003 0.124127 0.500029
25 1 0.47675 0.139876 0.499156
12 1 0.624083 0.123121 0.502817
27 1 0.760867 0.196244 0.496874
3 1 0.893938 0.236568 0.501744
15 1 0.183956 0.362829 0.503054
47 1 0.287499 0.280702 0.498714
10 1 0.406282 0.241509 0.499375
36 1 0.554332 0.248015 0.499985
42 1 0.656006 0.251158 0.499802
46 1 0.355605 0.455601 0.501842
21 1 0.44182 0.386102 0.495395
80 1 0.534489 0.347908 0.500025
29 1 0.557613 0.442387 0.500364
31 1 0.628752 0.348502 0.497288
63 1 0.640876 0.458012 0.505057
5 1 0.765351 0.330309 0.504592
20 1 0.961203 0.435421 0.497676
52 1 0.879896 0.353333 0.504367
24 1 0.0816334 0.457213 0.496202
18 1 0.214816 0.509935 0.505528
60 1 0.444506 0.489712 0.501378
45 1 0.702934 0.442909 0.498927
14 1 0.821082 0.480002 0.50089
1 1 0.351302 0.565076 0.501069
50 1 0.520517 0.550462 0.502863
4 1 0.634832 0.569331 0.500269
19 1 0.465822 0.650835 0.500792
41 1 0.587816 0.69121 0.49639
53 1 0.62018 0.797849 0.499165
13 1 0.705721 0.71883 0.501779
9 1 0.845062 0.795556 0.498971
51 1 0.0578145 0.823671 0.503112
22 1 0.386518 0.83248 0.501076
23 1 0.503294 0.773837 0.500985
7 1 0.71912 0.880654 0.502995
54 1 0.973668 0.772899 0.502583
16 1 0.140542 0.922487 0.502918
28 1 0.269716 0.869805 0.502019
2 1 0.37064 0.96181 0.498834
8 1 0.979562 0.905463 0.500432
ITEM: TIMESTEP
2000
ITEM: NUMBER OF ATOMS
46
ITEM: BOX BOUNDS pp pp pp
-4.8141178293602032e+00 4.8141178293602032e+00
-4.8321226694739652e+00 4.8321226694739652e+00
-1.0000000000000001e-01 1.0000000000000001e-01
ITEM: ATOMS id type xs ys zs
37 1 0.0505989 0.0323156 0.495466
49 1 0.16311 0.0480796 0.500968
71 1 0.421009 0.0660997 0.501554
38 1 0.227508 0.124216 0.496422
79 1 0.298146 0.195114 0.503012
34 1 0.348675 0.125254 0.500148
25 1 0.476209 0.140402 0.498426
12 1 0.622487 0.123511 0.503966
27 1 0.761519 0.195815 0.497643
3 1 0.894184 0.236882 0.500216
15 1 0.184418 0.363754 0.502758
47 1 0.287324 0.281576 0.497706
10 1 0.405875 0.241696 0.498311
36 1 0.55455 0.248579 0.499371
42 1 0.656778 0.251266 0.499987
46 1 0.3557 0.456108 0.500891
21 1 0.441396 0.386412 0.494159
80 1 0.533978 0.34838 0.498458
29 1 0.557437 0.442229 0.499857
31 1 0.62889 0.348534 0.498359
63 1 0.640703 0.457372 0.505253
5 1 0.766131 0.331462 0.504432
20 1 0.961725 0.435842 0.49862
52 1 0.880901 0.353813 0.50243
24 1 0.0821137 0.456466 0.495244
18 1 0.214182 0.510253 0.505849
60 1 0.444575 0.489216 0.50348
45 1 0.702789 0.443243 0.501399
14 1 0.821279 0.480573 0.501423
1 1 0.351108 0.56535 0.501006
50 1 0.521 0.550344 0.502032
4 1 0.634598 0.569142 0.501207
19 1 0.465206 0.649482 0.501179
41 1 0.587213 0.690696 0.497518
53 1 0.618993 0.798277 0.499389
13 1 0.705603 0.718706 0.501955
9 1 0.844378 0.796025 0.500756
51 1 0.0575002 0.823831 0.503202
22 1 0.385338 0.831589 0.501423
23 1 0.502281 0.772738 0.502539
7 1 0.718688 0.880399 0.50425
54 1 0.972964 0.773679 0.505839
16 1 0.140342 0.922626 0.502601
28 1 0.269412 0.870761 0.502732
2 1 0.371728 0.9614 0.498638
8 1 0.980326 0.90637 0.501668
ITEM: TIMESTEP
2250
ITEM: NUMBER OF ATOMS
46
ITEM: BOX BOUNDS pp pp pp
-4.8129120354218466e+00 4.8129120354218466e+00
-4.8418725586767524e+00 4.8418725586767524e+00
-1.0000000000000001e-01 1.0000000000000001e-01
ITEM: ATOMS id type xs ys zs
37 1 0.0505011 0.0317386 0.49348
49 1 0.163352 0.0482825 0.50232
71 1 0.419883 0.0655223 0.501593
38 1 0.227228 0.124756 0.496248
79 1 0.298255 0.194877 0.503656
34 1 0.348145 0.124948 0.498875
25 1 0.476287 0.139355 0.49594
12 1 0.623295 0.124531 0.503974
27 1 0.760551 0.196452 0.49754
3 1 0.894206 0.236406 0.500544
15 1 0.185307 0.365108 0.503456
47 1 0.287054 0.281319 0.498519
10 1 0.405893 0.241371 0.497987
36 1 0.553871 0.248663 0.499754
42 1 0.656082 0.251252 0.499865
46 1 0.355089 0.456427 0.499101
21 1 0.442188 0.387767 0.494654
80 1 0.533751 0.348033 0.497702
29 1 0.558695 0.442232 0.500791
31 1 0.628416 0.348455 0.498566
63 1 0.641529 0.45874 0.505968
5 1 0.766094 0.330711 0.501905
20 1 0.96272 0.435376 0.501024
52 1 0.881494 0.353505 0.502172
24 1 0.0825834 0.457438 0.4941
18 1 0.215175 0.510926 0.506611
60 1 0.443707 0.490567 0.503549
45 1 0.703109 0.443345 0.502994
14 1 0.822189 0.47961 0.50063
1 1 0.350748 0.565232 0.498934
50 1 0.521572 0.550212 0.502972
4 1 0.634983 0.569855 0.50238
19 1 0.465939 0.649312 0.502325
41 1 0.586759 0.690741 0.496724
53 1 0.619637 0.798716 0.499208
13 1 0.705343 0.719286 0.499347
9 1 0.844561 0.7942 0.499065
51 1 0.0572139 0.824177 0.502939
22 1 0.385642 0.831625 0.499596
23 1 0.503036 0.772675 0.500865
7 1 0.719627 0.880554 0.507065
54 1 0.973169 0.773479 0.505588
16 1 0.140554 0.922499 0.500605
28 1 0.270173 0.87063 0.50241
2 1 0.372433 0.960161 0.498889
8 1 0.979749 0.905846 0.503735
ITEM: TIMESTEP
2500
ITEM: NUMBER OF ATOMS
46
ITEM: BOX BOUNDS pp pp pp
-4.8117062414834910e+00 4.8117062414834910e+00
-4.8299402988559859e+00 4.8299402988559859e+00
-1.0000000000000001e-01 1.0000000000000001e-01
ITEM: ATOMS id type xs ys zs
37 1 0.0502715 0.0313193 0.492983
49 1 0.163617 0.0468853 0.502284
71 1 0.421666 0.0649258 0.500611
38 1 0.227938 0.123683 0.497191
79 1 0.298752 0.194409 0.503555
34 1 0.34928 0.124132 0.497649
25 1 0.477657 0.139645 0.495229
12 1 0.624533 0.124103 0.505624
27 1 0.760592 0.195115 0.498949
3 1 0.894066 0.235994 0.499711
15 1 0.185166 0.365675 0.501224
47 1 0.287116 0.280948 0.497618
10 1 0.406454 0.241031 0.496395
36 1 0.554169 0.248893 0.497944
42 1 0.655916 0.251434 0.500607
46 1 0.354539 0.456635 0.498861
21 1 0.441834 0.388357 0.495465
80 1 0.533927 0.349056 0.496709
29 1 0.558139 0.443432 0.499283
31 1 0.628526 0.349381 0.499063
63 1 0.640937 0.459726 0.504786
5 1 0.76532 0.330689 0.50145
20 1 0.961153 0.434814 0.49923
52 1 0.879867 0.353034 0.503827
24 1 0.0814542 0.457581 0.495071
18 1 0.213834 0.511585 0.507536
60 1 0.443322 0.4915 0.504785
45 1 0.702279 0.443241 0.502148
14 1 0.820836 0.480556 0.503627
1 1 0.349833 0.565357 0.498826
50 1 0.521048 0.551244 0.502029
4 1 0.634921 0.570878 0.500395
19 1 0.465271 0.649672 0.503412
41 1 0.586605 0.692073 0.496566
53 1 0.619348 0.79935 0.497325
13 1 0.705795 0.719152 0.501371
9 1 0.844538 0.794891 0.498622
51 1 0.0571569 0.82353 0.502899
22 1 0.384616 0.831338 0.498607
23 1 0.502745 0.773723 0.499749
7 1 0.718818 0.881548 0.507046
54 1 0.973135 0.772946 0.504701
16 1 0.140119 0.921543 0.502097
28 1 0.269422 0.870706 0.503291
2 1 0.371547 0.96066 0.500242
8 1 0.979631 0.905334 0.503261
ITEM: TIMESTEP
2750
ITEM: NUMBER OF ATOMS
46
ITEM: BOX BOUNDS pp pp pp
-4.8105004475451345e+00 4.8105004475451345e+00
-4.8343142267056161e+00 4.8343142267056161e+00
-1.0000000000000001e-01 1.0000000000000001e-01
ITEM: ATOMS id type xs ys zs
37 1 0.0503695 0.0312559 0.493006
49 1 0.162928 0.0480876 0.504519
71 1 0.421527 0.0651037 0.500141
38 1 0.227726 0.124253 0.497671
79 1 0.298858 0.193983 0.503336
34 1 0.349337 0.124428 0.498221
25 1 0.476408 0.139871 0.495065
12 1 0.623433 0.125316 0.506167
27 1 0.760278 0.196735 0.498678
3 1 0.893802 0.236198 0.500091
15 1 0.186618 0.365021 0.500761
47 1 0.286005 0.279804 0.500172
10 1 0.405416 0.241914 0.493323
36 1 0.553388 0.249568 0.498164
42 1 0.656236 0.25242 0.499321
46 1 0.355232 0.456595 0.49951
21 1 0.4412 0.386668 0.493663
80 1 0.533529 0.349038 0.49478
29 1 0.557951 0.442946 0.500591
31 1 0.628254 0.349232 0.49957
63 1 0.640981 0.459584 0.504811
5 1 0.7656 0.331306 0.500564
20 1 0.961636 0.435252 0.497602
52 1 0.881244 0.353181 0.503248
24 1 0.082178 0.455751 0.495315
18 1 0.214107 0.511916 0.507825
60 1 0.443852 0.490175 0.503122
45 1 0.70278 0.443781 0.502578
14 1 0.821399 0.480777 0.503922
1 1 0.350753 0.565693 0.498411
50 1 0.519658 0.55088 0.502935
4 1 0.633439 0.570755 0.499555
19 1 0.464733 0.650746 0.504611
41 1 0.586554 0.692353 0.498221
53 1 0.619838 0.798921 0.49602
13 1 0.705583 0.71938 0.500963
9 1 0.845045 0.79397 0.498896
51 1 0.0577633 0.823022 0.504579
22 1 0.38556 0.831597 0.499003
23 1 0.503164 0.774364 0.50237
7 1 0.7202 0.880665 0.506836
54 1 0.973542 0.772238 0.506894
16 1 0.141102 0.921843 0.503164
28 1 0.269751 0.870671 0.502609
2 1 0.371493 0.960657 0.498333
8 1 0.979821 0.90476 0.501248
ITEM: TIMESTEP
3000
ITEM: NUMBER OF ATOMS
46
ITEM: BOX BOUNDS pp pp pp
-4.8092946536067780e+00 4.8092946536067780e+00
-4.8396918893334577e+00 4.8396918893334577e+00
-1.0000000000000001e-01 1.0000000000000001e-01
ITEM: ATOMS id type xs ys zs
37 1 0.0500704 0.0301936 0.492695
49 1 0.162975 0.0470358 0.505252
71 1 0.420153 0.0648415 0.500007
38 1 0.226965 0.124078 0.496711
79 1 0.297921 0.193899 0.502263
34 1 0.348445 0.124612 0.497124
25 1 0.476517 0.139057 0.493633
12 1 0.623055 0.12387 0.506996
27 1 0.760057 0.19656 0.499118
3 1 0.893567 0.235427 0.499601
15 1 0.185829 0.366152 0.500392
47 1 0.285956 0.280325 0.49954
10 1 0.40566 0.240893 0.492362
36 1 0.553761 0.248338 0.499567
42 1 0.656074 0.251376 0.498936
46 1 0.353442 0.455633 0.498768
21 1 0.440865 0.387475 0.493772
80 1 0.533212 0.348362 0.494738
29 1 0.557781 0.442504 0.500927
31 1 0.627908 0.348454 0.49956
63 1 0.64091 0.459681 0.504563
5 1 0.765461 0.331021 0.50114
20 1 0.960833 0.434476 0.498093
52 1 0.881139 0.351818 0.503616
24 1 0.0812008 0.45735 0.494446
18 1 0.214235 0.511761 0.507694
60 1 0.442952 0.489668 0.505204
45 1 0.702205 0.442964 0.50264
14 1 0.820523 0.480418 0.504137
1 1 0.350448 0.565353 0.498786
50 1 0.519947 0.550048 0.501815
4 1 0.633518 0.570504 0.499073
19 1 0.465507 0.649811 0.503656
41 1 0.58691 0.692187 0.495978
53 1 0.620232 0.799471 0.49761
13 1 0.705515 0.718892 0.501643
9 1 0.845301 0.792743 0.497272
51 1 0.0584565 0.822396 0.507515
22 1 0.385852 0.831445 0.499043
23 1 0.503785 0.774343 0.50039
7 1 0.720844 0.880757 0.506299
54 1 0.97417 0.771924 0.505118
16 1 0.140556 0.921552 0.50452
28 1 0.270139 0.869284 0.502318
2 1 0.371235 0.960254 0.499201
8 1 0.980208 0.903668 0.50259
ITEM: TIMESTEP
3250
ITEM: NUMBER OF ATOMS
46
ITEM: BOX BOUNDS pp pp pp
-4.8080888596684215e+00 4.8080888596684215e+00
-4.8403482715622337e+00 4.8403482715622337e+00
-1.0000000000000001e-01 1.0000000000000001e-01
ITEM: ATOMS id type xs ys zs
37 1 0.0498432 0.0298314 0.490897
49 1 0.162726 0.0464894 0.504068
71 1 0.419862 0.065239 0.502696
38 1 0.226123 0.124102 0.498091
79 1 0.297209 0.194223 0.502798
34 1 0.347843 0.124715 0.496146
25 1 0.475876 0.139729 0.491662
12 1 0.622855 0.124965 0.507413
27 1 0.759402 0.196172 0.501245
3 1 0.893586 0.235572 0.497799
15 1 0.185654 0.365179 0.500486
47 1 0.285812 0.280183 0.49858
10 1 0.405084 0.241608 0.492834
36 1 0.553129 0.249131 0.499949
42 1 0.654931 0.251843 0.498963
46 1 0.354061 0.456405 0.49926
21 1 0.440422 0.387735 0.495402
80 1 0.53243 0.34885 0.493881
29 1 0.557423 0.442623 0.500682
31 1 0.627445 0.349117 0.498088
63 1 0.640513 0.458879 0.506482
5 1 0.765025 0.330235 0.501877
20 1 0.960882 0.434655 0.49586
52 1 0.879849 0.352492 0.50289
24 1 0.0807164 0.457922 0.493452
18 1 0.213 0.512056 0.508664
60 1 0.443272 0.490624 0.505188
45 1 0.702306 0.442874 0.50216
14 1 0.820418 0.479741 0.504736
1 1 0.349984 0.565062 0.497811
50 1 0.520323 0.550756 0.501978
4 1 0.634241 0.569891 0.500103
19 1 0.465132 0.649791 0.504816
41 1 0.586996 0.69083 0.496681
53 1 0.620776 0.797197 0.498077
13 1 0.70596 0.718497 0.501585
9 1 0.845541 0.793994 0.496208
51 1 0.057799 0.821422 0.508007
22 1 0.385775 0.831244 0.498097
23 1 0.503375 0.77284 0.500008
7 1 0.719878 0.880306 0.506635
54 1 0.973722 0.770843 0.504641
16 1 0.140711 0.921201 0.506359
28 1 0.270103 0.870311 0.502524
2 1 0.372059 0.960149 0.498347
8 1 0.979883 0.903501 0.504107
ITEM: TIMESTEP
3500
ITEM: NUMBER OF ATOMS
46
ITEM: BOX BOUNDS pp pp pp
-4.8068830657300659e+00 4.8068830657300659e+00
-4.8383892488850986e+00 4.8383892488850986e+00
-1.0000000000000001e-01 1.0000000000000001e-01
ITEM: ATOMS id type xs ys zs
37 1 0.0488593 0.029127 0.491862
49 1 0.162039 0.0463692 0.502931
71 1 0.420072 0.0659506 0.503184
38 1 0.225708 0.124154 0.496884
79 1 0.297024 0.194324 0.501812
34 1 0.347362 0.124384 0.4971
25 1 0.476227 0.139399 0.490683
12 1 0.623585 0.124789 0.506721
27 1 0.758293 0.19463 0.500729
3 1 0.892301 0.235302 0.49673
15 1 0.185258 0.36516 0.501414
47 1 0.286107 0.280483 0.497921
10 1 0.405198 0.240929 0.493833
36 1 0.552799 0.248914 0.49816
42 1 0.655085 0.252182 0.498788
46 1 0.353905 0.456489 0.499612
21 1 0.439954 0.387656 0.495755
80 1 0.5323 0.348476 0.494025
29 1 0.556216 0.442996 0.499073
31 1 0.627043 0.34955 0.498599
63 1 0.639241 0.459114 0.506227
5 1 0.76421 0.329593 0.502575
20 1 0.960769 0.43368 0.495101
52 1 0.87904 0.352398 0.502897
24 1 0.0808708 0.456551 0.492489
18 1 0.213145 0.510983 0.508723
60 1 0.443099 0.490135 0.50442
45 1 0.701076 0.442119 0.50335
14 1 0.820034 0.478422 0.505881
1 1 0.349556 0.565316 0.496482
50 1 0.520189 0.550909 0.502163
4 1 0.634311 0.570175 0.500737
19 1 0.464547 0.64932 0.50303
41 1 0.587194 0.690764 0.498578
53 1 0.62006 0.797987 0.497298
13 1 0.706294 0.71902 0.501935
9 1 0.844891 0.794724 0.495219
51 1 0.0575737 0.821252 0.507368
22 1 0.385745 0.83187 0.49739
23 1 0.503018 0.773427 0.499602
7 1 0.719107 0.880532 0.507528
54 1 0.973195 0.770379 0.504268
16 1 0.139807 0.92068 0.505312
28 1 0.270243 0.870848 0.503905
2 1 0.373077 0.960553 0.498781
8 1 0.978925 0.902483 0.502779
ITEM: TIMESTEP
3750
ITEM: NUMBER OF ATOMS
46
ITEM: BOX BOUNDS pp pp pp
-4.8056772717917093e+00 4.8056772717917093e+00
-4.8458563190930803e+00 4.8458563190930803e+00
-1.0000000000000001e-01 1.0000000000000001e-01
ITEM: ATOMS id type xs ys zs
37 1 0.0491151 0.028499 0.490789
49 1 0.162215 0.0460892 0.502131
71 1 0.418896 0.066829 0.505527
38 1 0.225025 0.124026 0.497891
79 1 0.295394 0.194945 0.501598
34 1 0.346308 0.125603 0.497439
25 1 0.474851 0.140445 0.490746
12 1 0.62214 0.125914 0.507889
27 1 0.758351 0.195357 0.500498
3 1 0.89226 0.23535 0.49675
15 1 0.185367 0.364942 0.502317
47 1 0.285589 0.281085 0.49824
10 1 0.404175 0.241713 0.492759
36 1 0.552265 0.249928 0.49896
42 1 0.654975 0.2531 0.499269
46 1 0.352739 0.457081 0.499327
21 1 0.439447 0.388018 0.497011
80 1 0.531899 0.349076 0.491895
29 1 0.556317 0.442627 0.499026
31 1 0.626781 0.349708 0.4986
63 1 0.639616 0.458389 0.506801
5 1 0.763666 0.329855 0.501411
20 1 0.960679 0.433003 0.494012
52 1 0.878729 0.352112 0.502907
24 1 0.0809682 0.456046 0.491504
18 1 0.213089 0.510917 0.510439
60 1 0.442339 0.490501 0.503372
45 1 0.70142 0.442393 0.503888
14 1 0.819655 0.47823 0.505864
1 1 0.34893 0.566005 0.49479
50 1 0.519666 0.550857 0.50401
4 1 0.633914 0.56956 0.500989
19 1 0.464391 0.650053 0.503651
41 1 0.586422 0.69106 0.499117
53 1 0.620068 0.797672 0.497968
13 1 0.705303 0.718847 0.503298
9 1 0.844973 0.794413 0.495177
51 1 0.057028 0.821673 0.508158
22 1 0.385775 0.832089 0.49671
23 1 0.502509 0.773101 0.499539
7 1 0.719446 0.880278 0.508705
54 1 0.973157 0.7708 0.504504
16 1 0.140003 0.920511 0.505053
28 1 0.269885 0.871035 0.503581
2 1 0.371554 0.961337 0.497131
8 1 0.978499 0.902507 0.5051
ITEM: TIMESTEP
4000
ITEM: NUMBER OF ATOMS
46
ITEM: BOX BOUNDS pp pp pp
-4.8044714778533528e+00 4.8044714778533528e+00
-4.8498386562905669e+00 4.8498386562905669e+00
-1.0000000000000001e-01 1.0000000000000001e-01
ITEM: ATOMS id type xs ys zs
37 1 0.0489561 0.0294803 0.490968
49 1 0.162463 0.0456957 0.500545
71 1 0.418786 0.0670263 0.506647
38 1 0.225262 0.123581 0.49499
79 1 0.296111 0.195099 0.501285
34 1 0.346546 0.125734 0.497132
25 1 0.474742 0.140665 0.490577
12 1 0.621563 0.125508 0.507365
27 1 0.758698 0.19583 0.499656
3 1 0.892328 0.235626 0.494966
15 1 0.186069 0.365531 0.504275
47 1 0.286169 0.281662 0.498317
10 1 0.404468 0.24176 0.493661
36 1 0.552248 0.250035 0.498687
42 1 0.655004 0.252588 0.499255
46 1 0.35243 0.457825 0.500782
21 1 0.438824 0.388142 0.496685
80 1 0.531573 0.349267 0.491319
29 1 0.55624 0.44292 0.497936
31 1 0.626501 0.349399 0.497476
63 1 0.639332 0.459656 0.507497
5 1 0.763711 0.329781 0.499889
20 1 0.960289 0.43444 0.495588
52 1 0.879014 0.352265 0.501375
24 1 0.080932 0.456349 0.492582
18 1 0.213209 0.511268 0.510927
60 1 0.441611 0.490927 0.505227
45 1 0.700688 0.44167 0.504868
14 1 0.819408 0.478389 0.505127
1 1 0.349109 0.566643 0.49357
50 1 0.519109 0.550754 0.503162
4 1 0.633183 0.570262 0.501642
19 1 0.464903 0.64992 0.502193
41 1 0.586106 0.690877 0.500179
53 1 0.61941 0.797208 0.496658
13 1 0.70497 0.718421 0.502634
9 1 0.844088 0.794404 0.495614
51 1 0.0567358 0.82098 0.508228
22 1 0.385726 0.832856 0.495185
23 1 0.50232 0.773102 0.502907
7 1 0.719197 0.879242 0.506394
54 1 0.972247 0.770776 0.503329
16 1 0.139588 0.920487 0.507038
28 1 0.270122 0.872183 0.503463
2 1 0.372227 0.96153 0.49684
8 1 0.979343 0.902982 0.506456
ITEM: TIMESTEP
4250
ITEM: NUMBER OF ATOMS
46
ITEM: BOX BOUNDS pp pp pp
-4.8032656839149963e+00 4.8032656839149963e+00
-4.8414127933955484e+00 4.8414127933955484e+00
-1.0000000000000001e-01 1.0000000000000001e-01
ITEM: ATOMS id type xs ys zs
37 1 0.0483402 0.028625 0.490264
49 1 0.161996 0.04637 0.498847
71 1 0.4197 0.0667764 0.504912
38 1 0.226059 0.123615 0.494279
79 1 0.296458 0.195331 0.500365
34 1 0.34737 0.125629 0.497004
25 1 0.475959 0.140674 0.492322
12 1 0.623134 0.124658 0.507138
27 1 0.759652 0.19445 0.502255
3 1 0.893278 0.235425 0.494582
15 1 0.185603 0.367176 0.505488
47 1 0.28589 0.281579 0.499845
10 1 0.404546 0.242247 0.49417
36 1 0.553501 0.249049 0.4993
42 1 0.656251 0.251613 0.500235
46 1 0.352632 0.456879 0.499902
21 1 0.439411 0.387539 0.495212
80 1 0.53216 0.348335 0.491273
29 1 0.55656 0.442133 0.498805
31 1 0.627482 0.349133 0.498606
63 1 0.639757 0.458075 0.508136
5 1 0.764564 0.329652 0.49943
20 1 0.960485 0.434179 0.496432
52 1 0.879318 0.351821 0.50089
24 1 0.0809043 0.457598 0.49431
18 1 0.211679 0.514518 0.511959
60 1 0.442283 0.49007 0.505212
45 1 0.701186 0.441363 0.503229
14 1 0.819199 0.478483 0.504036
1 1 0.349832 0.565334 0.49397
50 1 0.5195 0.549933 0.503115
4 1 0.633199 0.569256 0.500367
19 1 0.46489 0.649535 0.501482
41 1 0.586919 0.691462 0.499978
53 1 0.619754 0.795538 0.495493
13 1 0.706143 0.717364 0.503568
9 1 0.844838 0.79433 0.496128
51 1 0.0565232 0.822177 0.507554
22 1 0.385705 0.832307 0.494393
23 1 0.50237 0.772495 0.501073
7 1 0.717736 0.878733 0.507458
54 1 0.973136 0.770538 0.504438
16 1 0.139453 0.920709 0.507874
28 1 0.270148 0.871972 0.504617
2 1 0.372982 0.961332 0.497159
8 1 0.977827 0.902561 0.503616
ITEM: TIMESTEP
4500
ITEM: NUMBER OF ATOMS
46
ITEM: BOX BOUNDS pp pp pp
-4.8020598899766407e+00 4.8020598899766407e+00
-4.8438679855962654e+00 4.8438679855962654e+00
-1.0000000000000001e-01 1.0000000000000001e-01
ITEM: ATOMS id type xs ys zs
37 1 0.0488637 0.0294979 0.491647
49 1 0.161479 0.0469142 0.499603
71 1 0.419782 0.066946 0.505216
38 1 0.225915 0.123371 0.493761
79 1 0.295756 0.194863 0.501513
34 1 0.347137 0.125495 0.495017
25 1 0.475281 0.140744 0.493038
12 1 0.622678 0.124224 0.508353
27 1 0.759369 0.194889 0.501079
3 1 0.893829 0.234725 0.495335
15 1 0.185567 0.367041 0.505711
47 1 0.284787 0.280828 0.500185
10 1 0.404469 0.241941 0.494442
36 1 0.553056 0.249098 0.500126
42 1 0.655459 0.251154 0.50017
46 1 0.353179 0.456453 0.501418
21 1 0.439804 0.387391 0.495939
80 1 0.532785 0.348679 0.49173
29 1 0.556538 0.442476 0.498191
31 1 0.628069 0.348582 0.498274
63 1 0.639752 0.458581 0.507769
5 1 0.765198 0.328493 0.498655
20 1 0.960116 0.433833 0.495066
52 1 0.879894 0.350904 0.500475
24 1 0.0805214 0.457929 0.4948
18 1 0.21168 0.514522 0.511248
60 1 0.442379 0.489783 0.504032
45 1 0.701042 0.440542 0.504903
14 1 0.819425 0.478031 0.505666
1 1 0.349461 0.565402 0.493796