LAMMPS (23 Jun 2022 - Update 4)
  using 1 OpenMP thread(s) per MPI task
# Compute elastic constant tensor for a crystal
#
# Written by Aidan Thompson (Sandia, athomps@sandia.gov)
#
#  This script uses the following three include files.
#
#   init.mod      (must be modified for different crystal structures)
# 	       	  Define units, deformation parameters and initial
#		  configuration of the atoms and simulation cell.
#
#
#   potential.mod    (must be modified for different pair styles)
# 		     Define pair style and other attributes
#		     not stored in restart file
#
#
#   displace.mod    (displace.mod should not need to be modified)
# 		    Perform positive and negative box displacements
# 		    in direction ${dir} and size ${up}.
# 		    It uses the resultant changes
#		    in stress to compute one
# 		    row of the elastic stiffness tensor
#
#		    Inputs variables:
#		    	   dir = the Voigt deformation component
#		    		    (1,2,3,4,5,6)
#		    Global constants:
#       	    	   up = the deformation magnitude (strain units)
#       		   cfac = conversion from LAMMPS pressure units to
#               	   output units for elastic constants
#
#
#  To run this on a different system, it should only be necessary to
#  modify the files init.mod and potential.mod. In order to calculate
#  the elastic constants correctly, care must be taken to specify
#  the correct units in init.mod (units, cfac and cunits). It is also
#  important to verify that the minimization of energy w.r.t atom
#  positions in the deformed cell is fully converged.
#  One indication of this is that the elastic constants are insensitive
#  to the choice of the variable ${up} in init.mod. Another is to check
#  the final max and two-norm forces reported in the log file. If you know
#  that minimization is not required, you can set maxiter = 0.0 in
#  init.mod.
#



variable dt equal 0.01
variable strain equal 0.05
variable srate equal 1e-4
variable M equal 1000 # averaging time for properties
variable strainsteps equal ${strain}/${dt}/${srate}
variable strainsteps equal 0.05/${dt}/${srate}
variable strainsteps equal 0.05/0.01/${srate}
variable strainsteps equal 0.05/0.01/0.0001


dimension 2
include init.mod
# NOTE: This script can be modified for different atomic structures,
# units, etc. See in.elastic for more info.
#

# Define the finite deformation size. Try several values of this
# variable to verify that results do not depend on it.
variable up equal 1.0e-1

# Define the amount of random jiggle for atoms
# This prevents atoms from staying on saddle points
variable atomjiggle equal 1.0e-6

# Uncomment one of these blocks, depending on what units
# you are using in LAMMPS and for output

# metal units, elastic constants in eV/A^3
#units		metal
#variable cfac equal 6.2414e-7
#variable cunits string eV/A^3

# Choose potential
# metal units, elastic constants in GPa
units		metal
atom_style	full
#pair_style      lj/cut 1.0
#pair_style      yukawa 1.0 2.0
#pair_modify     mix arithmetic
bond_style      harmonic
angle_style     harmonic
dihedral_style  zero
special_bonds   amber
variable cfac equal 1.0e-4
variable cunits string GPa
boundary	p p p

# Need to set mass to something, just to satisfy LAMMPS
#mass 1 1.0e-20
read_data network.lmp
Reading data file ...
  orthogonal box = (-4.823176 -4.823176 -0.1) to (4.823176 4.823176 0.1)
  1 by 1 by 1 MPI processor grid
WARNING: Atom style in data file differs from currently defined atom style (src/read_data.cpp:538)
  reading atoms ...
  46 atoms
WARNING: Bond style in data file differs from currently defined bond style (src/read_data.cpp:630)
  scanning bonds ...
  4 = max bonds/atom
  reading bonds ...
  93 bonds
Finding 1-2 1-3 1-4 neighbors ...
  special bond factors lj:    0        0        0.5     
  special bond factors coul:  0        0        0.8333333333333334
     7 = max # of 1-2 neighbors
    25 = max # of 1-3 neighbors
   129 = max # of 1-4 neighbors
    27 = max # of special neighbors
  special bonds CPU = 0.000 seconds
  read_data CPU = 0.003 seconds

# real units, elastic constants in GPa
#units		real
#variable cfac equal 1.01325e-4
#variable cunits string GPa

# Define minimization parameters
variable etol equal 0.0
variable ftol equal 5.0e-10
variable maxiter equal 100000
variable maxeval equal 20000
variable dmax equal 1.0e-2


include potential.mod
# NOTE: This script can be modified for different pair styles
# See in.elastic for more info.

# Setup neighbor style
neighbor 3.0 nsq
neigh_modify once no every 1 delay 0 check yes
comm_modify cutoff 2.0

# Setup minimization style
min_style	     cg
min_modify	     dmax ${dmax} line quadratic
min_modify	     dmax 0.01 line quadratic

timestep	0.001


# Setup output
thermo		500
thermo_style custom step temp pe ebond eangle edihed press pxx pyy pzz pxy pxz pyz lx ly lz vol
thermo_modify norm no


#change_box all triclinic
comm_modify mode single cutoff 10.0 vel yes
atom_modify sort 0 0



# Compute initial state

#dump rela all atom 1 traj_relax.lmpstrj
fix 3 all box/relax x 0 y 0 # xy 0  #MS comment: relax if the network is periodic
minimize ${etol} ${ftol} ${maxiter} ${maxeval}
minimize 0 ${ftol} ${maxiter} ${maxeval}
minimize 0 5e-10 ${maxiter} ${maxeval}
minimize 0 5e-10 100000 ${maxeval}
minimize 0 5e-10 100000 20000
Neighbor list info ...
  update every 1 steps, delay 0 steps, check yes
  max neighbors/atom: 2000, page size: 100000
  master list distance cutoff = 0
  ghost atom cutoff = 10
  0 neighbor lists, perpetual/occasional/extra = 0 0 0
WARNING: Inconsistent image flags (src/domain.cpp:819)
Per MPI rank memory allocation (min/avg/max) = 8.517 | 8.517 | 8.517 Mbytes
   Step          Temp          PotEng         E_bond        E_angle        E_dihed         Press           Pxx            Pyy            Pzz            Pxy            Pxz            Pyz             Lx             Ly             Lz           Volume    
         0   0              1.9081694e-11  1.9081694e-11  0              0             -0.079892919   -0.10832739    -0.05145845     0             -0.048857816    0              0              9.646352       9.646352       0.2            93.052107    
       122   0              3.9678107e-20  3.9678107e-20  0              0             -2.5213971e-07  1.6100839e-06 -2.1143634e-06  0             -6.9619705e-07  0              0              9.6463515      9.6463515      0.2            93.052097    
Loop time of 0.00468681 on 1 procs for 122 steps with 46 atoms

91.9% CPU use with 1 MPI tasks x 1 OpenMP threads

Minimization stats:
  Stopping criterion = force tolerance
  Energy initial, next-to-last, final = 
    1.9081694344941e-11 4.51983520206756e-20 3.96781068638057e-20
  Force two-norm initial, final = 1.6197572e-05 3.3673045e-10
  Force max component initial, final = 6.2914989e-06 1.2279918e-10
  Final line search alpha, max atom move = 1 1.2279918e-10
  Iterations, force evaluations = 122 244

MPI task timing breakdown:
Section |  min time  |  avg time  |  max time  |%varavg| %total
---------------------------------------------------------------
Pair    | 0          | 0          | 0          |   0.0 |  0.00
Bond    | 0.00060001 | 0.00060001 | 0.00060001 |   0.0 | 12.80
Neigh   | 0          | 0          | 0          |   0.0 |  0.00
Comm    | 0.0014793  | 0.0014793  | 0.0014793  |   0.0 | 31.56
Output  | 0          | 0          | 0          |   0.0 |  0.00
Modify  | 0          | 0          | 0          |   0.0 |  0.00
Other   |            | 0.002607   |            |       | 55.63

Nlocal:             46 ave          46 max          46 min
Histogram: 1 0 0 0 0 0 0 0 0 0
Nghost:            377 ave         377 max         377 min
Histogram: 1 0 0 0 0 0 0 0 0 0
Neighs:              0 ave           0 max           0 min
Histogram: 1 0 0 0 0 0 0 0 0 0

Total # of neighbors = 0
Ave neighs/atom = 0
Ave special neighs/atom = 17.956522
Neighbor list builds = 0
Dangerous builds = 0
#dump rela all atom 1 traj_relax.lmpstrj
thermo 100
unfix 3

fix 2d all enforce2d



#dump dump0 all xyz 1000000 cfg0.xyz
#dump_modify dump0 format line "%d %20.10g %20.10g %20.10g"
#minimize ${etol} ${ftol} ${maxiter} ${maxeval}

#undump rela

#write_restart restart.equil

# These formulas define the derivatives w.r.t. strain components
# Constants uses $, variables use v_


timestep        ${dt}
timestep        0.01
variable nsteps equal round(${strainsteps})
variable nsteps equal round(50000)

fix             4 all nve
fix             5 all langevin 0.1 0.1 1 904297
#fix		6 all press/berendsen y  0.0 0.0 1 x 0.0 0.0 10
fix             6 all nph y 0.0 0.0 10 ptemp 0.1 # x 0.0 0.0 10

# For PLUMED2
# fix 22 all plumed plumedfile plumed.dat outfile plumed.out

#fix             6 all nph x 0.0 0.0 10
fix     	9 all deform 1 x erate -${srate} units box remap x
fix     	9 all deform 1 x erate -0.0001 units box remap x

#fix     8 all deform 1 xy erate ${srate} units box remap x



#fix    10 all ave/time

dump 1 all atom 250 deform_dump.lammpstrj


#To avoid flying ice cube phenomenon:
#fix 21 all momentum 100 linear 1 1 1 angular


run  ${nsteps}
run  50000
WARNING: One or more atoms are time integrated more than once (src/modify.cpp:292)
WARNING: Inconsistent image flags (src/domain.cpp:819)
Per MPI rank memory allocation (min/avg/max) = 7.392 | 7.392 | 7.392 Mbytes
   Step          Temp          PotEng         E_bond        E_angle        E_dihed         Press           Pxx            Pyy            Pzz            Pxy            Pxz            Pyz             Lx             Ly             Lz           Volume    
       122   0              3.9678107e-20  3.9678107e-20  0              0             -2.5213971e-07  1.6100839e-06 -2.1143634e-06  0             -6.9619705e-07  0              0              9.6463515      9.6463515      0.2            93.052097    
       200   0.12435418     0.00046705723  0.00046705723  0              0              249.28775      585.08187     -86.663181      0             -30.233648      0              0              9.6455991      9.6528149      0.2            93.107183    
       300   0.21724248     0.00050734854  0.00050734854  0              0              755.85003      1449.5275      62.046716      0             -326.49509      0              0              9.6446345      9.6450579      0.2            93.023057    
       400   0.16164943     0.00059145914  0.00059145914  0              0              614.72661      1114.7337      114.59769      0              220.06523      0              0              9.6436698      9.6343197      0.2            92.910198    
       500   0.15281222     0.0006768945   0.0006768945   0              0             -38.79115       60.266376     -137.99833      0              275.87327      0              0              9.6427052      9.6439324      0.2            92.993597    
       600   0.18987612     0.00066304691  0.00066304691  0              0              296.12023      402.1244       189.99733      0             -4.6472232      0              0              9.6417406      9.6430334      0.2            92.975627    
       700   0.19896871     0.0006265016   0.0006265016   0              0              122.62541      311.36692     -66.252882      0              151.15475      0              0              9.6407759      9.6584699      0.2            93.115144    
       800   0.28839297     0.00068151462  0.00068151462  0              0              125.27514      363.20879     -112.8113       0             -23.169063      0              0              9.6398113      9.655623       0.2            93.078384    
       900   0.19995791     0.00088743987  0.00088743987  0              0              415.35456      555.71828      274.82296      0             -146.81781      0              0              9.6388466      9.648786       0.2            93.003168    
      1000   0.21744374     0.00081673617  0.00081673617  0              0              167.97998      661.43917     -325.6127       0              420.83828      0              0              9.637882       9.6547749      0.2            93.051581    
      1100   0.18300604     0.0007259012   0.0007259012   0              0             -78.169267     -301.77325      145.29291      0             -213.47309      0              0              9.6369174      9.6480518      0.2            92.977478    
      1200   0.24171087     0.00059456241  0.00059456241  0              0             -16.526539     -101.21923      68.054996      0              114.7519       0              0              9.6359527      9.6439792      0.2            92.928928    
      1300   0.26475577     0.00069396697  0.00069396697  0              0             -42.555764      126.93042     -212.15744      0              231.62557      0              0              9.6349881      9.6595958      0.2            93.07009     
      1400   0.20073309     0.0006044182   0.0006044182   0              0             -9.73547       -345.21087      325.62129      0              323.90422      0              0              9.6340235      9.6522154      0.2            92.98967     
      1500   0.23470962     0.00075057964  0.00075057964  0              0             -204.69819      7.2551155     -416.81518      0              295.74865      0              0              9.6330588      9.6505381      0.2            92.964201    
      1600   0.19602325     0.00047516072  0.00047516072  0              0              288.85709      315.02088      262.57672      0             -161.16161      0              0              9.6320942      9.6436473      0.2            92.888519    
      1700   0.15633144     0.00065874568  0.00065874568  0              0             -105.59328     -76.163535     -135.1383       0              1.8900952      0              0              9.6311296      9.6503276      0.2            92.943555    
      1800   0.22272733     0.00070324751  0.00070324751  0              0             -296.23537     -426.95181     -165.68429      0              87.319937      0              0              9.6301649      9.6576477      0.2            93.00474     
      1900   0.21886806     0.000795003    0.000795003    0              0              18.537569     -276.5981       313.56593      0             -189.37426      0              0              9.6292003      9.6578998      0.2            92.997852    
      2000   0.24656199     0.00084633871  0.00084633871  0              0             -125.28403      157.75431     -408.46604      0              375.58952      0              0              9.6282357      9.6642453      0.2            93.049632    
      2100   0.24167482     0.0006349939   0.0006349939   0              0              94.806965     -207.38752      396.88428      0              120.71244      0              0              9.627271       9.666225       0.2            93.059368    
      2200   0.20072377     0.00073276673  0.00073276673  0              0             -89.900601      45.706319     -225.66042      0             -289.89979      0              0              9.6263064      9.6784679      0.2            93.167897    
      2300   0.17099735     0.00047115452  0.00047115452  0              0             -130.86961     -295.64652      33.766962      0              56.030511      0              0              9.6253418      9.6797887      0.2            93.171275    
      2400   0.2428087      0.00073045743  0.00073045743  0              0              277.69659      282.94845      272.2932       0              300.58129      0              0              9.6243771      9.6681637      0.2            93.050053    
      2500   0.15907145     0.00082022156  0.00082022156  0              0             -236.08152     -14.852203     -457.41203      0              440.25313      0              0              9.6234125      9.6598806      0.2            92.961016    
      2600   0.20242697     0.00062734727  0.00062734727  0              0              509.36104      532.86684      485.72226      0              6.7833757      0              0              9.6224478      9.6533624      0.2            92.888976    
      2700   0.22917236     0.00054093496  0.00054093496  0              0              101.28609      521.80148     -319.35689      0             -357.34235      0              0              9.6214832      9.6731526      0.2            93.070075    
      2800   0.20778509     0.00093311449  0.00093311449  0              0              368.22693      589.60096      146.71008      0             -599.76039      0              0              9.6205186      9.6719576      0.2            93.049248    
      2900   0.2306565      0.00079188717  0.00079188717  0              0              67.755017     -22.003496      157.37516      0             -806.7536       0              0              9.6195539      9.6733131      0.2            93.052957    
      3000   0.22798128     0.00074060178  0.00074060178  0              0             -375.67465     -252.62679     -498.8478       0             -218.62997      0              0              9.6185893      9.6793838      0.2            93.102017    
      3100   0.20248549     0.00074634988  0.00074634988  0              0              525.88382      456.7511       594.85601      0              65.340902      0              0              9.6176247      9.673379       0.2            93.034928    
      3200   0.21841145     0.00058322275  0.00058322275  0              0             -435.0182      -226.49305     -643.68314      0             -494.36652      0              0              9.61666        9.6816369      0.2            93.105011    
      3300   0.15072994     0.00070843772  0.00070843772  0              0              171.35322     -157.73529      500.30964      0             -790.59345      0              0              9.6156954      9.6713997      0.2            92.997233    
      3400   0.19972364     0.00099238158  0.00099238158  0              0              358.36804      813.11991     -96.516588      0             -657.33319      0              0              9.6147308      9.6765855      0.2            93.037765    
      3500   0.1979134      0.00071867442  0.00071867442  0              0             -712.36269     -1111.2789     -313.56648      0             -567.32252      0              0              9.6137661      9.6767785      0.2            93.030285    
      3600   0.22379305     0.00082509332  0.00082509332  0              0              830.65693      1086.5025      574.64654      0             -631.55833      0              0              9.6128015      9.681503       0.2            93.066367    
      3700   0.21471986     0.00086757374  0.00086757374  0              0             -777.30111     -831.35146     -723.37982      0             -572.75048      0              0              9.6118369      9.6925653      0.2            93.163356    
      3800   0.13663115     0.00097561602  0.00097561602  0              0              310.78568      76.486892      544.95665      0             -1262.6901      0              0              9.6108722      9.6873046      0.2            93.103447    
      3900   0.20535989     0.0007839754   0.0007839754   0              0             -177.63525     -51.366747     -304.06152      0             -124.93863      0              0              9.6099076      9.6965131      0.2            93.182595    
      4000   0.30753655     0.0006796744   0.0006796744   0              0              47.994741      162.49641     -66.65553       0             -933.81074      0              0              9.608943       9.6996773      0.2            93.203646    
      4100   0.17469539     0.00066475552  0.00066475552  0              0              520.7309       673.66473      367.66816      0             -416.2738       0              0              9.6079783      9.6968039      0.2            93.166681    
      4200   0.24262846     0.00063199335  0.00063199335  0              0             -465.41528     -440.91061     -490.02876      0             -251.43025      0              0              9.6070137      9.6930703      0.2            93.121459    
      4300   0.16468563     0.00053500323  0.00053500323  0              0              143.36912     -357.91308      644.5168       0             -214.42467      0              0              9.6060491      9.6798824      0.2            92.985425    
      4400   0.234048       0.00080215047  0.00080215047  0              0             -250.025        95.974163     -596.14008      0             -22.18          0              0              9.6050844      9.6922152      0.2            93.094546    
      4500   0.25524905     0.00064108189  0.00064108189  0              0              344.75964      208.46567      480.95465      0              189.01403      0              0              9.6041198      9.687736       0.2            93.042177    
      4600   0.20715352     0.0008681627   0.0008681627   0              0             -69.234423      117.46694     -256.05643      0              22.05348       0              0              9.6031551      9.7092096      0.2            93.239047    
      4700   0.21840517     0.00061343565  0.00061343565  0              0             -250.52153     -533.56126      32.382803      0             -88.465975      0              0              9.6021905      9.703132       0.2            93.171322    
      4800   0.22118591     0.00082448392  0.00082448392  0              0              192.51517      51.036918      333.87469      0             -351.57812      0              0              9.6012259      9.7010287      0.2            93.141768    
      4900   0.1506883      0.00069288424  0.00069288424  0              0              267.62981      1109.3514     -574.23064      0             -443.70391      0              0              9.6002612      9.701801       0.2            93.139824    
      5000   0.17006993     0.00088319197  0.00088319197  0              0              1025.8716      1384.1779      667.42374      0             -0.96332622     0              0              9.5992966      9.6955639      0.2            93.070594    
      5100   0.27509413     0.00072774964  0.00072774964  0              0             -71.543277      401.37236     -544.57693      0              193.52457      0              0              9.598332       9.7016121      0.2            93.119294    
      5200   0.14708263     0.0010124757   0.0010124757   0              0              580.78693      938.55357      222.88584      0             -730.43721      0              0              9.5973673      9.7031336      0.2            93.124537    
      5300   0.22157076     0.00093593447  0.00093593447  0              0              299.10489      622.21641     -24.127899      0             -1188.2695      0              0              9.5964027      9.7055257      0.2            93.138133    
      5400   0.20139469     0.00083329691  0.00083329691  0              0             -162.11751     -161.17829     -163.20081      0             -558.50513      0              0              9.5954381      9.7153332      0.2            93.222878    
      5500   0.19553231     0.00078097379  0.00078097379  0              0              341.95567      408.4125       275.39485      0             -40.506115      0              0              9.5944734      9.7175133      0.2            93.234423    
      5600   0.23902485     0.00086095749  0.00086095749  0              0             -100.83843      162.38045     -364.20609      0              510.79404      0              0              9.5935088      9.7246662      0.2            93.293671    
      5700   0.24612717     0.00084977082  0.00084977082  0              0              530.06398      774.28035      285.6713       0             -374.35513      0              0              9.5925442      9.7169406      0.2            93.210182    
      5800   0.20960662     0.00087303955  0.00087303955  0              0             -295.78761     -403.9804      -187.70293      0              155.40863      0              0              9.5915795      9.7227808      0.2            93.256825    
      5900   0.13464443     0.00081060353  0.00081060353  0              0              267.33837      418.81271      115.73343      0             -200.77265      0              0              9.5906149      9.7126919      0.2            93.150687    
      6000   0.19666764     0.00076167365  0.00076167365  0              0              246.06346      437.78498      54.212221      0             -614.30675      0              0              9.5896503      9.7164442      0.2            93.177301    
      6100   0.23148722     0.00092526999  0.00092526999  0              0              251.80304      647.06001     -143.58497      0             -910.17669      0              0              9.5886856      9.7127847      0.2            93.132839    
      6200   0.24265767     0.00085686062  0.00085686062  0              0              465.25743      664.36348      265.99106      0             -735.54255      0              0              9.587721       9.7173732      0.2            93.167463    
      6300   0.17953415     0.00082484283  0.00082484283  0              0              639.3468       1583.4715     -304.91861      0             -345.66414      0              0              9.5867563      9.7155838      0.2            93.140935    
      6400   0.2517869      0.00082905803  0.00082905803  0              0              588.94204      916.62117      261.12855      0             -357.11215      0              0              9.5857917      9.7116177      0.2            93.093544    
      6500   0.20192666     0.00085401854  0.00085401854  0              0              388.49592      881.03671     -104.15676      0             -704.09337      0              0              9.5848271      9.7185315      0.2            93.150444    
      6600   0.16912227     0.00093249319  0.00093249319  0              0              656.5976       1362.7713     -49.685225      0             -403.54429      0              0              9.5838624      9.7115218      0.2            93.073889    
      6700   0.2160232      0.00077428642  0.00077428642  0              0              548.84354      903.65311      193.86972      0             -177.91273      0              0              9.5828978      9.7086861      0.2            93.037347    
      6800   0.20535904     0.00082679297  0.00082679297  0              0              304.38399      964.70946     -356.07088      0             -730.22431      0              0              9.5819332      9.7022029      0.2            92.96586     
      6900   0.24335385     0.00053064577  0.00053064577  0              0              625.22559      748.75053      501.57559      0             -309.19077      0              0              9.5809685      9.7024031      0.2            92.958419    
      7000   0.20430202     0.0007081865   0.0007081865   0              0             -226.04575      18.698339     -470.96931      0             -48.746797      0              0              9.5800039      9.7170641      0.2            93.089512    
      7100   0.21837369     0.00089606595  0.00089606595  0              0              29.496089     -319.43741      378.29788      0             -402.42433      0              0              9.5790393      9.7016259      0.2            92.932256    
      7200   0.20392839     0.00088857869  0.00088857869  0              0             -165.68846     -217.27949     -114.24688      0             -476.06352      0              0              9.5780746      9.7155763      0.2            93.056515    
      7300   0.20726591     0.00087348262  0.00087348262  0              0              188.57823      588.39816     -211.36919      0             -221.85015      0              0              9.57711        9.7186422      0.2            93.076505    
      7400   0.21157487     0.0008365857   0.0008365857   0              0              1087.0679      1581.5794      592.42103      0              27.630711      0              0              9.5761454      9.6980537      0.2            92.869972    
      7500   0.18733253     0.00062190129  0.00062190129  0              0              39.069972      791.65989     -713.66798      0             -79.424366      0              0              9.5751807      9.7085054      0.2            92.960694    
      7600   0.19819455     0.00067392253  0.00067392253  0              0              896.22846      1079.1417      713.19306      0              230.4519       0              0              9.5742161      9.703584       0.2            92.90421     
      7700   0.1917916      0.00058622218  0.00058622218  0              0             -3.3369953      494.26984     -501.08313      0              426.47643      0              0              9.5732515      9.7133601      0.2            92.988438    
      7800   0.16976744     0.00075263469  0.00075263469  0              0              216.58838      358.64355      74.375781      0              150.52722      0              0              9.5722868      9.6991737      0.2            92.843273    
      7900   0.17871588     0.00072985327  0.00072985327  0              0              1122.0976      1889.6792      354.37278      0              134.52048      0              0              9.5713222      9.6948827      0.2            92.792846    
      8000   0.17217598     0.00095478215  0.00095478215  0              0             -266.28394      232.18856     -764.88036      0              55.231738      0              0              9.5703575      9.7000948      0.2            92.833375    
      8100   0.25052801     0.00075225797  0.00075225797  0              0              753.3255       609.91992      896.60906      0              29.07259       0              0              9.5693929      9.6988786      0.2            92.81238     
      8200   0.25593799     0.00065876665  0.00065876665  0              0             -37.127491      776.89053     -851.29406      0             -623.61302      0              0              9.5684283      9.7098046      0.2            92.907569    
      8300   0.22501098     0.00074721344  0.00074721344  0              0              788.10504      898.3541       677.75876      0             -410.01732      0              0              9.5674636      9.7020691      0.2            92.824193    
      8400   0.2009016      0.00090248248  0.00090248248  0              0             -284.01561     -170.06397     -398.1019       0             -121.64076      0              0              9.566499       9.7039612      0.2            92.832935    
      8500   0.22797644     0.0008769673   0.0008769673   0              0              533.57791      1160.6433     -93.630161      0              497.84342      0              0              9.5655344      9.7023922      0.2            92.808566    
      8600   0.21166306     0.00092978305  0.00092978305  0              0              419.78735      276.8674       562.5546       0              700.58658      0              0              9.5645697      9.6993131      0.2            92.769757    
      8700   0.19670329     0.00099661991  0.00099661991  0              0             -155.64847      625.31462     -936.75245      0             -200.36426      0              0              9.5636051      9.6973758      0.2            92.741872    
      8800   0.21244637     0.00084742618  0.00084742618  0              0              1386.9616      1753.9511      1019.8213      0              370.08852      0              0              9.5626405      9.6874546      0.2            92.637645    
      8900   0.24345832     0.00074104292  0.00074104292  0              0             -126.8097       540.99109     -794.7508       0              667.56552      0              0              9.5616758      9.6939297      0.2            92.690213    
      9000   0.1637887      0.00095204459  0.00095204459  0              0              539.42277      773.09527      305.58892      0              462.23479      0              0              9.5607112      9.6917508      0.2            92.66003     
      9100   0.19762858     0.00090344997  0.00090344997  0              0              586.20752      981.34403      190.95059      0              136.55489      0              0              9.5597466      9.6878249      0.2            92.613151    
      9200   0.16507475     0.00081959462  0.00081959462  0              0              29.517478      588.9098      -530.02597      0              320.59733      0              0              9.5587819      9.695043       0.2            92.672802    
      9300   0.17869809     0.00068126123  0.00068126123  0              0              957.60783      1165.2107      749.87665      0             -268.79861      0              0              9.5578173      9.6904481      0.2            92.619532    
      9400   0.21012641     0.00085233843  0.00085233843  0              0              169.83705      1193.1816     -853.65323      0             -112.75489      0              0              9.5568527      9.704261       0.2            92.742193    
      9500   0.23152343     0.00079474289  0.00079474289  0              0              924.98448      1152.7829      697.04235      0              215.83478      0              0              9.555888       9.691177       0.2            92.607802    
      9600   0.17730971     0.00082046338  0.00082046338  0              0             -292.74511     -170.56895     -415.06507      0              180.64868      0              0              9.5549234      9.6904091      0.2            92.591116    
      9700   0.26574418     0.00070107282  0.00070107282  0              0              105.92533      132.01054      79.715281      0             -114.95602      0              0              9.5539588      9.6947888      0.2            92.623612    
      9800   0.24192775     0.00076513985  0.00076513985  0              0              567.31494      715.7722       418.73174      0              208.10811      0              0              9.5529941      9.6894446      0.2            92.563207    
      9900   0.16292025     0.00072551709  0.00072551709  0              0             -442.28161     -296.15325     -588.54445      0              229.37007      0              0              9.5520295      9.6931851      0.2            92.58959     
     10000   0.22220004     0.00073533504  0.00073533504  0              0              457.48929      293.27783      621.57572      0             -223.3837       0              0              9.5510648      9.6844233      0.2            92.496555    
     10100   0.20441701     0.00084802666  0.00084802666  0              0             -563.26338     -587.60911     -539.0771       0             -3.8927993      0              0              9.5501002      9.6991261      0.2            92.627626    
     10200   0.18017836     0.00067451023  0.00067451023  0              0              369.55237      420.5791       318.39827      0              489.84519      0              0              9.5491356      9.6884137      0.2            92.515976    
     10300   0.18204083     0.00068559857  0.00068559857  0              0              237.0829       545.23136     -71.209981      0              22.560962      0              0              9.5481709      9.6994203      0.2            92.611723    
     10400   0.20111312     0.00079005582  0.00079005582  0              0              558.43797      1263.3281     -146.57451      0              113.80064      0              0              9.5472063      9.7132244      0.2            92.734157    
     10500   0.24547033     0.00074291532  0.00074291532  0              0              515.38507      653.3864       377.23132      0             -336.22979      0              0              9.5462417      9.7150367      0.2            92.742088    
     10600   0.19521944     0.00068566984  0.00068566984  0              0             -318.51764     -76.731262     -560.40923      0              69.201298      0              0              9.545277       9.7250785      0.2            92.828568    
     10700   0.16357209     0.00084773614  0.00084773614  0              0              698.51053      749.23452      647.67365      0             -111.55487      0              0              9.5443124      9.7154673      0.2            92.727455    
     10800   0.24721276     0.00076229482  0.00076229482  0              0             -73.008735      374.95291     -521.13483      0             -246.50617      0              0              9.5433478      9.7276786      0.2            92.83462     
     10900   0.20513311     0.0008155314   0.0008155314   0              0              899.69329      1382.9112      416.32149      0             -629.09788      0              0              9.5423831      9.7163391      0.2            92.71703     
     11000   0.23354156     0.000746059    0.000746059    0              0              314.39268      801.97589     -173.34382      0             -44.579415      0              0              9.5414185      9.7271024      0.2            92.810355    
     11100   0.24293991     0.00093757195  0.00093757195  0              0              939.48635      1826.7387      52.105952      0              296.51776      0              0              9.5404539      9.7147226      0.2            92.682862    
     11200   0.18278008     0.00077781355  0.00077781355  0              0              1139.1035      2120.6877      157.39175      0              406.50136      0              0              9.5394892      9.7148867      0.2            92.675057    
     11300   0.23490192     0.00080004843  0.00080004843  0              0              703.57001      1797.0031     -390.01564      0              315.56791      0              0              9.5385246      9.719236       0.2            92.707172    
     11400   0.18955204     0.00076197774  0.00076197774  0              0              990.45825      1427.7738      552.99283      0              683.14911      0              0              9.53756        9.7233092      0.2            92.736645    
     11500   0.19870311     0.00083743764  0.00083743764  0              0             -336.81171     -63.100222     -610.662        0              620.4928       0              0              9.5365953      9.7447764      0.2            92.931989    
     11600   0.20407619     0.00084309935  0.00084309935  0              0              582.37063      614.49544      550.09237      0             -48.575637      0              0              9.5356307      9.7341693      0.2            92.821444    
     11700   0.18276309     0.0010817195   0.0010817195   0              0              194.39992      829.2503      -440.57758      0             -57.73833       0              0              9.534666       9.740058       0.2            92.8682      
     11800   0.22721687     0.001118598    0.001118598    0              0              655.31675      1028.5068      282.02858      0              13.163458      0              0              9.5337014      9.7225357      0.2            92.691752    
     11900   0.18308814     0.0009768328   0.0009768328   0              0              121.89541      322.00338     -78.349786      0             -502.75256      0              0              9.5327368      9.7361286      0.2            92.811951    
     12000   0.17421481     0.0008352571   0.0008352571   0              0              304.08756      694.09002     -86.048753      0              80.564241      0              0              9.5317721      9.7333924      0.2            92.776478    
     12100   0.18871205     0.00078513828  0.00078513828  0              0              329.0705       356.35431      301.66211      0              208.22548      0              0              9.5308075      9.7308208      0.2            92.74258     
     12200   0.20424671     0.00069555186  0.00069555186  0              0              136.90458      714.89595     -441.20095      0              306.51931      0              0              9.5298429      9.7390423      0.2            92.811543    
     12300   0.18894134     0.00069945337  0.00069945337  0              0              497.06718      479.80836      514.17967      0              281.71948      0              0              9.5288782      9.7380281      0.2            92.792484    
     12400   0.1692803      0.00078428179  0.00078428179  0              0              259.78469      1157.7062     -638.24608      0             -444.95331      0              0              9.5279136      9.7456091      0.2            92.855322    
     12500   0.14555692     0.00069691821  0.00069691821  0              0              787.60855      948.78014      626.31823      0             -420.41449      0              0              9.526949       9.7389085      0.2            92.782084    
     12600   0.22134046     0.00085134724  0.00085134724  0              0              336.93357      1286.035      -612.28383      0             -355.73371      0              0              9.5259843      9.7515353      0.2            92.892973    
     12700   0.17524133     0.00082669043  0.00082669043  0              0              1268.7703      2017.6763      519.70958      0              52.700198      0              0              9.5250197      9.7370708      0.2            92.745791    
     12800   0.16045881     0.00086173848  0.00086173848  0              0              587.90661      1538.8278     -363.14703      0              583.75873      0              0              9.5240551      9.7432153      0.2            92.794919    
     12900   0.17059003     0.00053817982  0.00053817982  0              0              584.54284      914.43559      254.53724      0             -92.000799      0              0              9.5230904      9.7516068      0.2            92.865433    
     13000   0.2181984      0.00063924011  0.00063924011  0              0              87.534323      251.35525     -76.432278      0              49.566933      0              0              9.5221258      9.7589304      0.2            92.925763    
     13100   0.16276233     0.00095580564  0.00095580564  0              0             -331.26682     -544.33925     -118.32317      0              18.112672      0              0              9.5211612      9.7494127      0.2            92.825729    
     13200   0.2243702      0.00086804266  0.00086804266  0              0             -131.55488     -500.1884       236.94552      0             -420.40633      0              0              9.5201965      9.7555088      0.2            92.874361    
     13300   0.20902894     0.00055293616  0.00055293616  0              0             -318.46863     -331.69643     -305.36986      0             -197.7915       0              0              9.5192319      9.7542426      0.2            92.852897    
     13400   0.19879857     0.00070231388  0.00070231388  0              0              702.53935      1041.1769      363.77433      0              197.84407      0              0              9.5182673      9.7446152      0.2            92.751852    
     13500   0.22876957     0.00083473729  0.00083473729  0              0             -346.82134     -176.8845      -516.87918      0             -35.331396      0              0              9.5173026      9.7459839      0.2            92.755478    
     13600   0.18998626     0.0005855525   0.0005855525   0              0              701.88626      986.44078      417.20781      0             -116.11464      0              0              9.516338       9.7512207      0.2            92.795912    
     13700   0.2212347      0.00047456837  0.00047456837  0              0             -77.07953       155.68109     -309.96892      0             -221.96394      0              0              9.5153733      9.7704687      0.2            92.969657    
     13800   0.22492284     0.0007067211   0.0007067211   0              0              89.308776     -61.809287      240.28661      0              467.48004      0              0              9.5144087      9.762184       0.2            92.881408    
     13900   0.18674582     0.00072391582  0.00072391582  0              0             -128.77828     -42.785514     -214.89294      0              751.27467      0              0              9.5134441      9.7665266      0.2            92.913305    
     14000   0.1790306      0.00077080931  0.00077080931  0              0              224.77437      252.97096      196.43367      0              476.79824      0              0              9.5124794      9.758232       0.2            92.824981    
     14100   0.2634822      0.00080709213  0.00080709213  0              0              276.31956      631.36804     -78.836112      0             -106.36038      0              0              9.5115148      9.7707946      0.2            92.935058    
     14200   0.24773328     0.00084483336  0.00084483336  0              0              443.57043      837.60694      49.39095       0              210.25649      0              0              9.5105502      9.7737122      0.2            92.95338     
     14300   0.22019811     0.00087007849  0.00087007849  0              0              245.96929      495.35633     -3.5261361      0              253.7396       0              0              9.5095855      9.7757581      0.2            92.963408    
     14400   0.19839393     0.00079510585  0.00079510585  0              0              218.18369      522.61406     -86.405666      0              715.61953      0              0              9.5086209      9.7648856      0.2            92.850595    
     14500   0.22773034     0.0005605053   0.0005605053   0              0              191.9547       168.7708       215.01342      0              169.88226      0              0              9.5076563      9.7691024      0.2            92.881268    
     14600   0.21983397     0.00070836053  0.00070836053  0              0              355.17448      927.99418     -217.77776      0              876.12972      0              0              9.5066916      9.7851601      0.2            93.0245      
     14700   0.18240523     0.00076783568  0.00076783568  0              0             -11.690598     -137.30252      113.78868      0              427.63904      0              0              9.505727       9.7781366      0.2            92.948297    
     14800   0.19826487     0.00083218686  0.00083218686  0              0             -70.271709     -17.651123     -123.04073      0              195.73938      0              0              9.5047624      9.7794805      0.2            92.951638    
     14900   0.17571394     0.00074294907  0.00074294907  0              0             -167.19582     -385.85339      51.316743      0             -210.54277      0              0              9.5037977      9.7770527      0.2            92.919131    
     15000   0.21710871     0.00070544361  0.00070544361  0              0              291.12112      571.78413      10.298047      0              409.62913      0              0              9.5028331      9.7814325      0.2            92.951321    
     15100   0.19274956     0.00089260407  0.00089260407  0              0              167.04204      327.77162      6.1508419      0             -174.93642      0              0              9.5018685      9.7880646      0.2            93.004902    
     15200   0.22992529     0.00065350103  0.00065350103  0              0             -77.310324     -95.15176      -59.63328       0              277.93343      0              0              9.5009038      9.7928092      0.2            93.040539    
     15300   0.17384312     0.00074643024  0.00074643024  0              0              50.58972       38.678369      62.372183      0              314.19191      0              0              9.4999392      9.7996498      0.2            93.096077    
     15400   0.20851944     0.00061582395  0.00061582395  0              0             -3.0809833      75.458769     -81.756714      0              225.49983      0              0              9.4989745      9.7968458      0.2            93.059989    
     15500   0.19570241     0.00059260769  0.00059260769  0              0             -79.917274     -279.03247      119.04867      0              325.87776      0              0              9.4980099      9.7977825      0.2            93.059435    
     15600   0.22322706     0.00067153762  0.00067153762  0              0             -100.77977     -41.493478     -160.23121      0              457.13038      0              0              9.4970453      9.7969544      0.2            93.04212     
     15700   0.22383216     0.0010754277   0.0010754277   0              0             -67.409579     -272.39191      137.42562      0             -132.9753       0              0              9.4960806      9.8101058      0.2            93.157555    
     15800   0.22732476     0.00077102284  0.00077102284  0              0             -169.82503     -197.30208     -142.48049      0              37.411186      0              0              9.495116       9.8106469      0.2            93.15323     
     15900   0.23246465     0.00064917868  0.00064917868  0              0              206.60342      286.78858      126.29839      0              356.66699      0              0              9.4941514      9.8187737      0.2            93.220924    
     16000   0.20967497     0.00076631164  0.00076631164  0              0              85.711453      249.13415     -77.831351      0              376.55618      0              0              9.4931867      9.813528       0.2            93.161654    
     16100   0.22409438     0.00079402398  0.00079402398  0              0             -387.74577     -821.87012      46.26647       0             -55.624754      0              0              9.4922221      9.8209484      0.2            93.222623    
     16200   0.18420019     0.00071137533  0.00071137533  0              0             -158.32474     -282.78492     -34.009721      0              114.45925      0              0              9.4912575      9.826424       0.2            93.26512     
     16300   0.20157907     0.00068566904  0.00068566904  0              0             -75.412128     -189.70691      38.729118      0             -317.24609      0              0              9.4902928      9.8257147      0.2            93.24891     
     16400   0.18541521     0.00080755176  0.00080755176  0              0              321.08242      487.51278      154.49468      0             -316.96362      0              0              9.4893282      9.820003       0.2            93.185231    
     16500   0.21453322     0.00068797459  0.00068797459  0              0             -235.8027      -216.9571      -254.79352      0             -166.24802      0              0              9.4883636      9.8207879      0.2            93.183206    
     16600   0.21836475     0.00084227361  0.00084227361  0              0              664.70748      890.00722      439.27416      0              9.1229586      0              0              9.4873989      9.8158779      0.2            93.12715     
     16700   0.16883179     0.00079350075  0.00079350075  0              0             -74.791861      315.28353     -465.01162      0             -275.0998       0              0              9.4864343      9.817055       0.2            93.128847    
     16800   0.22309597     0.00073576852  0.00073576852  0              0              578.93768      550.85194      606.86264      0              118.53028      0              0              9.4854697      9.8102726      0.2            93.055043    
     16900   0.23993421     0.00097763912  0.00097763912  0              0              53.885791      745.39206     -637.74312      0              299.54385      0              0              9.484505       9.8192247      0.2            93.130486    
     17000   0.20422845     0.00085764266  0.00085764266  0              0              334.26238     -53.268611      721.67081      0             -90.16757       0              0              9.4835404      9.8064421      0.2            92.99979     
     17100   0.21120226     0.00082832661  0.00082832661  0              0             -707.75039     -657.20918     -758.44979      0             -744.5062       0              0              9.4825758      9.8299593      0.2            93.213334    
     17200   0.19198646     0.0007590811   0.0007590811   0              0              719.35102      766.61998      671.96274      0             -323.09423      0              0              9.4816111      9.8212714      0.2            93.121476    
     17300   0.22097026     0.00087649349  0.00087649349  0              0             -418.7754      -349.80692     -487.89298      0             -427.61517      0              0              9.4806465      9.8319627      0.2            93.213363    
     17400   0.15622702     0.00077588309  0.00077588309  0              0             -175.47108     -617.45082      266.37865      0              235.03255      0              0              9.4796818      9.8237856      0.2            93.126362    
     17500   0.22967989     0.00074689186  0.00074689186  0              0             -426.3285      -715.19806     -137.59664      0             -69.448691      0              0              9.4787172      9.8347067      0.2            93.220404    
     17600   0.21677675     0.0007935881   0.0007935881   0              0              222.53061      484.63932     -39.686451      0             -417.33466      0              0              9.4777526      9.8316298      0.2            93.181755    
     17700   0.23318304     0.0009190384   0.0009190384   0              0              215.66801      228.23479      202.93564      0             -176.76917      0              0              9.4767879      9.8260026      0.2            93.118943    
     17800   0.18566613     0.0010488194   0.0010488194   0              0              210.92043      793.08358     -371.37032      0              180.82346      0              0              9.4758233      9.8290451      0.2            93.138294    
     17900   0.21739457     0.00074040488  0.00074040488  0              0              732.58153      974.1732       490.86952      0              27.904644      0              0              9.4748587      9.8374268      0.2            93.208228    
     18000   0.23623372     0.00085282618  0.00085282618  0              0             -309.98722      34.785889     -654.8752       0             -175.6187       0              0              9.473894       9.8506134      0.2            93.323667    
     18100   0.23272715     0.00098771596  0.00098771596  0              0              723.56947      587.68966      859.3354       0             -24.932359      0              0              9.4729294      9.8255553      0.2            93.076791    
     18200   0.22846766     0.00087005047  0.00087005047  0              0             -204.90519      572.56384     -982.52884      0              15.272385      0              0              9.4719648      9.8605377      0.2            93.398666    
     18300   0.16925065     0.0010345379   0.0010345379   0              0              1242.7174      1443.3404      1041.9592      0             -368.26461      0              0              9.4710001      9.8402943      0.2            93.197429    
     18400   0.25818428     0.00085506399  0.00085506399  0              0             -667.11497     -345.55139     -988.81167      0              96.534794      0              0              9.4700355      9.8708598      0.2            93.477392    
     18500   0.24815763     0.00094468874  0.00094468874  0              0              1085.0713      1330.9498      839.04204      0             -256.2387       0              0              9.4690709      9.8597933      0.2            93.363081    
     18600   0.21430548     0.00073529995  0.00073529995  0              0             -437.77414     -186.0395      -689.63479      0             -820.01131      0              0              9.4681062      9.8875982      0.2            93.61683     
     18700   0.28530132     0.00078848096  0.00078848096  0              0              480.60403      280.85058      680.24177      0             -485.31916      0              0              9.4671416      9.8767042      0.2            93.504157    
     18800   0.16525202     0.00096847085  0.00096847085  0              0             -210.6502       188.94388     -610.37762      0             -520.99263      0              0              9.466177       9.8923193      0.2            93.642445    
     18900   0.18227623     0.00072325091  0.00072325091  0              0              334.1549       150.74503      517.43799      0             -267.08357      0              0              9.4652123      9.8708886      0.2            93.430056    
     19000   0.16168334     0.000621423    0.000621423    0              0             -263.41164     -19.090154     -507.88832      0             -18.194129      0              0              9.4642477      9.8849756      0.2            93.553858    
     19100   0.1964318      0.00063597213  0.00063597213  0              0              420.84403      397.98636      443.601        0              42.27566       0              0              9.463283       9.8767893      0.2            93.466852    
     19200   0.18119089     0.00066397258  0.00066397258  0              0             -94.931531      178.7968      -368.77732      0             -289.43472      0              0              9.4623184      9.8860656      0.2            93.5451      
     19300   0.1863158      0.00061955464  0.00061955464  0              0              159.18632      44.277088      273.97748      0             -265.72976      0              0              9.4613538      9.8867476      0.2            93.542017    
     19400   0.20006661     0.00078772623  0.00078772623  0              0              94.416803      400.84454     -212.14684      0              173.93952      0              0              9.4603891      9.8911308      0.2            93.573946    
     19500   0.16538399     0.00092705055  0.00092705055  0              0              630.40877      1008.0531      252.61889      0              166.5513       0              0              9.4594245      9.8987021      0.2            93.636026    
     19600   0.14435585     0.00071428407  0.00071428407  0              0              27.39604       343.20099     -288.51737      0             -575.27637      0              0              9.4584599      9.9052978      0.2            93.688862    
     19700   0.17051815     0.00096795061  0.00096795061  0              0              406.13365      526.35874      285.77863      0             -768.76467      0              0              9.4574952      9.8777772      0.2            93.419031    
     19800   0.23858498     0.00072966803  0.00072966803  0              0              167.94016      554.92165     -219.1667       0              110.82783      0              0              9.4565306      9.8944663      0.2            93.567324    
     19900   0.20562258     0.00076563799  0.00076563799  0              0              958.63467      1631.7674      285.36271      0             -385.7315       0              0              9.455566       9.8904151      0.2            93.519472    
     20000   0.22584046     0.00079942499  0.00079942499  0              0              316.47447      881.76509     -248.94731      0             -24.686651      0              0              9.4546013      9.9025561      0.2            93.62472     
     20100   0.16829736     0.00089674003  0.00089674003  0              0              941.37534      1606.4564      276.14212      0             -135.59271      0              0              9.4536367      9.8972141      0.2            93.564666    
     20200   0.17765373     0.00081938209  0.00081938209  0              0              473.60433      1192.1145     -245.06964      0             -324.46176      0              0              9.4526721      9.9082145      0.2            93.659102    
     20300   0.2147965      0.00076889475  0.00076889475  0              0              1099.2301      1987.1785      211.18349      0             -386.34653      0              0              9.4517074      9.9051727      0.2            93.620795    
     20400   0.26604579     0.00077524458  0.00077524458  0              0              674.61948      1437.6989     -88.588986      0             -437.33015      0              0              9.4507428      9.9194009      0.2            93.745707    
     20500   0.19932832     0.00096324322  0.00096324322  0              0              452.36455      738.73989      165.85936      0             -307.49894      0              0              9.4497782      9.9225579      0.2            93.765971    
     20600   0.21093875     0.00082974479  0.00082974479  0              0             -81.40248      -1.0939581     -161.84845      0              55.828843      0              0              9.4488135      9.9204747      0.2            93.736715    
     20700   0.2147049      0.00074848046  0.00074848046  0              0              134.39269      122.83541      145.81872      0             -346.0997       0              0              9.4478489      9.9159361      0.2            93.684266    
     20800   0.18685499     0.00062715452  0.00062715452  0              0             -87.795712     -141.46596     -34.29673       0             -217.096        0              0              9.4468843      9.9062224      0.2            93.582937    
     20900   0.1662427      0.00093679295  0.00093679295  0              0              197.13788      405.52592     -11.393829      0             -283.33939      0              0              9.4459196      9.8995942      0.2            93.510771    
     21000   0.19501951     0.00059874696  0.00059874696  0              0              542.70329      1054.0424      31.241578      0             -142.43855      0              0              9.444955       9.8994195      0.2            93.499571    
     21100   0.20139752     0.00080773125  0.00080773125  0              0              2.0750207      128.11145     -124.11301      0             -110.35744      0              0              9.4439903      9.9017965      0.2            93.512471    
     21200   0.19512151     0.00098149885  0.00098149885  0              0              874.78769      1630.8629      118.59099      0             -354.83732      0              0              9.4430257      9.9064301      0.2            93.546674    
     21300   0.13442879     0.00067449418  0.00067449418  0              0              580.73013      1344.5106     -183.20593      0             -271.61025      0              0              9.4420611      9.9159869      0.2            93.627354    
     21400   0.14395652     0.00065093587  0.00065093587  0              0              477.5575       708.58528      246.38236      0              70.815187      0              0              9.4410964      9.9125826      0.2            93.585648    
     21500   0.17666941     0.00063983822  0.00063983822  0              0              337.60344      961.51957     -286.43453      0             -284.2451       0              0              9.4401318      9.9287963      0.2            93.729146    
     21600   0.20947113     0.00076730674  0.00076730674  0              0              622.14697      1031.3261      212.79828      0             -420.68259      0              0              9.4391672      9.9135747      0.2            93.575889    
     21700   0.27143532     0.00079239409  0.00079239409  0              0              395.29095      960.71037     -170.29431      0              179.67555      0              0              9.4382025      9.9179814      0.2            93.607917    
     21800   0.2032319      0.00093910757  0.00093910757  0              0              565.91295      1018.176       113.48994      0             -159.71083      0              0              9.4372379      9.9336608      0.2            93.74632     
     21900   0.20647798     0.00092076634  0.00092076634  0              0              495.95289      1070.3054     -78.520472      0              106.02014      0              0              9.4362733      9.9325905      0.2            93.726638    
     22000   0.16775603     0.00067288721  0.00067288721  0              0              416.19674      686.77368      145.49867      0              230.52162      0              0              9.4353086      9.9307039      0.2            93.699256    
     22100   0.20531359     0.00079774762  0.00079774762  0              0              264.35886      629.00749     -100.4211       0             -238.00779      0              0              9.434344       9.9329216      0.2            93.710599    
     22200   0.16174904     0.00081453339  0.00081453339  0              0              700.71094      1327.5929      73.669491      0             -458.94616      0              0              9.4333794      9.9423345      0.2            93.789814    
     22300   0.19250478     0.0006813077   0.0006813077   0              0              83.140469      260.34894     -94.21614       0              630.72896      0              0              9.4324147      9.9525097      0.2            93.876199    
     22400   0.25430866     0.00068212881  0.00068212881  0              0              91.210569      212.12659     -29.87126       0             -92.806804      0              0              9.4314501      9.9536723      0.2            93.877564    
     22500   0.22391032     0.00058324265  0.00058324265  0              0              99.470382      141.00693      57.81408       0              29.670162      0              0              9.4304855      9.9596602      0.2            93.92443     
     22600   0.22301083     0.00060108353  0.00060108353  0              0              516.61294      1137.9691     -104.87329      0             -413.84212      0              0              9.4295208      9.9582846      0.2            93.901852    
     22700   0.22397667     0.0009135491   0.0009135491   0              0              1028.6135      2023.4579      33.685907      0              130.02517      0              0              9.4285562      9.9554455      0.2            93.865477    
     22800   0.23021897     0.00089156528  0.00089156528  0              0              890.98656      1905.8288     -123.98944      0              61.108956      0              0              9.4275915      9.9527273      0.2            93.830248    
     22900   0.16219567     0.00091667537  0.00091667537  0              0              614.37231      1106.1355      122.46712      0             -57.456762      0              0              9.4266269      9.9631617      0.2            93.919008    
     23000   0.18835321     0.00087533476  0.00087533476  0              0              194.03575      541.03791     -153.11516      0              123.23338      0              0              9.4256623      9.9518112      0.2            93.802411    
     23100   0.20088306     0.00098988639  0.00098988639  0              0              710.64342      1151.9076      269.26792      0             -256.67816      0              0              9.4246976      9.9569627      0.2            93.841363    
     23200   0.31617955     0.00085051598  0.00085051598  0              0              423.54449      1133.7586     -286.78586      0              69.460248      0              0              9.423733       9.9718617      0.2            93.972162    
     23300   0.1938589      0.00081914657  0.00081914657  0              0              570.0133       849.65804      290.23736      0             -131.841        0              0              9.4227684      9.973352       0.2            93.976586    
     23400   0.20659925     0.00080545948  0.00080545948  0              0             -138.53613      8.2122148     -285.43777      0              520.0982       0              0              9.4218037      9.9726884      0.2            93.960712    
     23500   0.18030691     0.00088273729  0.00088273729  0              0              901.05908      1523.1839      278.79975      0             -67.078369      0              0              9.4208391      9.9719834      0.2            93.944451    
     23600   0.20779571     0.00080540632  0.00080540632  0              0              252.75322      774.35139     -268.96668      0             -232.32997      0              0              9.4198745      9.9727224      0.2            93.941793    
     23700   0.18976672     0.00098895854  0.00098895854  0              0              236.70183      253.90503      219.36302      0              364.32221      0              0              9.4189098      9.9827679      0.2            94.02679     
     23800   0.22849205     0.00073695198  0.00073695198  0              0              292.8344       834.67295     -249.14399      0              119.0853       0              0              9.4179452      9.9962834      0.2            94.144449    
     23900   0.19565875     0.00059027412  0.00059027412  0              0              236.6302       302.55932      170.5867       0             -36.013093      0              0              9.4169806      9.9905128      0.2            94.080465    
     24000   0.17482854     0.00079939147  0.00079939147  0              0             -94.449251      26.160448     -215.20995      0              474.57557      0              0              9.4160159      9.9817638      0.2            93.988447    
     24100   0.23669243     0.00076472168  0.00076472168  0              0              207.08477      246.27806      167.77103      0              472.31165      0              0              9.4150513      9.9804212      0.2            93.966177    
     24200   0.20252656     0.0009866119   0.0009866119   0              0              253.72265      634.35841     -127.043        0              186.36768      0              0              9.4140867      9.981613       0.2            93.96777     
     24300   0.2360966      0.00079192502  0.00079192502  0              0             -4.1133284     -31.174326      22.846109      0              163.55276      0              0              9.413122       9.9882806      0.2            94.020904    
     24400   0.22258128     0.00076440505  0.00076440505  0              0             -34.655822     -33.317185     -36.141738      0              95.799083      0              0              9.4121574      9.9838248      0.2            93.969331    
     24500   0.23185883     0.00073507124  0.00073507124  0              0              186.02839      232.34807      139.59614      0             -86.940911      0              0              9.4111927      9.982665       0.2            93.948784    
     24600   0.22376712     0.0010014379   0.0010014379   0              0             -249.5687      -363.58513     -135.68068      0             -89.040689      0              0              9.4102281      9.9893307      0.2            94.001881    
     24700   0.21197208     0.00086890286  0.00086890286  0              0              406.69745      615.28522      197.98495      0             -33.274367      0              0              9.4092635      9.9774147      0.2            93.880123    
     24800   0.23747908     0.00075665388  0.00075665388  0              0              192.03614      524.82717     -140.87677      0             -451.29761      0              0              9.4082988      9.9826427      0.2            93.919685    
     24900   0.19493396     0.00062585665  0.00062585665  0              0              384.46083      669.45796      99.336085      0              78.047961      0              0              9.4073342      9.9830302      0.2            93.913702    
     25000   0.21667818     0.00061708595  0.00061708595  0              0              328.32968      741.8271      -85.27351       0             -332.73088      0              0              9.4063696      9.9820657      0.2            93.895       
     25100   0.22803974     0.00085978296  0.00085978296  0              0              739.01547      1366.5637      111.36966      0             -89.159995      0              0              9.4054049      9.9876538      0.2            93.937928    
     25200   0.18849503     0.0007460481   0.0007460481   0              0              307.7412       770.08615     -154.74086      0             -227.4109       0              0              9.4044403      9.9883129      0.2            93.934492    
     25300   0.1681991      0.00074980023  0.00074980023  0              0              833.15015      1537.2471      128.90332      0             -310.92951      0              0              9.4034757      9.9910403      0.2            93.950505    
     25400   0.17174665     0.00069655067  0.00069655067  0              0              469.53983      1075.1536     -136.22958      0             -145.63645      0              0              9.402511       9.9918476      0.2            93.948457    
     25500   0.18952888     0.00064511712  0.00064511712  0              0             -8.8961415     -133.79783      115.86928      0              87.233427      0              0              9.4015464      9.9903306      0.2            93.924556    
     25600   0.22219133     0.00076027026  0.00076027026  0              0              316.60295      765.85021     -132.75594      0             -596.12214      0              0              9.4005818      9.9941337      0.2            93.950671    
     25700   0.17554328     0.00091719935  0.00091719935  0              0              280.83679      272.93093      288.64093      0             -121.56003      0              0              9.3996171      9.9974686      0.2            93.972377    
     25800   0.17682178     0.00074606163  0.00074606163  0              0             -46.550286      327.08701     -420.30815      0             -263.39715      0              0              9.3986525      10.002313      0.2            94.008264    
     25900   0.15966008     0.00079315825  0.00079315825  0              0              1079.0791      1719.6366      438.41146      0             -124.06746      0              0              9.3976879      9.9924186      0.2            93.905631    
     26000   0.20315763     0.00062853517  0.00062853517  0              0             -225.34877      110.39339     -561.2517       0             -121.75557      0              0              9.3967232      10.001156      0.2            93.978093    
     26100   0.23515196     0.00059515452  0.00059515452  0              0              620.8111       530.1269       711.36178      0             -14.19976       0              0              9.3957586      9.9961305      0.2            93.921229    
     26200   0.22012771     0.00076072394  0.00076072394  0              0             -712.37342     -729.04829     -695.79995      0             -151.08994      0              0              9.394794       10.011781      0.2            94.05862     
     26300   0.2320857      0.00064611378  0.00064611378  0              0              384.32538      19.350943      749.13784      0              56.870817      0              0              9.3938293      9.9999366      0.2            93.937697    
     26400   0.24926659     0.00064602633  0.00064602633  0              0             -406.68766     -106.68426     -706.81017      0              317.32271      0              0              9.3928647      10.003502      0.2            93.961536    
     26500   0.1847863      0.00072079767  0.00072079767  0              0              798.17381      922.42682      673.81113      0             -326.55979      0              0              9.3919         9.9858706      0.2            93.786298    
     26600   0.23484294     0.00077034729  0.00077034729  0              0              54.681712      701.50316     -592.28109      0              2.2805541      0              0              9.3909354      9.9864168      0.2            93.781795    
     26700   0.22944069     0.00072866596  0.00072866596  0              0              872.9086       1250.5676      495.08893      0              764.1539       0              0              9.3899708      9.9848702      0.2            93.75764     
     26800   0.17759905     0.00072895659  0.00072895659  0              0             -314.98904     -167.28316     -462.83294      0              23.2191        0              0              9.3890061      10.001387      0.2            93.903088    
     26900   0.23900884     0.0011436919   0.0011436919   0              0             -55.823137     -534.60958      422.80635      0              471.56214      0              0              9.3880415      10.001795      0.2            93.897271    
     27000   0.25670719     0.00082856129  0.00082856129  0              0             -211.67545     -39.958413     -383.5278       0             -370.14943      0              0              9.3870769      10.013385      0.2            93.996411    
     27100   0.18268325     0.00077235252  0.00077235252  0              0              648.56013      1023.1354      273.87458      0             -193.18656      0              0              9.3861122      10.006682      0.2            93.923843    
     27200   0.27136128     0.00070321681  0.00070321681  0              0              380.82269      917.1894      -155.70261      0             -199.71342      0              0              9.3851476      10.004619      0.2            93.894822    
     27300   0.20704411     0.00099433769  0.00099433769  0              0              260.91485      468.57993      53.111499      0             -188.73734      0              0              9.384183       10.001433      0.2            93.855277    
     27400   0.2325615      0.0007809674   0.0007809674   0              0              187.87101      390.91592     -15.298359      0             -344.07041      0              0              9.3832183      10.003853      0.2            93.868336    
     27500   0.19744795     0.00071945531  0.00071945531  0              0             -681.59214     -1270.8767     -92.424444      0             -0.4721762      0              0              9.3822537      10.012121      0.2            93.93626     
     27600   0.23486727     0.0007098523   0.0007098523   0              0             -153.66255     -505.09319      197.64379      0             -124.65497      0              0              9.3812891      10.010479      0.2            93.911199    
     27700   0.22060438     0.00053823751  0.00053823751  0              0             -38.931862      153.16404     -231.14258      0             -357.01786      0              0              9.3803244      10.013599      0.2            93.930805    
     27800   0.20322137     0.0006408381   0.0006408381   0              0              597.56313      843.34431      351.67348      0             -474.07647      0              0              9.3793598      10.006248      0.2            93.852204    
     27900   0.18729867     0.00066203006  0.00066203006  0              0             -10.626202      321.33165     -342.69055      0              51.725449      0              0              9.3783952      10.013306      0.2            93.908738    
[...]
     42900   0.19763264     0.00049834624  0.00049834624  0              0             -393.28684     -118.74344     -667.93326      0             -308.96443      0              0              9.2336999      10.031729      0.2            92.629979    
     43000   0.20052698     0.00059288763  0.00059288763  0              0              335.09805      103.73101      566.3054       0              374.03593      0              0              9.2327352      10.026611      0.2            92.573041    
     43100   0.17010283     0.00065247541  0.00065247541  0              0              59.363111      414.19718     -295.61315      0             -147.68447      0              0              9.2317706      10.042008      0.2            92.705513    
     43200   0.18198072     0.00065226738  0.00065226738  0              0             -612.29292     -1134.1007     -90.645015      0              79.048543      0              0              9.230806       10.039327      0.2            92.671076    
     43300   0.21609349     0.00076022911  0.00076022911  0              0              40.74915      -282.88119      364.2242       0              158.50496      0              0              9.2298413      10.043762      0.2            92.702333    
     43400   0.19873273     0.00078237853  0.00078237853  0              0              180.47744      908.16072     -547.35468      0             -164.03393      0              0              9.2288767      10.055458      0.2            92.800585    
     43500   0.23110673     0.00078639911  0.00078639911  0              0              790.21816      1077.3126      503.00709      0              196.51392      0              0              9.2279121      10.035151      0.2            92.603492    
     43600   0.22257234     0.00070728891  0.00070728891  0              0              155.08079      566.78055     -256.75886      0              315.03962      0              0              9.2269474      10.047427      0.2            92.707085    
     43700   0.25693755     0.00064016253  0.00064016253  0              0              36.509686      204.40241     -131.51798      0              288.52327      0              0              9.2259828      10.047732      0.2            92.700201    
     43800   0.19699416     0.00070516179  0.00070516179  0              0              744.05426      1054.9024      433.04665      0             -416.72484      0              0              9.2250182      10.042275      0.2            92.640165    
     43900   0.17374963     0.00085153939  0.00085153939  0              0             -11.528945      572.53007     -595.72518      0             -28.700951      0              0              9.2240535      10.047946      0.2            92.682796    
     44000   0.21786865     0.00075176708  0.00075176708  0              0              733.93399      879.2719       588.44838      0             -445.32003      0              0              9.2230889      10.034362      0.2            92.547817    
     44100   0.2111583      0.00057402281  0.00057402281  0              0              276.55756      859.38365     -306.40283      0             -186.47779      0              0              9.2221243      10.042046      0.2            92.608994    
     44200   0.18286596     0.00076433154  0.00076433154  0              0              377.81358      741.38366      14.10345       0             -397.04818      0              0              9.2211596      10.039914      0.2            92.57965     
     44300   0.1874884      0.00085742059  0.00085742059  0              0              920.60753      1515.6645      325.42154      0              465.96784      0              0              9.220195       10.039461      0.2            92.56579     
     44400   0.18840237     0.00061911264  0.00061911264  0              0             -226.32837      122.309       -575.07135      0             -231.16118      0              0              9.2192304      10.051238      0.2            92.664678    
     44500   0.22189421     0.00071481266  0.00071481266  0              0              1054.9844      1574.3518      535.49582      0             -286.53589      0              0              9.2182657      10.038214      0.2            92.534922    
     44600   0.21479249     0.00074855274  0.00074855274  0              0              266.90892      804.50742     -270.80634      0             -130.814        0              0              9.2173011      10.050242      0.2            92.636108    
     44700   0.21575867     0.00062190501  0.00062190501  0              0              44.652116      139.17963     -50.002733      0             -458.07787      0              0              9.2163364      10.055358      0.2            92.673561    
     44800   0.19346041     0.00065487925  0.00065487925  0              0              422.40649      416.99111      427.6856       0             -533.12043      0              0              9.2153718      10.047589      0.2            92.592267    
     44900   0.2148861      0.00075503268  0.00075503268  0              0             -56.051771      524.75346     -636.98247      0             -486.87144      0              0              9.2144072      10.06184       0.2            92.713892    
     45000   0.26371509     0.00090697718  0.00090697718  0              0              56.764416     -438.51273      551.91105      0             -281.76133      0              0              9.2134425      10.05903       0.2            92.678292    
     45100   0.24934521     0.0010516573   0.0010516573   0              0              158.61286      544.03694     -226.94009      0              260.47282      0              0              9.2124779      10.064454      0.2            92.718561    
     45200   0.20591109     0.00064240541  0.00064240541  0              0              421.42677      997.76156     -155.03847      0              427.09961      0              0              9.2115133      10.051247      0.2            92.587193    
     45300   0.25557139     0.00072909526  0.00072909526  0              0              598.75338      684.5474       512.83387      0             -73.91724       0              0              9.2105486      10.051661      0.2            92.581317    
     45400   0.16681221     0.00078346484  0.00078346484  0              0             -249.88554      103.80513     -603.72348      0              101.94025      0              0              9.209584       10.063853      0.2            92.683902    
     45500   0.20695726     0.00063354899  0.00063354899  0              0              393.22701      352.92773      433.39485      0              309.4757       0              0              9.2086194      10.042008      0.2            92.473027    
     45600   0.19405844     0.00062314184  0.00062314184  0              0             -141.95883     -200.22103     -83.815224      0              208.71591      0              0              9.2076547      10.049776      0.2            92.534865    
     45700   0.17735105     0.00069340317  0.00069340317  0              0              325.93482      928.05628     -276.33834      0              187.63936      0              0              9.2066901      10.04934       0.2            92.521155    
     45800   0.21309223     0.00087116069  0.00087116069  0              0              661.59093      877.66614      445.41816      0             -123.55082      0              0              9.2057255      10.043709      0.2            92.459632    
     45900   0.18954917     0.00076066543  0.00076066543  0              0              42.683745      493.96076     -408.74789      0              187.90388      0              0              9.2047608      10.051879      0.2            92.52514     
     46000   0.17913353     0.00096333968  0.00096333968  0              0              801.58201      1484.9802      118.05158      0              404.34942      0              0              9.2037962      10.054385      0.2            92.538511    
     46100   0.22266195     0.00083684242  0.00083684242  0              0              589.17799      1063.7648      114.42539      0             -121.80291      0              0              9.2028316      10.054851      0.2            92.533104    
     46200   0.18365998     0.00074638778  0.00074638778  0              0              477.77963      1209.0676     -253.63398      0              568.60002      0              0              9.2018669      10.05691       0.2            92.542348    
     46300   0.20612616     0.00070891955  0.00070891955  0              0              377.74772      592.53564      162.78669      0              693.15629      0              0              9.2009023      10.052809      0.2            92.494914    
     46400   0.21407149     0.00086248064  0.00086248064  0              0              314.8869       715.84163     -86.181847      0              696.6527       0              0              9.1999377      10.03958       0.2            92.363507    
     46500   0.23122709     0.00080768883  0.00080768883  0              0              222.87279      521.56134     -75.932678      0              371.785        0              0              9.198973       10.043182      0.2            92.386956    
     46600   0.23652426     0.00095552408  0.00095552408  0              0              426.57414      714.65914      138.35922      0             -162.81851      0              0              9.1980084      10.048907      0.2            92.429929    
     46700   0.15728949     0.00096365801  0.00096365801  0              0              596.26985      1433.6504     -241.28135      0              347.47572      0              0              9.1970437      10.047022      0.2            92.402904    
     46800   0.25079223     0.00073574471  0.00073574471  0              0              847.06632      1493.6537      200.32091      0              471.71287      0              0              9.1960791      10.051508      0.2            92.434465    
     46900   0.21628044     0.00099833915  0.00099833915  0              0              509.12429      1121.7697     -103.64676      0              538.75743      0              0              9.1951145      10.040989      0.2            92.328047    
     47000   0.20186571     0.00079854384  0.00079854384  0              0              119.16169      307.83876     -69.677347      0              518.14308      0              0              9.1941498      10.055415      0.2            92.45099     
     47100   0.16715084     0.00084346715  0.00084346715  0              0              295.80935      540.99451      50.504123      0              464.39084      0              0              9.1931852      10.040086      0.2            92.300371    
     47200   0.25162923     0.00081913331  0.00081913331  0              0             -81.983243     -147.74625     -16.353845      0              254.35025      0              0              9.1922206      10.028447      0.2            92.183694    
     47300   0.1716765      0.00093673724  0.00093673724  0              0             -12.669572     -193.53887      168.06427      0              621.77585      0              0              9.1912559      10.019693      0.2            92.093558    
     47400   0.23195709     0.0007504541   0.0007504541   0              0              166.72572      549.88936     -216.55928      0              345.68191      0              0              9.1902913      10.02525       0.2            92.134964    
     47500   0.20129161     0.00069504769  0.00069504769  0              0              218.69045      271.15895      166.072        0              87.697311      0              0              9.1893267      10.030096      0.2            92.169832    
     47600   0.20197962     0.00085168771  0.00085168771  0              0             -342.89647     -680.30043     -5.6616861      0             -29.308305      0              0              9.188362       10.021198      0.2            92.078397    
     47700   0.21807625     0.00092289091  0.00092289091  0              0             -245.85705     -352.36887     -139.48462      0              57.79597       0              0              9.1873974      10.009422      0.2            91.960535    
     47800   0.19907504     0.00075605988  0.00075605988  0              0              373.68215      462.54457      284.67573      0              596.97797      0              0              9.1864328      10.018344      0.2            92.032846    
     47900   0.21970254     0.00089047081  0.00089047081  0              0             -285.69762     -205.25923     -366.24832      0              390.57682      0              0              9.1854681      10.026428      0.2            92.097437    
     48000   0.30875745     0.00088294454  0.00088294454  0              0              464.95062      667.55155      262.2051       0             -1.1490168      0              0              9.1845035      10.018248      0.2            92.012636    
     48100   0.20831939     0.00080425166  0.00080425166  0              0              245.23047      541.16422     -50.843864      0              244.70815      0              0              9.1835389      10.02807       0.2            92.093174    
     48200   0.19079557     0.00086027689  0.00086027689  0              0              135.8728       612.97662     -341.35845      0              577.87062      0              0              9.1825742      10.026586      0.2            92.06987     
     48300   0.24987131     0.00075949348  0.00075949348  0              0              372.48576      264.64343      480.17281      0             -84.281227      0              0              9.1816096      10.026703      0.2            92.061275    
     48400   0.21698706     0.00075934685  0.00075934685  0              0             -355.17174     -328.55124     -381.92776      0              458.76154      0              0              9.1806449      10.010039      0.2            91.898619    
     48500   0.22861173     0.00065475713  0.00065475713  0              0             -132.87746     -417.77709      151.89115      0             -162.36617      0              0              9.1796803      10.005498      0.2            91.847276    
     48600   0.18456736     0.00066122224  0.00066122224  0              0             -125.50996     -367.92874      116.80271      0              516.87226      0              0              9.1787157      10.004654      0.2            91.829876    
     48700   0.15456562     0.00076133253  0.00076133253  0              0             -34.609574      239.06717     -308.38792      0              514.51264      0              0              9.177751       10.009436      0.2            91.864107    
     48800   0.22267432     0.0012420007   0.0012420007   0              0             -65.256373     -547.44039      416.79084      0              328.12234      0              0              9.1767864      10.013603      0.2            91.8927      
     48900   0.19910351     0.00065643842  0.00065643842  0              0             -27.731484      320.35949     -375.94231      0              321.42263      0              0              9.1758218      10.021917      0.2            91.959322    
     49000   0.16334625     0.0006866097   0.0006866097   0              0              591.9052       1011.8561      171.83447      0             -75.007986      0              0              9.1748571      10.020017      0.2            91.932225    
     49100   0.21547889     0.00067877524  0.00067877524  0              0             -347.05243     -786.10165      91.8379        0              152.78305      0              0              9.1738925      10.017579      0.2            91.90019     
     49200   0.17724833     0.00077132648  0.00077132648  0              0              92.348606      520.74293     -336.15666      0              473.55206      0              0              9.1729279      10.018835      0.2            91.902049    
     49300   0.18086791     0.00051710515  0.00051710515  0              0              321.15956      218.13137      424.05442      0              60.26686       0              0              9.1719632      10.022872      0.2            91.92941     
     49400   0.1939953      0.00074059831  0.00074059831  0              0             -115.21764      77.963675     -308.53274      0              85.283147      0              0              9.1709986      10.023988      0.2            91.929984    
     49500   0.20592886     0.00069806094  0.00069806094  0              0             -353.09732     -667.20646     -39.105248      0              258.29572      0              0              9.170034       10.021505      0.2            91.897545    
     49600   0.20463425     0.00075963224  0.00075963224  0              0              372.40805      389.08116      355.61773      0             -61.094873      0              0              9.1690693      10.016705      0.2            91.843859    
     49700   0.19330892     0.00065908129  0.00065908129  0              0              116.70629      739.77774     -506.49795      0              153.33182      0              0              9.1681047      10.028499      0.2            91.942331    
     49800   0.20339174     0.0007013474   0.0007013474   0              0              185.15956     -187.81317      557.97807      0              208.28035      0              0              9.1671401      10.026429      0.2            91.913682    
     49900   0.18931246     0.00068003972  0.00068003972  0              0             -466.84113     -879.84738     -53.955333      0              357.7207       0              0              9.1661754      10.018719      0.2            91.833333    
     50000   0.22731227     0.00084013485  0.00084013485  0              0             -90.228965      22.974138     -203.61176      0              663.14155      0              0              9.1652108      10.012167      0.2            91.763623    
     50100   0.20873221     0.00073941512  0.00073941512  0              0              820.56721      1192.615       448.36597      0              118.46969      0              0              9.1642462      9.9986822      0.2            91.630385    
     50122   0.15891727     0.00076488768  0.00076488768  0              0              145.45875      651.48791     -360.70747      0              221.81922      0              0              9.1640339      10.008739      0.2            91.720424    
Loop time of 0.893074 on 1 procs for 50000 steps with 46 atoms

Performance: 48372.272 ns/day, 0.000 hours/ns, 55986.426 timesteps/s
99.6% CPU use with 1 MPI tasks x 1 OpenMP threads

MPI task timing breakdown:
Section |  min time  |  avg time  |  max time  |%varavg| %total
---------------------------------------------------------------
Pair    | 0          | 0          | 0          |   0.0 |  0.00
Bond    | 0.11912    | 0.11912    | 0.11912    |   0.0 | 13.34
Neigh   | 0          | 0          | 0          |   0.0 |  0.00
Comm    | 0.29073    | 0.29073    | 0.29073    |   0.0 | 32.55
Output  | 0.0060999  | 0.0060999  | 0.0060999  |   0.0 |  0.68
Modify  | 0.45393    | 0.45393    | 0.45393    |   0.0 | 50.83
Other   |            | 0.02319    |            |       |  2.60

Nlocal:             46 ave          46 max          46 min
Histogram: 1 0 0 0 0 0 0 0 0 0
Nghost:            377 ave         377 max         377 min
Histogram: 1 0 0 0 0 0 0 0 0 0
Neighs:              0 ave           0 max           0 min
Histogram: 1 0 0 0 0 0 0 0 0 0

Total # of neighbors = 0
Ave neighs/atom = 0
Ave special neighs/atom = 17.956522
Neighbor list builds = 0
Dangerous builds = 0


Total wall time: 0:00:00
