LAMMPS data file via write_data, version 23 Jun 2022, timestep = 10000

80 atoms
4 atom types

-4.809416032294988 4.809416032294988 xlo xhi
-4.809416032294988 4.809416032294988 ylo yhi
-0.1 0.1 zlo zhi

Atoms # sphere

8 1 1.6 0.2441406249999999 -4.218448338280318 -4.2700486508156805 0 0 0 0
47 3 1 1 -3.0843945990591575 -3.889767622654134 0 0 0 0
50 3 1 1 -3.203994492115874 4.75651455298491 0 0 -1 0
79 4 0.7 2.915451895043732 -2.3992632050643095 -4.386639257531878 0 0 0 0
65 4 0.7 2.915451895043732 -1.8816611046582423 -4.717806003317784 0 0 1 0
63 4 0.7 2.915451895043732 -1.5360037269515594 -4.14091633621952 0 0 1 0
7 1 1.6 0.2441406249999999 0.1832874937191198 -4.1521901052026084 0 0 0 0
77 4 0.7 2.915451895043732 1.3583124007997869 -4.572669453868227 0 0 1 0
11 1 1.6 0.2441406249999999 2.3358812983090145 -4.524269080243352 0 0 1 0
70 4 0.7 2.915451895043732 3.2641445499854553 -4.129436174605527 0 -1 0 0
5 1 1.6 0.2441406249999999 -4.0213995465965215 -2.776690528864101 0 1 0 0
61 4 0.7 2.915451895043732 -3.0312173761202663 -2.8557288295804173 0 0 0 0
72 4 0.7 2.915451895043732 -2.4884528307092477 -3.257244801900489 0 0 1 0
60 3 1 1 -1.784519610600217 -3.369762223451115 0 0 0 0
78 4 0.7 2.915451895043732 -0.9342617879549753 -3.9710565166189724 0 1 1 0
35 2 1.3 0.4551661356395083 -0.5618552912773254 -3.0000016396211686 0 0 0 0
44 3 1 1 0.3832425616434998 -2.9617165442690547 0 0 1 0
39 2 1.3 0.4551661356395083 1.350415030216567 -3.559307531894576 0 0 0 0
40 2 1.3 0.4551661356395083 2.521462729433255 -3.170876881648142 0 0 0 0
49 3 1 1 3.378178869037849 -2.4194512113401205 0 0 0 0
14 1 1.6 0.2441406249999999 3.945512128708038 -3.482823882882392 0 0 0 0
33 2 1.3 0.4551661356395083 -2.5662861497793705 -2.113617630469332 0 0 0 0
17 1 1.6 0.2441406249999999 -1.3599441778272547 -1.9993179213509653 0 0 0 0
4 1 1.6 0.2441406249999999 1.4197009177559483 -2.2151159308639894 0 0 0 0
71 4 0.7 2.915451895043732 2.6533806797186754 -2.2971148457049155 0 0 0 0
12 1 1.6 0.2441406249999999 4.7389341045584255 -1.7776333732341794 0 -1 0 0
38 2 1.3 0.4551661356395083 -3.6179259511176376 -1.4997668469314944 0 1 0 0
62 4 0.7 2.915451895043732 -3.478673004498975 -0.5456248772543066 0 0 0 0
16 1 1.6 0.2441406249999999 -2.485139668939711 -0.7658163962987725 0 0 0 0
15 1 1.6 0.2441406249999999 0.04747612762144282 -1.5925253555358085 0 0 0 0
30 2 1.3 0.4551661356395083 1.2475319725367555 -0.7436194473436846 0 0 0 0
68 4 0.7 2.915451895043732 2.3357198946043196 -1.73220635563221 0 0 0 0
75 4 0.7 2.915451895043732 1.9851969450598732 -1.2905003179358991 0 0 0 0
64 4 0.7 2.915451895043732 2.212611500041331 -0.8459749940449939 0 0 1 0
20 1 1.6 0.2441406249999999 3.2007989538329733 -1.258997724841036 0 0 0 0
41 3 1 1 4.336801640866061 -0.7004456628695026 0 0 0 0
34 2 1.3 0.4551661356395083 -4.336559637268622 -0.40193415862109205 0 0 0 0
37 2 1.3 0.4551661356395083 -3.2067646466399413 0.36987454253609986 0 0 0 0
13 1 1.6 0.2441406249999999 -1.928648324605983 0.6738174298199651 0 0 0 0
2 1 1.6 0.2441406249999999 -0.9819655080776633 -0.48394234696223126 0 0 0 0
29 2 1.3 0.4551661356395083 0.3121565694962305 -0.19932996591185503 0 0 0 0
23 2 1.3 0.4551661356395083 1.1912266763571502 0.5071958834087189 0 0 0 0
57 3 1 1 1.9981237779303207 0.05008837343387995 0 0 0 0
28 2 1.3 0.4551661356395083 3.002747547219119 0.12303754473105055 0 0 0 0
19 1 1.6 0.2441406249999999 4.225153418971234 0.527834748436443 0 0 0 0
22 2 1.3 0.4551661356395083 -4.146478156096027 0.8396354094198086 0 0 0 0
25 2 1.3 0.4551661356395083 -2.9813430045335156 1.4661997982264223 0 0 0 0
31 2 1.3 0.4551661356395083 -0.6244907108066613 0.8114014286889848 0 0 0 0
67 4 0.7 2.915451895043732 0.2856231934448221 0.9849655151408729 0 0 0 0
55 3 1 1 -0.06090212950714147 1.6700663398554978 0 1 0 0
27 2 1.3 0.4551661356395083 1.2556533929921931 1.635667547383382 0 0 0 0
26 2 1.3 0.4551661356395083 2.316335477378124 1.1070010823559633 0 0 -1 0
76 4 0.7 2.915451895043732 3.117705448204056 1.0663254149169141 0 -1 0 0
73 4 0.7 2.915451895043732 -4.796674061378861 1.6334444500393994 0 0 0 0
52 3 1 1 -3.97391877680908 1.8787575920657895 0 1 0 0
74 4 0.7 2.915451895043732 -3.3454704691060795 2.467204195872122 0 1 0 0
80 4 0.7 2.915451895043732 -2.145015019086476 1.6793541839045645 0 1 0 0
9 1 1.6 0.2441406249999999 -1.171503388783378 2.0206844585931094 0 0 0 0
66 4 0.7 2.915451895043732 0.6217757354440954 2.1006192422497403 0 0 0 0
3 1 1.6 0.2441406249999999 2.301608244991569 2.4775607020790327 0 0 -1 0
45 3 1 1 3.312720667809919 2.1638017689034443 0 0 0 0
53 3 1 1 4.039033466362809 1.888163842681796 0 -1 0 0
32 2 1.3 0.4551661356395083 -4.7224643259601935 2.5655481877764936 0 0 -1 0
54 3 1 1 -3.8733954163103896 3.0621811193124433 0 0 0 0
10 1 1.6 0.2441406249999999 -2.377062293273647 2.8552853271184224 0 0 0 0
21 2 1.3 0.4551661356395083 -1.159945210182165 3.509327498454504 0 1 0 0
6 1 1.6 0.2441406249999999 0.06919558484703625 3.0810637751180225 0 0 -1 0
42 3 1 1 1.091568293470849 2.750284813088955 0 0 0 0
1 1 1.6 0.2441406249999999 3.6603065733867544 3.2828327279352356 0 -1 0 0
58 3 1 1 -3.8889843067084073 4.12053996205707 0 0 -1 0
56 3 1 1 -3.2114051931606697 3.6230894540763066 0 0 0 0
46 3 1 1 -2.406847643920926 4.287740998722017 0 0 0 0
69 4 0.7 2.915451895043732 -1.6519778919211636 4.383075655207084 0 0 0 0
48 3 1 1 -1.0120181281620457 -4.788265519636783 0 0 0 0
59 3 1 1 -0.23098460214578242 4.208395622930962 0 0 0 0
18 1 1.6 0.2441406249999999 1.1043386541391609 4.063914401159855 0 0 -1 0
24 2 1.3 0.4551661356395083 2.3590460060814813 3.7331402529736932 0 0 -1 0
51 3 1 1 3.2324414653771134 4.443525335790915 0 0 0 0
43 3 1 1 -4.738738429313051 3.8570059040567353 0 0 0 0
36 2 1.3 0.4551661356395083 4.103086434955983 4.621454287825942 0 0 0 0

Velocities

8 0.06885891097863263 0.008871524323944818 0 0 0 0
47 0.011849279836191579 0.2463757582054287 0 0 0 0
50 0.02362334944114177 -0.3564231141252671 0 0 0 0
79 -0.01996405664496599 -0.1659158862518846 0 0 0 0
65 -0.011792436764216844 -0.016199127917424356 0 0 0 0
63 -0.22992323156191 0.029569207678739617 0 0 0 0
7 0.10102851244601736 0.028072039676438558 0 0 0 0
77 -0.03616641877577353 0.1236204403389077 0 0 0 0
11 0.08484665355226441 -0.041134638968548305 0 0 0 0
70 -0.02944693105473779 -0.09392437487354596 0 0 0 0
5 0.15245470660268468 0.10772256971736756 0 0 0 0
61 -0.06089826134775309 0.02421407275026549 0 0 0 0
72 -0.0065490946560577 -0.14769272992871588 0 0 0 0
60 0.1301577394671727 0.07113465381599603 0 0 0 0
78 -0.20378649023935225 -0.0373493320430824 0 0 0 0
35 0.06214442696629541 -0.10572658098393245 0 0 0 0
44 0.2053339301908899 -0.14890722266137796 0 0 0 0
39 -0.1948830991118855 0.001153497971204194 0 0 0 0
40 0.0327303453828256 -0.054261487301880344 0 0 0 0
49 -0.26221030190306077 0.01715656807689862 0 0 0 0
14 0.04023038295893663 -0.015832804774654322 0 0 0 0
33 -0.14405713936712644 0.062453681356860025 0 0 0 0
17 -0.08949930190230186 0.09557720764280773 0 0 0 0
4 -0.030280354883750336 -0.187774427412863 0 0 0 0
71 -0.08411996076189861 -0.1257953279577074 0 0 0 0
12 -0.10339648198706965 0.12201695852620459 0 0 0 0
38 0.15497226495121025 -0.19009396691509317 0 0 0 0
62 0.1459744545373585 0.029071657472344872 0 0 0 0
16 0.16734864961386786 0.04515302471325078 0 0 0 0
15 -0.1658308858383592 -0.07361214621092863 0 0 0 0
30 -0.013098730536737633 0.03962173654575512 0 0 0 0
68 0.11757401262741529 -0.1311229562245557 0 0 0 0
75 0.3103327804733301 0.03996628528844642 0 0 0 0
64 -0.05360392141370975 0.06648386092225585 0 0 0 0
20 -0.10282705971556785 0.10446231811420252 0 0 0 0
41 -0.09995309690583852 -0.03854547683267054 0 0 0 0
34 0.17136894581014012 0.14246456489891163 0 0 0 0
37 0.21199805582467457 0.03634545929699036 0 0 0 0
13 -0.03859756045872205 -0.09777785389064321 0 0 0 0
2 0.0827236212364794 0.08368780617184522 0 0 0 0
29 -0.053845422973677254 -0.09095529216414562 0 0 0 0
23 -0.05486915109169362 -0.016916720256846613 0 0 0 0
57 0.17496165725997 -0.013526767253931498 0 0 0 0
28 -0.08736784095172405 0.08958334877709798 0 0 0 0
19 0.08899033900310585 -0.0068676469948517355 0 0 0 0
22 -0.1267499116185154 -0.1820892969340749 0 0 0 0
25 -6.1072701858698e-05 -0.017707594885417927 0 0 0 0
31 0.06368092817652482 0.05155721425933616 0 0 0 0
67 0.10738674982103005 0.1128092271683937 0 0 0 0
55 -0.11744028907209471 0.05488734661815685 0 0 0 0
27 0.0714945922939151 -0.10138506552551407 0 0 0 0
26 -0.0861564281674411 0.014673251366922048 0 0 0 0
76 0.048086670113445674 -0.017866154905588107 0 0 0 0
73 0.07725857627957339 0.06319231143507414 0 0 0 0
52 -0.010443768147385646 -0.04634237115388607 0 0 0 0
74 -0.019329086555004753 0.18176660698086206 0 0 0 0
80 0.01611542010546088 0.008575064577001886 0 0 0 0
9 0.05860959669410489 0.11419520019422605 0 0 0 0
66 -0.20517189512727513 0.17618396595506372 0 0 0 0
3 -0.15100499652163046 0.07671591802754187 0 0 0 0
45 -0.10585098860526011 -0.14587283240454166 0 0 0 0
53 -0.08458255380148169 0.129507136276428 0 0 0 0
32 0.06544891920536049 -0.021395925766096724 0 0 0 0
54 0.02565043097296892 -0.017543683450869332 0 0 0 0
10 -0.07581183307832015 0.05346269630598307 0 0 0 0
21 0.0021088832190867646 -0.03144872231403932 0 0 0 0
6 -0.09009863705645578 0.14679314032882107 0 0 0 0
42 0.15319272235632617 -0.07099873556291701 0 0 0 0
1 0.0023707802723618274 0.07211962349924793 0 0 0 0
58 -0.015836920930996777 0.12098829649271758 0 0 0 0
56 0.09282385381040645 -0.11023297971535645 0 0 0 0
46 -0.10162550050924729 0.003607860872773643 0 0 0 0
69 -0.14247877721961627 -0.011255941806166535 0 0 0 0
48 -0.11822145247704408 -0.12192849677540682 0 0 0 0
59 -0.0811274374294927 -0.1341726649588117 0 0 0 0
18 0.35111627080951224 0.020185770243182816 0 0 0 0
24 0.0015251065494811837 -0.18963490369138 0 0 0 0
51 0.03193799508347656 0.2713441567919576 0 0 0 0
43 0.035348289132293764 -0.033133198979894016 0 0 0 0
36 -0.03470002418892504 0.1220214210986567 0 0 0 0
