LAMMPS data file.

     44 atoms
     91 bonds
      0 angles
      0 dihedrals
      0 impropers
      1 atom types
     91 bond types
      0 angle types
      0 dihedral types
      0 improper types
  -4.809416   4.809416 xlo xhi
  -4.809416   4.809416 ylo yhi
  -0.100000   0.100000 zlo zhi

Masses # ['atom_id', 'mass']

1 10000.0

Atoms # ['atomID', 'moleculeID', 'atomType', 'charge', 'x', 'y', 'z']

      7      1      1   0.000000   0.183287  -4.152190   0.000000
     11      1      1   0.000000   2.335881  -4.524269   0.000000
     35      1      1   0.000000  -0.561855  -3.000002   0.000000
     44      1      1   0.000000   0.383243  -2.961717   0.000000
     39      1      1   0.000000   1.350415  -3.559308   0.000000
     40      1      1   0.000000   2.521463  -3.170877   0.000000
     49      1      1   0.000000   3.378179  -2.419451   0.000000
     33      1      1   0.000000  -2.566286  -2.113618   0.000000
     17      1      1   0.000000  -1.359944  -1.999318   0.000000
      4      1      1   0.000000   1.419701  -2.215116   0.000000
     71      1      1   0.000000   2.653381  -2.297115   0.000000
     38      1      1   0.000000  -3.617926  -1.499767   0.000000
     62      1      1   0.000000  -3.478673  -0.545625   0.000000
     16      1      1   0.000000  -2.485140  -0.765816   0.000000
     15      1      1   0.000000   0.047476  -1.592525   0.000000
     30      1      1   0.000000   1.247532  -0.743619   0.000000
     68      1      1   0.000000   2.335720  -1.732206   0.000000
     75      1      1   0.000000   1.985197  -1.290500   0.000000
     64      1      1   0.000000   2.212612  -0.845975   0.000000
     20      1      1   0.000000   3.200799  -1.258998   0.000000
     41      1      1   0.000000   4.336802  -0.700446   0.000000
     34      1      1   0.000000  -4.336560  -0.401934   0.000000
     37      1      1   0.000000  -3.206765   0.369875   0.000000
     13      1      1   0.000000  -1.928648   0.673817   0.000000
      2      1      1   0.000000  -0.981966  -0.483942   0.000000
     29      1      1   0.000000   0.312157  -0.199330   0.000000
     23      1      1   0.000000   1.191227   0.507196   0.000000
     57      1      1   0.000000   1.998124   0.050088   0.000000
     28      1      1   0.000000   3.002748   0.123038   0.000000
     19      1      1   0.000000   4.225153   0.527835   0.000000
     22      1      1   0.000000  -4.146478   0.839635   0.000000
     25      1      1   0.000000  -2.981343   1.466200   0.000000
     31      1      1   0.000000  -0.624491   0.811401   0.000000
     55      1      1   0.000000  -0.060902   1.670066   0.000000
     27      1      1   0.000000   1.255653   1.635668   0.000000
     26      1      1   0.000000   2.316335   1.107001   0.000000
     80      1      1   0.000000  -2.145015   1.679354   0.000000
      9      1      1   0.000000  -1.171503   2.020684   0.000000
     66      1      1   0.000000   0.621776   2.100619   0.000000
      3      1      1   0.000000   2.301608   2.477561   0.000000
     42      1      1   0.000000   1.091568   2.750285   0.000000
      1      1      1   0.000000   3.660307   3.282833   0.000000
     24      1      1   0.000000   2.359046   3.733140   0.000000
     51      1      1   0.000000   3.232441   4.443525   0.000000

Bond Coeffs # ['bondID', 'bondCoeff', 'd']

      1   0.531131   1.372143
      2   0.820800   1.103777
      3   1.850828   0.735050
      4   0.532297   1.370639
      5   1.555765   0.801730
      6   1.185918   0.918275
      7   0.583534   1.309082
      8   1.618173   0.786118
      9   1.321674   0.869837
     10   0.427536   1.529374
     11   0.554691   1.342686
     12   0.548881   1.349773
     13   0.686243   1.207149
     14   0.497253   1.418115
     15   0.649952   1.240393
     16   1.096403   0.955025
     17   0.527411   1.376973
     18   0.737263   1.164632
     19   0.786199   1.127805
     20   0.788975   1.125818
     21   1.075525   0.964250
     22   1.117723   0.945873
     23   0.725628   1.173932
     24   4.010907   0.499320
     25   0.945252   1.028552
     26   0.553801   1.343765
     27   0.576025   1.317587
     28   0.610384   1.279966
     29   0.581478   1.311395
     30   0.579387   1.313759
     31   0.965631   1.017641
     32   0.605060   1.285585
     33   0.605060   1.285585
     34   1.028502   0.986047
     35   1.162750   0.927378
     36   0.525681   1.379237
     37   0.504548   1.407825
     38   0.851281   1.083836
     39   0.711980   1.185131
     40   1.061734   0.970492
     41   0.504548   1.407825
     42   0.770058   1.139563
     43   0.418880   1.545095
     44   0.535874   1.366057
     45   3.144945   0.563889
     46   0.400878   1.579406
     47   0.552322   1.345562
     48   0.465915   1.465030
     49   1.535096   0.807109
     50   0.656930   1.233787
     51   1.342499   0.863064
     52   0.551983   1.345976
     53   0.947923   1.027102
     54   0.657403   1.233344
     55   0.513019   1.396154
     56   0.440408   1.506858
     57   0.773672   1.136898
     58   0.615144   1.275004
     59   0.419775   1.543447
     60   0.409965   1.561804
     61   0.681048   1.211745
     62   0.637873   1.252082
     63   0.633864   1.256036
     64   0.548500   1.350242
     65   0.624032   1.265892
     66   0.694760   1.199727
     67   0.633000   1.256893
     68   0.567670   1.327248
     69   0.653477   1.237043
     70   0.932581   1.035516
     71   0.837970   1.092410
     72   0.603087   1.287687
     73   1.280635   0.883664
     74   1.017269   0.991476
     75   0.871762   1.071029
     76   1.017269   0.991476
     77   0.782718   1.130309
     78   0.569555   1.325049
     79   0.447104   1.495532
     80   0.906013   1.050589
     81   0.985619   1.007269
     82   0.612873   1.277364
     83   0.436928   1.512847
     84   0.787839   1.126630
     85   0.674418   1.217686
     86   0.814551   1.108003
     87   0.853841   1.082210
     88   0.814551   1.108003
     89   2.380782   0.648097
     90   0.939645   1.031616
     91   0.798248   1.119260

Bonds # ['ID', 'type', 'atom1', 'atom2']

         1         1         7        35
         2         2        57        26
         3         3        49        71
         4         4        26         3
         5         5        66        42
         6         6        30        75
         7         7         7        39
         8         8        27        66
         9         9        62        34
        10        10        16         2
        11        11        27         3
        12        12        38        16
        13        13         7        44
        14        14        15        29
        15        15         3        42
        16        16        62        37
        17        17         1        24
        18        18        55         9
        19        19        29        23
        20        20        24        51
        21        21        38        62
        22        22        35        44
        23        23        49        20
        24        24        75        64
        25        25        13        80
        26        26         2        31
        27        27        13        25
        28        28        35        17
        29        29        13        31
        30        30        37        13
        31        31        62        16
        32        32        19        22
        33        33        22        19
        34        34        68        20
        35        35        23        57
        36        36        11        39
        37        37        34        19
        38        38         4        75
        39        39        27        26
        40        40        30        64
        41        41        19        34
        42        42        40        49
        43        43        13         9
        44        44        11        40
        45        45        68        75
        46        46         3         1
        47        47        16        37
        48        48        17        15
        49        49        55        66
        50        50        39        40
        51        51        25        80
        52        52        39         4
        53        53        31        55
        54        54        41        19
        55        55        20        28
        56        56         4        15
        57        57        44        39
        58        58        23        26
        59        59        16        13
        60        60        17         2
        61        61        33        17
        62        62        30        23
        63        63        34        22
        64        64        33        16
        65        65        20        41
        66        66        28        26
        67        67         3        24
        68        68        31         9
        69        69         1        51
        70        70         4        68
        71        71        30        57
        72        72        28        19
        73        73        40        71
        74        74        34        41
        75        75        64        20
        76        76        41        34
        77        77        23        27
        78        78         2        29
        79        79        13         2
        80        80        37        22
        81        81        57        28
        82        82        44         4
        83        83        15         2
        84        84        27        42
        85        85        33        38
        86        86        11        51
        87        87        30        29
        88        88        51        11
        89        89        71        68
        90        90        80         9
        91        91        37        25
