ITEM: TIMESTEP
0
ITEM: NUMBER OF ATOMS
80
ITEM: BOX BOUNDS pp pp pp
-1.0000000000000000e+01 1.0000000000000000e+01
-1.0000000000000000e+01 1.0000000000000000e+01
-1.0000000000000001e-01 1.0000000000000001e-01
ITEM: ATOMS id type xs ys zs
58 3 0.00708108 0.0117468 0.5
6 1 0.500745 0.0196668 0.5
4 1 0.554117 0.0516425 0.5
26 2 0.612008 0.0192321 0.5
68 4 0.642472 0.0277911 0.5
3 1 0.98578 0.0114369 0.5
48 3 0.51235 0.0651231 0.5
20 1 0.585475 0.0832617 0.5
32 2 0.165237 0.132832 0.5
39 2 0.518662 0.152044 0.5
47 3 0.541447 0.106849 0.5
14 1 0.825795 0.135992 0.5
50 3 0.086761 0.192435 0.5
24 2 0.202961 0.158151 0.5
33 2 0.191182 0.198421 0.5
18 1 0.40627 0.182682 0.5
23 2 0.818301 0.191099 0.5
8 1 0.0837874 0.214054 0.5
16 1 0.317145 0.250316 0.5
35 2 0.652658 0.225291 0.5
5 1 0.905591 0.26273 0.5
7 1 0.332796 0.29641 0.5
13 1 0.419906 0.355577 0.5
60 3 0.618572 0.332823 0.5
71 4 0.740246 0.319055 0.5
79 4 0.0292978 0.407871 0.5
12 1 0.115273 0.38966 0.5
17 1 0.148772 0.414627 0.5
2 1 0.27378 0.41265 0.5
40 2 0.785767 0.391081 0.5
49 3 0.795884 0.41655 0.5
30 2 0.994192 0.38413 0.5
15 1 0.666535 0.450813 0.5
80 4 0.832358 0.446264 0.5
61 4 0.0929687 0.525153 0.5
25 2 0.324181 0.503327 0.5
42 3 0.330131 0.512008 0.5
29 2 0.463051 0.500198 0.5
10 1 0.183529 0.567456 0.5
37 2 0.278726 0.545041 0.5
57 3 0.680881 0.567585 0.5
19 1 0.707298 0.55144 0.5
31 2 0.809517 0.54471 0.5
74 4 0.866636 0.55058 0.5
38 2 0.96701 0.53259 0.5
53 3 0.0755403 0.606441 0.5
73 4 0.0834525 0.586081 0.5
76 4 0.112071 0.580781 0.5
70 4 0.162229 0.581022 0.5
56 3 0.642328 0.606485 0.5
52 3 0.775665 0.593961 0.5
75 4 0.756803 0.595757 0.5
54 3 0.047996 0.669538 0.5
34 2 0.129688 0.668163 0.5
46 3 0.13671 0.684059 0.5
66 4 0.748061 0.662131 0.5
22 2 0.477223 0.688546 0.5
64 4 0.476629 0.696182 0.5
63 4 0.609788 0.703237 0.5
72 4 0.616929 0.729672 0.5
9 1 0.676248 0.695046 0.5
27 2 0.807564 0.728141 0.5
55 3 0.86129 0.701395 0.5
21 2 0.90907 0.732298 0.5
67 4 0.56225 0.740277 0.5
51 3 0.680832 0.737896 0.5
43 3 0.306883 0.789906 0.5
69 4 0.344251 0.828099 0.5
45 3 0.721712 0.817123 0.5
28 2 0.867663 0.813617 0.5
36 2 0.917524 0.830402 0.5
78 4 0.944299 0.827749 0.5
1 1 0.0952514 0.890281 0.5
65 4 0.189557 0.883265 0.5
62 4 0.293799 0.871857 0.5
44 3 0.567078 0.875136 0.5
77 4 0.724453 0.88541 0.5
41 3 0.86588 0.843162 0.5
59 3 0.376801 0.900295 0.5
11 1 0.874694 0.981024 0.5
ITEM: TIMESTEP
10
ITEM: NUMBER OF ATOMS
80
ITEM: BOX BOUNDS pp pp pp
-9.2617581313485058e+00 9.2617581313485058e+00
-9.2617581313485058e+00 9.2617581313485058e+00
-1.0000000000000001e-01 1.0000000000000001e-01
ITEM: ATOMS id type xs ys zs
58 3 0.00724271 0.0117491 0.5
6 1 0.500669 0.019565 0.5
4 1 0.554144 0.0515391 0.5
26 2 0.61197 0.0191867 0.5
68 4 0.642539 0.0278098 0.5
3 1 0.985619 0.0114345 0.5
48 3 0.51229 0.0652135 0.5
20 1 0.585614 0.0833426 0.5
32 2 0.165175 0.132791 0.5
39 2 0.518649 0.152069 0.5
47 3 0.541402 0.106885 0.5
14 1 0.825804 0.135927 0.5
50 3 0.0867828 0.192276 0.5
24 2 0.203047 0.158109 0.5
33 2 0.191158 0.198504 0.5
18 1 0.40627 0.182682 0.5
23 2 0.818293 0.191163 0.5
8 1 0.0837656 0.214213 0.5
16 1 0.317107 0.250204 0.5
35 2 0.652658 0.225291 0.5
5 1 0.905591 0.26273 0.5
7 1 0.332833 0.296521 0.5
13 1 0.419906 0.355577 0.5
60 3 0.618572 0.332823 0.5
71 4 0.740246 0.319055 0.5
79 4 0.0293228 0.407888 0.5
12 1 0.115158 0.389575 0.5
17 1 0.148887 0.414712 0.5
2 1 0.27378 0.41265 0.5
40 2 0.785726 0.390977 0.5
49 3 0.795925 0.416654 0.5
30 2 0.994167 0.384113 0.5
15 1 0.666535 0.450813 0.5
80 4 0.832358 0.446264 0.5
61 4 0.0929687 0.525153 0.5
25 2 0.324094 0.503174 0.5
42 3 0.330229 0.51215 0.5
29 2 0.463051 0.500198 0.5
10 1 0.18363 0.567391 0.5
37 2 0.278715 0.545051 0.5
57 3 0.680773 0.567651 0.5
19 1 0.707406 0.551374 0.5
31 2 0.809517 0.54471 0.5
74 4 0.866636 0.55058 0.5
38 2 0.96701 0.53259 0.5
53 3 0.0755124 0.606513 0.5
73 4 0.0834576 0.586013 0.5
76 4 0.112094 0.580777 0.5
70 4 0.162128 0.581086 0.5
56 3 0.642328 0.606485 0.5
52 3 0.775752 0.593953 0.5
75 4 0.756716 0.595766 0.5
54 3 0.047996 0.669538 0.5
34 2 0.129628 0.668027 0.5
46 3 0.13677 0.684195 0.5
66 4 0.748061 0.662131 0.5
22 2 0.477235 0.688391 0.5
64 4 0.476616 0.696338 0.5
63 4 0.60978 0.703208 0.5
72 4 0.616937 0.7297 0.5
9 1 0.676239 0.694964 0.5
27 2 0.807564 0.728141 0.5
55 3 0.861286 0.701392 0.5
21 2 0.909074 0.7323 0.5
67 4 0.56225 0.740277 0.5
51 3 0.68084 0.737978 0.5
43 3 0.306883 0.789906 0.5
69 4 0.344251 0.828099 0.5
45 3 0.721712 0.817123 0.5
28 2 0.867624 0.813498 0.5
36 2 0.917502 0.830421 0.5
78 4 0.944385 0.82774 0.5
1 1 0.0952514 0.890281 0.5
65 4 0.189557 0.883265 0.5
62 4 0.293799 0.871857 0.5
44 3 0.567078 0.875136 0.5
77 4 0.724453 0.88541 0.5
41 3 0.865856 0.84327 0.5
59 3 0.376801 0.900295 0.5
11 1 0.874694 0.981024 0.5
ITEM: TIMESTEP
20
ITEM: NUMBER OF ATOMS
80
ITEM: BOX BOUNDS pp pp pp
-8.3385289618419698e+00 8.3385289618419698e+00
-8.3385289618419698e+00 8.3385289618419698e+00
-1.0000000000000001e-01 1.0000000000000001e-01
ITEM: ATOMS id type xs ys zs
58 3 0.00781708 0.0117575 0.5
6 1 0.500372 0.0191714 0.5
4 1 0.554243 0.05116 0.5
26 2 0.611865 0.018975 0.5
68 4 0.642786 0.0278795 0.5
3 1 0.985044 0.0114262 0.5
48 3 0.512055 0.0655403 0.5
20 1 0.586122 0.083662 0.5
32 2 0.164938 0.132627 0.5
39 2 0.518594 0.152179 0.5
47 3 0.54124 0.107044 0.5
14 1 0.825838 0.135676 0.5
50 3 0.0868602 0.191714 0.5
24 2 0.203372 0.157955 0.5
33 2 0.191069 0.198822 0.5
18 1 0.40627 0.182682 0.5
23 2 0.818258 0.191415 0.5
8 1 0.0836882 0.214776 0.5
16 1 0.316967 0.249793 0.5
35 2 0.652658 0.225291 0.5
5 1 0.905591 0.26273 0.5
7 1 0.332973 0.296932 0.5
13 1 0.419906 0.355577 0.5
60 3 0.618572 0.332823 0.5
71 4 0.740246 0.319055 0.5
79 4 0.0294273 0.407959 0.5
12 1 0.114743 0.389266 0.5
17 1 0.149302 0.415021 0.5
2 1 0.27378 0.41265 0.5
40 2 0.785577 0.390601 0.5
49 3 0.796071 0.417028 0.5
30 2 0.994062 0.384043 0.5
15 1 0.666535 0.450813 0.5
80 4 0.832361 0.446266 0.5
61 4 0.0929687 0.525153 0.5
25 2 0.323812 0.502614 0.5
42 3 0.330583 0.512646 0.5
29 2 0.463051 0.500198 0.5
10 1 0.183993 0.56716 0.5
37 2 0.278642 0.545115 0.5
57 3 0.680387 0.567885 0.5
19 1 0.707795 0.551135 0.5
31 2 0.809528 0.544692 0.5
74 4 0.866637 0.55058 0.5
38 2 0.96701 0.53259 0.5
53 3 0.0754019 0.60678 0.5
73 4 0.0834647 0.58577 0.5
76 4 0.112197 0.580753 0.5
70 4 0.161765 0.581317 0.5
56 3 0.642324 0.606489 0.5
52 3 0.776053 0.593941 0.5
75 4 0.756404 0.595796 0.5
54 3 0.047996 0.669538 0.5
34 2 0.129416 0.667546 0.5
46 3 0.136982 0.684676 0.5
66 4 0.748061 0.662131 0.5
22 2 0.477278 0.687844 0.5
64 4 0.476574 0.696884 0.5
63 4 0.60975 0.703096 0.5
72 4 0.616967 0.729812 0.5
9 1 0.676206 0.694656 0.5
27 2 0.807547 0.728149 0.5
55 3 0.861264 0.701359 0.5
21 2 0.909112 0.732326 0.5
67 4 0.56225 0.740277 0.5
51 3 0.680873 0.738286 0.5
43 3 0.306883 0.789906 0.5
69 4 0.344251 0.828099 0.5
45 3 0.721712 0.817123 0.5
28 2 0.867462 0.813059 0.5
36 2 0.917462 0.830493 0.5
78 4 0.944698 0.827709 0.5
1 1 0.0952514 0.890281 0.5
65 4 0.189557 0.883265 0.5
62 4 0.293799 0.871857 0.5
44 3 0.567078 0.875136 0.5
77 4 0.724453 0.88541 0.5
41 3 0.865745 0.843669 0.5
59 3 0.376801 0.900295 0.5
11 1 0.874694 0.981024 0.5
ITEM: TIMESTEP
30
ITEM: NUMBER OF ATOMS
80
ITEM: BOX BOUNDS pp pp pp
-7.6458832792312794e+00 7.6458832792312794e+00
-7.6458832792312794e+00 7.6458832792312794e+00
-1.0000000000000001e-01 1.0000000000000001e-01
ITEM: ATOMS id type xs ys zs
58 3 0.00892364 0.0117736 0.5
6 1 0.499745 0.0183509 0.5
4 1 0.554448 0.0504059 0.5
26 2 0.611723 0.0184656 0.5
68 4 0.643284 0.0280214 0.5
3 1 0.983938 0.0114101 0.5
48 3 0.511535 0.0661744 0.5
20 1 0.587147 0.0843461 0.5
32 2 0.164434 0.132252 0.5
39 2 0.518465 0.152435 0.5
47 3 0.54093 0.107411 0.5
14 1 0.82591 0.135145 0.5
50 3 0.0870094 0.190628 0.5
24 2 0.204041 0.157647 0.5
33 2 0.190905 0.199505 0.5
18 1 0.40627 0.182682 0.5
23 2 0.818186 0.191946 0.5
8 1 0.0835389 0.215861 0.5
16 1 0.316688 0.24897 0.5
35 2 0.652658 0.225291 0.5
5 1 0.905591 0.26273 0.5
7 1 0.333253 0.297756 0.5
13 1 0.419906 0.355577 0.5
60 3 0.618572 0.332823 0.5
71 4 0.740246 0.319055 0.5
79 4 0.0296604 0.408116 0.5
12 1 0.113925 0.388656 0.5
17 1 0.15012 0.415631 0.5
2 1 0.27378 0.41265 0.5
40 2 0.785285 0.389866 0.5
49 3 0.796335 0.41774 0.5
30 2 0.993829 0.383885 0.5
15 1 0.666535 0.450813 0.5
80 4 0.83239 0.446289 0.5
61 4 0.0929687 0.525153 0.5
25 2 0.323319 0.501504 0.5
42 3 0.331298 0.513568 0.5
29 2 0.463051 0.500198 0.5
10 1 0.1847 0.56671 0.5
37 2 0.27842 0.545303 0.5
57 3 0.679658 0.568316 0.5
19 1 0.70854 0.550651 0.5
31 2 0.809561 0.544612 0.5
74 4 0.866657 0.550582 0.5
38 2 0.96701 0.53259 0.5
53 3 0.0751568 0.607327 0.5
73 4 0.0834552 0.585293 0.5
76 4 0.112452 0.580683 0.5
70 4 0.161058 0.581768 0.5
56 3 0.642289 0.606524 0.5
52 3 0.776612 0.593962 0.5
75 4 0.75581 0.59587 0.5
54 3 0.047996 0.669538 0.5
34 2 0.129007 0.666621 0.5
46 3 0.137391 0.685601 0.5
66 4 0.748061 0.662131 0.5
22 2 0.477359 0.686805 0.5
64 4 0.476493 0.697923 0.5
63 4 0.609668 0.70286 0.5
72 4 0.617025 0.730055 0.5
9 1 0.676162 0.694025 0.5
27 2 0.807468 0.728189 0.5
55 3 0.861222 0.701241 0.5
21 2 0.909234 0.732404 0.5
67 4 0.56225 0.740277 0.5
51 3 0.68094 0.738911 0.5
43 3 0.306883 0.789906 0.5
69 4 0.344251 0.828099 0.5
45 3 0.721712 0.817123 0.5
28 2 0.867106 0.812181 0.5
36 2 0.917459 0.830637 0.5
78 4 0.945319 0.827647 0.5
1 1 0.0952514 0.890281 0.5
65 4 0.189557 0.883265 0.5
62 4 0.293799 0.871857 0.5
44 3 0.567078 0.875136 0.5
77 4 0.724453 0.88541 0.5
41 3 0.865482 0.844466 0.5
59 3 0.376801 0.900295 0.5
11 1 0.874694 0.981024 0.5
ITEM: TIMESTEP
40
ITEM: NUMBER OF ATOMS
80
ITEM: BOX BOUNDS pp pp pp
-7.1468028461446149e+00 7.1468028461446149e+00
-7.1468028461446149e+00 7.1468028461446149e+00
-1.0000000000000001e-01 1.0000000000000001e-01
ITEM: ATOMS id type xs ys zs
58 3 0.0106599 0.0117988 0.5
6 1 0.498687 0.0169832 0.5
4 1 0.554783 0.0491884 0.5
26 2 0.611578 0.0175278 0.5
68 4 0.644095 0.0282566 0.5
3 1 0.982202 0.0113848 0.5
48 3 0.510606 0.0671711 0.5
20 1 0.588849 0.0855205 0.5
32 2 0.163576 0.131576 0.5
39 2 0.518231 0.1529 0.5
47 3 0.540447 0.108063 0.5
14 1 0.826032 0.134251 0.5
50 3 0.0872437 0.188925 0.5
24 2 0.205148 0.15715 0.5
33 2 0.190655 0.200678 0.5
18 1 0.40627 0.182682 0.5
23 2 0.818065 0.19284 0.5
8 1 0.0833046 0.217564 0.5
16 1 0.316235 0.247637 0.5
35 2 0.652658 0.225291 0.5
5 1 0.905591 0.26273 0.5
7 1 0.333695 0.299082 0.5
13 1 0.419916 0.355584 0.5
60 3 0.618572 0.332823 0.5
71 4 0.740246 0.319055 0.5
79 4 0.0300675 0.408392 0.5
12 1 0.112616 0.387681 0.5
17 1 0.151429 0.416606 0.5
2 1 0.27378 0.41265 0.5
40 2 0.78482 0.388696 0.5
49 3 0.796711 0.418839 0.5
30 2 0.993422 0.38361 0.5
15 1 0.666534 0.450812 0.5
80 4 0.832478 0.446359 0.5
61 4 0.0929687 0.525153 0.5
25 2 0.322612 0.499719 0.5
42 3 0.332465 0.514969 0.5
29 2 0.463051 0.500198 0.5
10 1 0.185827 0.565995 0.5
37 2 0.277966 0.545687 0.5
57 3 0.678546 0.568955 0.5
19 1 0.709656 0.549822 0.5
31 2 0.809606 0.544415 0.5
74 4 0.866738 0.55059 0.5
38 2 0.96701 0.53259 0.5
53 3 0.0747297 0.608227 0.5
73 4 0.0834082 0.584534 0.5
76 4 0.112913 0.580543 0.5
70 4 0.159938 0.582481 0.5
56 3 0.642186 0.606629 0.5
52 3 0.777483 0.594077 0.5
75 4 0.754913 0.59603 0.5
54 3 0.0479956 0.669539 0.5
34 2 0.128367 0.665173 0.5
46 3 0.138031 0.68705 0.5
66 4 0.748061 0.662131 0.5
22 2 0.477484 0.685191 0.5
64 4 0.476367 0.699538 0.5
63 4 0.609481 0.702467 0.5
72 4 0.617091 0.730485 0.5
9 1 0.676175 0.692965 0.5
27 2 0.807276 0.728285 0.5
55 3 0.861161 0.700982 0.5
21 2 0.909486 0.732567 0.5
67 4 0.56225 0.740277 0.5
51 3 0.68105 0.739934 0.5
43 3 0.306872 0.789894 0.5
69 4 0.344263 0.828111 0.5
45 3 0.721712 0.817123 0.5
28 2 0.866489 0.810759 0.5
36 2 0.91755 0.830874 0.5
78 4 0.946318 0.827544 0.5
1 1 0.0952514 0.890281 0.5
65 4 0.189557 0.883265 0.5
62 4 0.293799 0.871857 0.5
44 3 0.567078 0.875136 0.5
77 4 0.724453 0.88541 0.5
41 3 0.865008 0.845752 0.5
59 3 0.376801 0.900295 0.5
11 1 0.874694 0.981024 0.5
ITEM: TIMESTEP
50
ITEM: NUMBER OF ATOMS
80
ITEM: BOX BOUNDS pp pp pp
-6.8036830436843969e+00 6.8036830436843969e+00
-6.8036830436843969e+00 6.8036830436843969e+00
-1.0000000000000001e-01 1.0000000000000001e-01
ITEM: ATOMS id type xs ys zs
58 3 0.0130612 0.0118337 0.5
6 1 0.497137 0.0150013 0.5
4 1 0.55526 0.0474612 0.5
26 2 0.611467 0.0160626 0.5
68 4 0.645256 0.0285956 0.5
3 1 0.97981 0.0113528 0.5
48 3 0.509185 0.068555 0.5
20 1 0.591332 0.0872609 0.5
32 2 0.16231 0.130547 0.5
39 2 0.517852 0.153637 0.5
47 3 0.539787 0.109037 0.5
14 1 0.826209 0.132944 0.5
50 3 0.0875679 0.186568 0.5
24 2 0.206754 0.156441 0.5
33 2 0.190315 0.202416 0.5
18 1 0.406279 0.182675 0.5
23 2 0.817887 0.194146 0.5
8 1 0.0829804 0.219921 0.5
16 1 0.315584 0.245753 0.5
35 2 0.652658 0.225291 0.5
5 1 0.905591 0.26273 0.5
7 1 0.334273 0.300931 0.5
13 1 0.41998 0.355626 0.5
60 3 0.618572 0.332823 0.5
71 4 0.740246 0.319055 0.5
79 4 0.0306783 0.408805 0.5
12 1 0.110779 0.386311 0.5
17 1 0.153266 0.417976 0.5
2 1 0.273772 0.412636 0.5
40 2 0.784172 0.38706 0.5
49 3 0.797178 0.420334 0.5
30 2 0.992811 0.383197 0.5
15 1 0.666522 0.450784 0.5
80 4 0.83266 0.446501 0.5
61 4 0.0929687 0.525153 0.5
25 2 0.321717 0.49721 0.5
42 3 0.334132 0.516858 0.5
29 2 0.463051 0.500198 0.5
10 1 0.187389 0.565002 0.5
37 2 0.277258 0.546308 0.5
57 3 0.677049 0.569787 0.5
19 1 0.711118 0.54858 0.5
31 2 0.809665 0.544055 0.5
74 4 0.866919 0.55061 0.5
38 2 0.96701 0.53259 0.5
53 3 0.0740899 0.609488 0.5
73 4 0.0833031 0.583468 0.5
76 4 0.113582 0.580324 0.5
70 4 0.158392 0.583476 0.5
56 3 0.641967 0.606848 0.5
52 3 0.778701 0.594352 0.5
75 4 0.753719 0.596313 0.5
54 3 0.0479805 0.669561 0.5
34 2 0.127502 0.663185 0.5
46 3 0.138915 0.68905 0.5
66 4 0.748077 0.662124 0.5
22 2 0.477657 0.682977 0.5
64 4 0.476195 0.701751 0.5
63 4 0.609141 0.701899 0.5
72 4 0.617139 0.731147 0.5
9 1 0.676297 0.691417 0.5
27 2 0.806933 0.728458 0.5
55 3 0.861085 0.700536 0.5
21 2 0.909914 0.732828 0.5
67 4 0.56225 0.740277 0.5
51 3 0.681205 0.741397 0.5
43 3 0.306829 0.78985 0.5
69 4 0.344306 0.828155 0.5
45 3 0.721712 0.817123 0.5
28 2 0.865562 0.808753 0.5
36 2 0.917779 0.83122 0.5
78 4 0.947736 0.827395 0.5
1 1 0.0952514 0.890281 0.5
65 4 0.189557 0.883265 0.5
62 4 0.293799 0.871857 0.5
44 3 0.567078 0.875136 0.5
77 4 0.724453 0.88541 0.5
41 3 0.864282 0.847576 0.5
59 3 0.376801 0.900295 0.5
11 1 0.874684 0.981021 0.5
ITEM: TIMESTEP
60
ITEM: NUMBER OF ATOMS
80
ITEM: BOX BOUNDS pp pp pp
-6.5646826379166514e+00 6.5646826379166514e+00
-6.5646826379166514e+00 6.5646826379166514e+00
-1.0000000000000001e-01 1.0000000000000001e-01
ITEM: ATOMS id type xs ys zs
58 3 0.0161197 0.0118782 0.5
6 1 0.49507 0.012384 0.5
4 1 0.555875 0.0452132 0.5
26 2 0.611422 0.014005 0.5
68 4 0.646793 0.0290327 0.5
3 1 0.976818 0.0113274 0.5
48 3 0.507235 0.0703287 0.5
20 1 0.594631 0.0896135 0.5
32 2 0.160612 0.129147 0.5
39 2 0.517291 0.154699 0.5
47 3 0.538961 0.110335 0.5
14 1 0.826446 0.131206 0.5
50 3 0.0879811 0.183564 0.5
24 2 0.208886 0.155515 0.5
33 2 0.189881 0.204742 0.5
18 1 0.40633 0.18264 0.5
23 2 0.817651 0.195885 0.5
8 1 0.0825669 0.222925 0.5
16 1 0.314698 0.243329 0.5
35 2 0.652658 0.225291 0.5
5 1 0.905591 0.26273 0.5
7 1 0.334943 0.303284 0.5
13 1 0.420145 0.355732 0.5
60 3 0.618572 0.332823 0.5
71 4 0.740246 0.319055 0.5
79 4 0.0314954 0.409369 0.5
12 1 0.108421 0.384542 0.5
17 1 0.155634 0.419742 0.5
2 1 0.273732 0.412563 0.5
40 2 0.783339 0.384954 0.5
49 3 0.797708 0.422208 0.5
30 2 0.991983 0.382636 0.5
15 1 0.66648 0.45069 0.5
80 4 0.832962 0.446733 0.5
61 4 0.0929687 0.525153 0.5
25 2 0.320681 0.494013 0.5
42 3 0.33631 0.519216 0.5
29 2 0.463051 0.500198 0.5
10 1 0.189352 0.563736 0.5
37 2 0.276322 0.547185 0.5
57 3 0.675195 0.570785 0.5
19 1 0.712869 0.546899 0.5
31 2 0.809767 0.543493 0.5
74 4 0.867227 0.550643 0.5
38 2 0.96701 0.53259 0.5
53 3 0.0732126 0.611057 0.5
73 4 0.0831229 0.582088 0.5
76 4 0.114427 0.580023 0.5
70 4 0.156454 0.584755 0.5
56 3 0.64158 0.607197 0.5
52 3 0.780281 0.594839 0.5
75 4 0.75225 0.596751 0.5
54 3 0.0479087 0.669639 0.5
34 2 0.126475 0.660695 0.5
46 3 0.140039 0.691595 0.5
66 4 0.74814 0.662099 0.5
22 2 0.477875 0.680179 0.5
64 4 0.475977 0.70455 0.5
63 4 0.608615 0.701155 0.5
72 4 0.617153 0.732066 0.5
9 1 0.676558 0.689385 0.5
27 2 0.806409 0.728722 0.5
55 3 0.860996 0.699871 0.5
21 2 0.91056 0.733167 0.5
67 4 0.56225 0.740277 0.5
51 3 0.681405 0.74331 0.5
43 3 0.306738 0.789758 0.5
69 4 0.344396 0.828248 0.5
45 3 0.721712 0.817123 0.5
28 2 0.864283 0.80618 0.5
36 2 0.918169 0.831684 0.5
78 4 0.949585 0.827193 0.5
1 1 0.0952514 0.890281 0.5
65 4 0.189557 0.883265 0.5
62 4 0.293799 0.871857 0.5
44 3 0.567078 0.875136 0.5
77 4 0.724453 0.88541 0.5
41 3 0.863287 0.849947 0.5
59 3 0.376801 0.900295 0.5
11 1 0.874618 0.981002 0.5
ITEM: TIMESTEP
70
ITEM: NUMBER OF ATOMS
80
ITEM: BOX BOUNDS pp pp pp
-6.4116416436278216e+00 6.4116416436278216e+00
-6.4116416436278216e+00 6.4116416436278216e+00
-1.0000000000000001e-01 1.0000000000000001e-01
ITEM: ATOMS id type xs ys zs
58 3 0.0197872 0.0119312 0.5
6 1 0.49249 0.00915515 0.5
4 1 0.556609 0.0424722 0.5
26 2 0.611466 0.0113298 0.5
68 4 0.648704 0.0295603 0.5
3 1 0.973323 0.0113251 0.5
48 3 0.504769 0.0724582 0.5
20 1 0.598715 0.092586 0.5
32 2 0.158493 0.127395 0.5
39 2 0.516529 0.156127 0.5
47 3 0.537995 0.111922 0.5
14 1 0.82674 0.129045 0.5
50 3 0.0884762 0.179963 0.5
24 2 0.211538 0.154376 0.5
33 2 0.18936 0.207631 0.5
18 1 0.406454 0.182556 0.5
23 2 0.817353 0.198042 0.5
8 1 0.0820601 0.226529 0.5
16 1 0.313557 0.240411 0.5
35 2 0.652658 0.225291 0.5
5 1 0.905594 0.262732 0.5
7 1 0.335656 0.306092 0.5
13 1 0.42045 0.355924 0.5
60 3 0.618572 0.332823 0.5
71 4 0.740246 0.319055 0.5
79 4 0.0324839 0.410094 0.5
12 1 0.105608 0.382384 0.5
17 1 0.158479 0.421883 0.5
2 1 0.273656 0.412385 0.5
40 2 0.782334 0.382406 0.5
49 3 0.798266 0.424422 0.5
30 2 0.990937 0.381929 0.5
15 1 0.666388 0.450495 0.5
80 4 0.83341 0.447067 0.5
61 4 0.0929687 0.525153 0.5
25 2 0.319557 0.490211 0.5
42 3 0.338973 0.522004 0.5
29 2 0.463051 0.500198 0.5
10 1 0.191646 0.562221 0.5
37 2 0.275209 0.548311 0.5
57 3 0.673029 0.571913 0.5
19 1 0.714835 0.544784 0.5
31 2 0.809942 0.542704 0.5
74 4 0.867682 0.550695 0.5
38 2 0.96701 0.53259 0.5
53 3 0.0720882 0.612855 0.5
73 4 0.0828554 0.580406 0.5
76 4 0.1154 0.579646 0.5
70 4 0.154185 0.586306 0.5
56 3 0.640986 0.607669 0.5
52 3 0.782208 0.595578 0.5
75 4 0.750538 0.597366 0.5
54 3 0.0477392 0.669809 0.5
34 2 0.125367 0.657768 0.5
46 3 0.141384 0.694645 0.5
66 4 0.748279 0.662044 0.5
22 2 0.478134 0.676845 0.5
64 4 0.475718 0.707884 0.5
63 4 0.607888 0.700243 0.5
72 4 0.617126 0.733243 0.5
9 1 0.676972 0.686922 0.5
27 2 0.805683 0.729074 0.5
55 3 0.8609 0.698972 0.5
21 2 0.911457 0.733558 0.5
67 4 0.56225 0.740277 0.5
51 3 0.681646 0.745657 0.5
43 3 0.306589 0.789605 0.5
69 4 0.344546 0.8284 0.5
45 3 0.721712 0.817123 0.5
28 2 0.862644 0.803111 0.5
36 2 0.918722 0.832278 0.5
78 4 0.951858 0.826934 0.5
1 1 0.0952514 0.890281 0.5
65 4 0.189557 0.883265 0.5
62 4 0.293799 0.871857 0.5
44 3 0.567078 0.875136 0.5
77 4 0.724453 0.88541 0.5
41 3 0.862026 0.852837 0.5
59 3 0.376801 0.900295 0.5
11 1 0.874445 0.980951 0.5
ITEM: TIMESTEP
80
ITEM: NUMBER OF ATOMS
80
ITEM: BOX BOUNDS pp pp pp
-6.3366228012040526e+00 6.3366228012040526e+00
-6.3366228012040526e+00 6.3366228012040526e+00
-1.0000000000000001e-01 1.0000000000000001e-01
ITEM: ATOMS id type xs ys zs
58 3 0.0239696 0.0119912 0.5
6 1 0.489444 0.00538915 0.5
4 1 0.557428 0.0393146 0.5
26 2 0.61162 0.00806348 0.5
68 4 0.650952 0.0301687 0.5
3 1 0.969461 0.0113613 0.5
48 3 0.501855 0.0748776 0.5
20 1 0.603473 0.0961321 0.5
32 2 0.156013 0.125339 0.5
39 2 0.515575 0.157934 0.5
47 3 0.536932 0.11373 0.5
14 1 0.827085 0.126508 0.5
50 3 0.0890284 0.175865 0.5
24 2 0.214663 0.153048 0.5
33 2 0.188768 0.210999 0.5
18 1 0.406669 0.182415 0.5
23 2 0.816984 0.200563 0.5
8 1 0.0814557 0.230643 0.5
16 1 0.312161 0.237078 0.5
35 2 0.652658 0.225291 0.5
5 1 0.905618 0.26275 0.5
7 1 0.336366 0.309264 0.5
13 1 0.420924 0.356217 0.5
60 3 0.618572 0.332823 0.5
71 4 0.740238 0.319043 0.5
79 4 0.033594 0.410983 0.5
12 1 0.102439 0.379875 0.5
17 1 0.161691 0.424352 0.5
2 1 0.273555 0.41207 0.5
40 2 0.78119 0.379486 0.5
49 3 0.798811 0.426917 0.5
30 2 0.989693 0.381088 0.5
15 1 0.666234 0.450177 0.5
80 4 0.834016 0.447504 0.5
61 4 0.0929687 0.525153 0.5
25 2 0.318402 0.48594 0.5
42 3 0.342056 0.525149 0.5
29 2 0.463051 0.500198 0.5
10 1 0.194171 0.560496 0.5
37 2 0.273998 0.549656 0.5
57 3 0.670623 0.573121 0.5
19 1 0.716935 0.542275 0.5
31 2 0.810208 0.541681 0.5
74 4 0.868289 0.550768 0.5
38 2 0.96701 0.53259 0.5
53 3 0.0707256 0.614788 0.5
73 4 0.0824954 0.578454 0.5
76 4 0.116444 0.579198 0.5
70 4 0.151677 0.588091 0.5
56 3 0.640168 0.608241 0.5
52 3 0.784443 0.596585 0.5
75 4 0.748625 0.598167 0.5
54 3 0.047444 0.670099 0.5
34 2 0.12426 0.654508 0.5
46 3 0.142916 0.69812 0.5
66 4 0.748515 0.661955 0.5
22 2 0.478428 0.673065 0.5
64 4 0.475423 0.711664 0.5
63 4 0.606964 0.699187 0.5
72 4 0.617056 0.734658 0.5
9 1 0.677534 0.684114 0.5
27 2 0.804733 0.729484 0.5
55 3 0.860801 0.697839 0.5
21 2 0.912613 0.733967 0.5
67 4 0.56225 0.740277 0.5
51 3 0.681923 0.748383 0.5
43 3 0.306376 0.789387 0.5
69 4 0.344759 0.828618 0.5
45 3 0.721712 0.817123 0.5
28 2 0.860683 0.799666 0.5
36 2 0.919419 0.833011 0.5
78 4 0.954519 0.826617 0.5
1 1 0.0952514 0.890281 0.5
65 4 0.189557 0.883265 0.5
62 4 0.293799 0.871857 0.5
44 3 0.567078 0.875136 0.5
77 4 0.724453 0.88541 0.5
41 3 0.860523 0.85618 0.5
59 3 0.376801 0.900295 0.5
11 1 0.874125 0.980855 0.5
ITEM: TIMESTEP
90
ITEM: NUMBER OF ATOMS
80
ITEM: BOX BOUNDS pp pp pp
-6.3307800209558600e+00 6.3307800209558600e+00
-6.3307800209558600e+00 6.3307800209558600e+00
-1.0000000000000001e-01 1.0000000000000001e-01
ITEM: ATOMS id type xs ys zs
58 3 0.0285357 0.0120557 0.5
6 1 0.486011 0.00120476 0.5
4 1 0.558286 0.0358629 0.5
26 2 0.6119 0.00428706 0.5
68 4 0.653469 0.030846 0.5
3 1 0.96539 0.0114488 0.5
48 3 0.498597 0.0774988 0.5
20 1 0.608734 0.10015 0.5
32 2 0.153277 0.123048 0.5
39 2 0.514471 0.160089 0.5
47 3 0.535834 0.115666 0.5
14 1 0.827471 0.123667 0.5
50 3 0.0895948 0.171422 0.5
24 2 0.21817 0.151568 0.5
33 2 0.188122 0.214718 0.5
18 1 0.40697 0.182217 0.5
23 2 0.81654 0.203362 0.5
8 1 0.0807638 0.235138 0.5
16 1 0.310537 0.233434 0.5
35 2 0.652658 0.225291 0.5
5 1 0.905676 0.262791 0.5
7 1 0.337038 0.312672 0.5
13 1 0.421582 0.356611 0.5
60 3 0.618572 0.332823 0.5
71 4 0.740207 0.318998 0.5
79 4 0.03477 0.412026 0.5
12 1 0.0990495 0.377075 0.5
17 1 0.165137 0.427078 0.5
2 1 0.273425 0.41161 0.5
40 2 0.779959 0.376303 0.5
49 3 0.799303 0.42961 0.5
30 2 0.988276 0.380136 0.5
15 1 0.666008 0.449729 0.5
80 4 0.834787 0.448039 0.5
61 4 0.0929701 0.525146 0.5
25 2 0.31727 0.481375 0.5
42 3 0.345456 0.528555 0.5
29 2 0.463051 0.500198 0.5
10 1 0.1968 0.558612 0.5
37 2 0.272786 0.551171 0.5
57 3 0.668064 0.574355 0.5
19 1 0.719089 0.53945 0.5
31 2 0.810574 0.540435 0.5
74 4 0.86904 0.550862 0.5
38 2 0.96701 0.53259 0.5
53 3 0.0691526 0.616755 0.5
73 4 0.0820445 0.576293 0.5
76 4 0.117497 0.578673 0.5
70 4 0.149051 0.590036 0.5
56 3 0.639131 0.608886 0.5
52 3 0.786918 0.597851 0.5
75 4 0.746563 0.599146 0.5
54 3 0.0470121 0.670529 0.5
34 2 0.123221 0.651081 0.5
46 3 0.144584 0.701914 0.5
66 4 0.748862 0.661832 0.5
22 2 0.478748 0.668961 0.5
64 4 0.475104 0.715767 0.5
63 4 0.605871 0.698024 0.5
72 4 0.616953 0.736263 0.5
9 1 0.67822 0.681074 0.5
27 2 0.803558 0.72992 0.5
55 3 0.860703 0.696495 0.5
21 2 0.914017 0.734366 0.5
67 4 0.562249 0.740277 0.5
51 3 0.682226 0.751404 0.5
43 3 0.306101 0.789107 0.5
69 4 0.345033 0.828898 0.5
45 3 0.721713 0.817124 0.5
28 2 0.858464 0.795994 0.5
36 2 0.920218 0.833878 0.5
78 4 0.957506 0.826242 0.5
1 1 0.0952514 0.890281 0.5
65 4 0.189557 0.883265 0.5
62 4 0.293799 0.871857 0.5
44 3 0.567078 0.875136 0.5
77 4 0.724453 0.88541 0.5
41 3 0.858824 0.859869 0.5
59 3 0.376801 0.900295 0.5
11 1 0.87363 0.980703 0.5
ITEM: TIMESTEP
100
ITEM: NUMBER OF ATOMS
80
ITEM: BOX BOUNDS pp pp pp
-6.3769672111237510e+00 6.3769672111237510e+00
-6.3769672111237510e+00 6.3769672111237510e+00
-1.0000000000000001e-01 1.0000000000000001e-01
ITEM: ATOMS id type xs ys zs
58 3 0.0333394 0.0121224 0.5
6 1 0.482291 -0.00325694 0.5
4 1 0.55913 0.032268 0.5
26 2 0.612318 0.000121592 0.5
68 4 0.656169 0.0315797 0.5
3 1 0.961269 0.0115973 0.5
48 3 0.495092 0.0802183 0.5
20 1 0.614314 0.104502 0.5
32 2 0.150411 0.120612 0.5
39 2 0.513277 0.162532 0.5
47 3 0.534764 0.117629 0.5
14 1 0.827886 0.120617 0.5
50 3 0.0901344 0.166795 0.5
24 2 0.221947 0.149985 0.5
33 2 0.18743 0.218635 0.5
18 1 0.40734 0.181972 0.5
23 2 0.816025 0.206343 0.5
8 1 0.0800063 0.239867 0.5
16 1 0.308728 0.229594 0.5
35 2 0.652658 0.225291 0.5
5 1 0.905775 0.26286 0.5
7 1 0.337642 0.316184 0.5
13 1 0.422423 0.357101 0.5
60 3 0.618572 0.332823 0.5
71 4 0.740141 0.318901 0.5
79 4 0.0359596 0.413206 0.5
12 1 0.095577 0.374057 0.5
17 1 0.168681 0.429981 0.5
2 1 0.273261 0.411001 0.5
40 2 0.778692 0.372976 0.5
49 3 0.799707 0.432418 0.5
30 2 0.986716 0.379105 0.5
15 1 0.665707 0.449154 0.5
80 4 0.835716 0.448655 0.5
61 4 0.0929757 0.525119 0.5
25 2 0.31621 0.476703 0.5
42 3 0.349053 0.532118 0.5
29 2 0.463051 0.500198 0.5
10 1 0.199403 0.556625 0.5
37 2 0.271673 0.552794 0.5
57 3 0.665441 0.57556 0.5
19 1 0.721239 0.536402 0.5
31 2 0.811037 0.538996 0.5
74 4 0.869917 0.55098 0.5
38 2 0.96701 0.53259 0.5
53 3 0.0674098 0.618663 0.5
73 4 0.0815093 0.573997 0.5
76 4 0.118505 0.578059 0.5
70 4 0.146424 0.592066 0.5
56 3 0.637886 0.60958 0.5
52 3 0.789551 0.599341 0.5
75 4 0.744405 0.600278 0.5
54 3 0.0464494 0.671108 0.5
34 2 0.122299 0.647652 0.5
46 3 0.146335 0.705905 0.5
66 4 0.749322 0.661678 0.5
22 2 0.479082 0.664669 0.5
64 4 0.474769 0.72006 0.5
63 4 0.604646 0.696793 0.5
72 4 0.61684 0.737996 0.5
9 1 0.678991 0.677927 0.5
27 2 0.802174 0.73035 0.5
55 3 0.860609 0.694975 0.5
21 2 0.915641 0.734743 0.5
67 4 0.562245 0.740278 0.5
51 3 0.682532 0.754611 0.5
43 3 0.305775 0.788773 0.5
69 4 0.34536 0.829232 0.5
45 3 0.721722 0.817139 0.5
28 2 0.856066 0.792243 0.5
36 2 0.921066 0.834858 0.5
78 4 0.960746 0.825814 0.5
1 1 0.0952514 0.890281 0.5
65 4 0.189557 0.883265 0.5
62 4 0.293799 0.871857 0.5
44 3 0.567078 0.875136 0.5
77 4 0.724453 0.88541 0.5
41 3 0.856987 0.86378 0.5
59 3 0.376801 0.900295 0.5
11 1 0.872947 0.980488 0.5
ITEM: TIMESTEP
110
ITEM: NUMBER OF ATOMS
80
ITEM: BOX BOUNDS pp pp pp
-6.4461741985028365e+00 6.4461741985028365e+00
-6.4461741985028365e+00 6.4461741985028365e+00
-1.0000000000000001e-01 1.0000000000000001e-01
ITEM: ATOMS id type xs ys zs
58 3 0.0382543 0.0121894 0.5
6 1 0.478371 0.992133 0.5
4 1 0.559911 0.0286781 0.5
26 2 0.612893 0.995695 0.5
68 4 0.658973 0.0323603 0.5
3 1 0.957227 0.0118132 0.5
48 3 0.491426 0.0829421 0.5
20 1 0.620054 0.10903 0.5
32 2 0.14752 0.118098 0.5
39 2 0.512034 0.165209 0.5
47 3 0.533783 0.119527 0.5
14 1 0.828319 0.117442 0.5
50 3 0.0906133 0.162126 0.5
24 2 0.225882 0.148343 0.5
33 2 0.186703 0.222626 0.5
18 1 0.40776 0.181692 0.5
23 2 0.815452 0.209423 0.5
8 1 0.0792092 0.2447 0.5
16 1 0.306783 0.225653 0.5
35 2 0.652658 0.225291 0.5
5 1 0.905916 0.262955 0.5
7 1 0.338158 0.319697 0.5
13 1 0.423439 0.357673 0.5
60 3 0.618572 0.332823 0.5
71 4 0.740029 0.31874 0.5
79 4 0.0371232 0.414505 0.5
12 1 0.0921286 0.370888 0.5
17 1 0.17221 0.432989 0.5
2 1 0.273057 0.41024 0.5
40 2 0.777435 0.369605 0.5
49 3 0.799997 0.435271 0.5
30 2 0.985052 0.378024 0.5
15 1 0.665332 0.448464 0.5
80 4 0.836795 0.449334 0.5
61 4 0.0929885 0.525063 0.5
25 2 0.31526 0.472089 0.5
42 3 0.352736 0.535746 0.5
29 2 0.463051 0.500198 0.5
10 1 0.201869 0.554579 0.5
37 2 0.270748 0.554469 0.5
57 3 0.662829 0.576691 0.5
19 1 0.723357 0.53322 0.5
31 2 0.811592 0.537397 0.5
74 4 0.870899 0.55112 0.5
38 2 0.96701 0.53259 0.5
53 3 0.065538 0.620443 0.5
73 4 0.0808982 0.571634 0.5
76 4 0.119434 0.577343 0.5
70 4 0.143889 0.594117 0.5
56 3 0.636439 0.610315 0.5
52 3 0.792265 0.601007 0.5
75 4 0.742193 0.601534 0.5
54 3 0.0457725 0.671835 0.5
34 2 0.121516 0.644356 0.5
46 3 0.148123 0.709991 0.5
66 4 0.749892 0.661499 0.5
22 2 0.479422 0.660303 0.5
64 4 0.47443 0.724425 0.5
63 4 0.603333 0.69553 0.5
72 4 0.616735 0.73979 0.5
9 1 0.679806 0.674786 0.5
27 2 0.800601 0.730746 0.5
55 3 0.860521 0.693319 0.5
21 2 0.91745 0.735101 0.5
67 4 0.56224 0.740278 0.5
51 3 0.682823 0.757901 0.5
43 3 0.305407 0.788397 0.5
69 4 0.345728 0.829609 0.5
45 3 0.721748 0.81718 0.5
28 2 0.853571 0.788539 0.5
36 2 0.921909 0.835922 0.5
78 4 0.964174 0.825338 0.5
1 1 0.0952514 0.890281 0.5
65 4 0.189557 0.883265 0.5
62 4 0.293799 0.871857 0.5
44 3 0.567078 0.875136 0.5
77 4 0.724453 0.88541 0.5
41 3 0.855064 0.867799 0.5
59 3 0.376801 0.900295 0.5
11 1 0.872074 0.980205 0.5
ITEM: TIMESTEP
120
ITEM: NUMBER OF ATOMS
80
ITEM: BOX BOUNDS pp pp pp
-6.5032291328420611e+00 6.5032291328420611e+00
-6.5032291328420611e+00 6.5032291328420611e+00
-1.0000000000000001e-01 1.0000000000000001e-01
ITEM: ATOMS id type xs ys zs
58 3 0.0432023 0.0122556 0.5
6 1 0.474308 0.98746 0.5
4 1 0.56059 0.0252121 0.5
26 2 0.613646 0.991094 0.5
68 4 0.661829 0.0331842 0.5
3 1 0.953347 0.0121029 0.5
48 3 0.487655 0.0856024 0.5
20 1 0.625856 0.11361 0.5
32 2 0.144676 0.115524 0.5
39 2 0.510758 0.168088 0.5
47 3 0.532941 0.121299 0.5
14 1 0.828761 0.114202 0.5
50 3 0.0910056 0.157507 0.5
24 2 0.22989 0.14667 0.5
33 2 0.185957 0.226632 0.5
18 1 0.408212 0.181387 0.5
23 2 0.814829 0.212545 0.5
8 1 0.0783939 0.249554 0.5
16 1 0.304743 0.221677 0.5
35 2 0.652658 0.225291 0.5
5 1 0.906098 0.263073 0.5
7 1 0.338576 0.323144 0.5
13 1 0.424625 0.358318 0.5
60 3 0.618572 0.332823 0.5
71 4 0.73986 0.318503 0.5
79 4 0.0382398 0.415912 0.5
12 1 0.0887653 0.367609 0.5
17 1 0.175651 0.436059 0.5
2 1 0.272799 0.409323 0.5
40 2 0.776219 0.366255 0.5
49 3 0.800156 0.438128 0.5
30 2 0.983309 0.376912 0.5
15 1 0.664882 0.447668 0.5
80 4 0.838021 0.450064 0.5
61 4 0.0930117 0.524966 0.5
25 2 0.314443 0.467648 0.5
42 3 0.356431 0.53938 0.5
29 2 0.463051 0.500198 0.5
10 1 0.204118 0.552499 0.5
37 2 0.270082 0.556161 0.5
57 3 0.660269 0.577708 0.5