LAMMPS data file via write_data, version 23 Jun 2022, timestep = 10000

80 atoms
4 atom types

-4.792202008500561 4.792202008500561 xlo xhi
-4.792202008500561 4.792202008500561 ylo yhi
-0.1 0.1 zlo zhi

Atoms # sphere

28 2 1.3 0.4551661356395083 -4.298469407616956 -3.8840789057707297 0 1 1 0
46 3 1 1 -3.76595423826158 -4.752865033365295 0 0 0 0
67 4 0.7 2.915451895043732 -3.085275804507954 -4.672297015897389 0 0 0 0
35 2 1.3 0.4551661356395083 -2.16422673628557 -4.78754258688633 0 1 0 0
47 3 1 1 -0.4138974459952829 -4.257105693825961 0 0 1 0
63 4 0.7 2.915451895043732 0.6925942218550274 -4.01373788788362 0 -1 1 0
25 2 1.3 0.4551661356395083 0.8381463105358256 4.655083747117083 0 0 0 0
7 1 1.6 0.2441406249999999 2.960074557850051 -4.166492527905635 0 -1 0 0
31 2 1.3 0.4551661356395083 4.330475300499182 -4.608003960838836 0 0 1 0
10 1 1.6 0.2441406249999999 -3.2186603678867125 -3.1898425177691543 0 0 0 0
51 3 1 1 -2.3068384639348203 -3.912439596026733 0 0 0 0
60 3 1 1 -1.3856144555514782 -3.9150419403788757 0 0 1 0
32 2 1.3 0.4551661356395083 -0.7204824619005867 -3.070782048764304 0 0 0 0
80 4 0.7 2.915451895043732 0.16624119798904502 -3.8094343756012257 0 0 1 0
12 1 1.6 0.2441406249999999 0.6532717537487969 -2.878395036699037 0 0 0 0
38 2 1.3 0.4551661356395083 1.6469951609931437 -4.00013450707071 0 0 0 0
3 1 1.6 0.2441406249999999 3.635748491990209 -2.7926669145038634 0 0 0 0
69 4 0.7 2.915451895043732 4.392598168771618 -3.611266955836479 0 0 0 0
48 3 1 1 -3.3559513765695974 -1.86082809515353 0 1 0 0
6 1 1.6 0.2441406249999999 -1.9870309537660953 -2.7878326960404824 0 0 0 0
37 2 1.3 0.4551661356395083 0.13387424854447527 -1.8099087582646165 0 0 0 0
79 4 0.7 2.915451895043732 1.328437941733008 -1.9812431964389785 0 0 0 0
8 1 1.6 0.2441406249999999 2.1819418717531507 -2.8106048155843375 0 0 0 0
77 4 0.7 2.915451895043732 2.9679396845440307 -1.9993511150815322 0 0 0 0
2 1 1.6 0.2441406249999999 -4.427057839519054 -2.537179830238555 0 0 0 0
18 1 1.6 0.2441406249999999 -4.127350211568219 -1.0698136937150773 0 0 0 0
40 2 1.3 0.4551661356395083 -2.258876343294585 -1.499658754017469 0 1 0 0
39 2 1.3 0.4551661356395083 -0.9448109919576333 -1.8624325394738852 0 0 0 0
62 4 0.7 2.915451895043732 0.11774818116571062 -0.9624132135693642 0 0 1 0
43 3 1 1 0.5729299627823865 -0.1447692080037113 0 0 0 0
26 2 1.3 0.4551661356395083 1.1814760106406332 -1.0272859521610886 0 0 0 0
78 4 0.7 2.915451895043732 1.3075393345383794 -0.07747435014344717 0 0 0 0
4 1 1.6 0.2441406249999999 2.4380582225683893 -1.0697225092592815 0 0 0 0
5 1 1.6 0.2441406249999999 4.052019005296013 -1.4260172307430938 0 0 0 0
59 3 1 1 -3.966760152964417 0.18669601046744333 0 0 0 0
15 1 1.6 0.2441406249999999 -2.8366903339053637 -0.2785944733307142 0 0 0 0
20 1 1.6 0.2441406249999999 -1.4117951001188316 -0.5055785118892215 0 0 0 0
44 3 1 1 -0.2533858369775519 -0.19739636901929902 0 0 0 0
65 4 0.7 2.915451895043732 1.026605986640777 0.4426320104129253 0 0 0 0
13 1 1.6 0.2441406249999999 2.2260341246580024 0.31958929103324607 0 0 0 0
61 4 0.7 2.915451895043732 3.2403720579710376 0.6910202161391412 0 0 0 0
23 2 1.3 0.4551661356395083 3.5813562779703707 -0.16094731867509715 0 -1 0 0
21 2 1.3 0.4551661356395083 4.6297108745385325 -0.16298655987943267 0 0 0 0
1 1 1.6 0.2441406249999999 -4.3976590838565635 1.1816672675430704 0 1 0 0
53 3 1 1 -3.2339556402842202 0.9350624264444569 0 0 0 0
71 4 0.7 2.915451895043732 -1.9029502640727092 0.6683766707797822 0 0 0 0
45 3 1 1 -2.4128595690219816 1.248631362833053 0 0 0 0
41 3 1 1 -0.912204152688016 0.5855703016032114 0 0 0 0
70 4 0.7 2.915451895043732 -1.414408249987884 1.1324881976928252 0 0 0 0
24 2 1.3 0.4551661356395083 0.23318092960442272 0.7918144957290068 0 0 0 0
68 4 0.7 2.915451895043732 1.0954977580141083 1.0867525317985338 0 0 0 0
72 4 0.7 2.915451895043732 2.6408982577142783 1.3276935376033032 0 -1 0 0
76 4 0.7 2.915451895043732 3.352888094278291 1.2770387929987006 0 0 0 0
66 4 0.7 2.915451895043732 3.8002884182872103 1.760082674305938 0 0 0 0
49 3 1 1 4.02675804168505 0.9106986315632843 0 -1 0 0
73 4 0.7 2.915451895043732 4.502461160970941 1.9637838362491582 0 0 0 0
50 3 1 1 -3.36716496801077 1.790643528971577 0 0 -1 0
11 1 1.6 0.2441406249999999 -2.2957100994378616 2.4270422156778784 0 0 0 0
9 1 1.6 0.2441406249999999 -0.7700323035006145 1.945941217758743 0 0 0 0
17 1 1.6 0.2441406249999999 0.6891985471000623 2.2201658877922616 0 0 0 0
36 2 1.3 0.4551661356395083 1.906430762487509 1.7515951435750665 0 0 0 0
34 2 1.3 0.4551661356395083 2.994978648121206 2.244835936265118 0 -1 0 0
54 3 1 1 4.020417545161272 2.5539797236742796 0 0 0 0
14 1 1.6 0.2441406249999999 -4.3914799219953 2.576583228319456 0 0 0 0
58 3 1 1 -1.2285884862137904 3.028366218152458 0 1 0 0
30 2 1.3 0.4551661356395083 -0.2316930955407166 3.0164199934587472 0 0 -1 0
55 3 1 1 1.8384116580395533 3.072821682343931 0 0 0 0
27 2 1.3 0.4551661356395083 2.8494847193056003 3.261272344095411 0 0 0 0
42 3 1 1 3.7856968209530697 3.3508851977569263 0 0 0 0
75 4 0.7 2.915451895043732 -4.4942683216077945 4.464978269383351 0 0 -1 0
64 4 0.7 2.915451895043732 -4.4965667078528515 3.7003207623509367 0 0 -1 0
16 1 1.6 0.2441406249999999 -3.306631599973139 3.7075696996218968 0 1 -1 0
33 2 1.3 0.4551661356395083 -2.161624019684862 3.81231552745757 0 0 -1 0
74 4 0.7 2.915451895043732 -0.9872664085676104 3.9198631346520214 0 1 0 0
57 3 1 1 -1.102916452971621 4.73810162662589 0 1 -1 0
22 2 1.3 0.4551661356395083 -0.1399099216421309 4.207756875789408 0 0 0 0
29 2 1.3 0.4551661356395083 0.8132224359166784 3.5295502869978597 0 0 0 0
19 1 1.6 0.2441406249999999 2.033122647704098 4.3082166824387995 0 0 -1 0
52 3 1 1 3.460920404388996 4.318675513821726 0 -1 0 0
56 3 1 1 4.402411221611614 4.028371095905688 0 0 -1 0

Velocities

28 0.09379224282308792 0.08037205557977115 0 0 0 0
46 -0.03917945712872731 0.057994650957169706 0 0 0 0
67 -0.03582484476976599 -0.060679838010513985 0 0 0 0
35 -0.03025513392503971 -0.03798685944537481 0 0 0 0
47 0.15702098761892658 -0.09955583155544967 0 0 0 0
63 0.235796191317558 0.2513297081272475 0 0 0 0
25 -0.022164450151848297 0.0736645216122061 0 0 0 0
7 -0.10076083627079269 0.09125455837284839 0 0 0 0
31 0.02145889865471763 0.03361063599042729 0 0 0 0
10 0.06347943039960832 -0.09112540507308697 0 0 0 0
51 -0.12459205853020255 -0.020374243481754355 0 0 0 0
60 0.10844832285347147 0.01914026691998471 0 0 0 0
32 -0.07681076257033828 -0.22234559858823974 0 0 0 0
80 -0.02379260717555259 -0.15280591435748803 0 0 0 0
12 0.14421475472129217 0.15936638115797228 0 0 0 0
38 -0.08069255977196117 -0.002405058356955983 0 0 0 0
3 0.017106940819030535 -0.034669585983225844 0 0 0 0
69 -0.09658244766967278 0.00032917339151952214 0 0 0 0
48 -0.0675534921981844 0.010330257344412081 0 0 0 0
6 0.17940242219257035 -0.10772647667724707 0 0 0 0
37 0.16829363281155416 0.09765770763108884 0 0 0 0
79 0.10996837698369888 0.1734481557655867 0 0 0 0
8 0.07904910697543885 0.04286377227703357 0 0 0 0
77 -0.09215203106326539 -0.04543509391515456 0 0 0 0
2 0.2109390858743924 0.019169652464106495 0 0 0 0
18 0.09101523554643991 0.015105181414222062 0 0 0 0
40 0.06628277246077251 -0.02251706171774268 0 0 0 0
39 0.06164534694169105 0.08996438469349041 0 0 0 0
62 0.1303843067049744 0.21980825353639513 0 0 0 0
43 0.10936766791532504 0.15571103809319342 0 0 0 0
26 -0.05073901716370975 0.007991843243291361 0 0 0 0
78 -0.22495352333528515 -0.10022533811998265 0 0 0 0
4 0.09577243828860289 0.07909463700239235 0 0 0 0
5 0.07181576937169111 0.04960096083605417 0 0 0 0
59 0.05370018538561242 -0.06989021578232449 0 0 0 0
15 -0.031678788638649626 -0.10241722075759045 0 0 0 0
20 0.049140752936227994 0.13305638472369022 0 0 0 0
44 -0.013066893821600355 -0.0011119488484944522 0 0 0 0
65 0.008998429923713499 -0.007545478150432515 0 0 0 0
13 0.022760909866569323 0.008877127167201264 0 0 0 0
61 0.00034280270688778693 0.03862281030493048 0 0 0 0
23 0.1455289491069676 -0.06415636709945971 0 0 0 0
21 -0.04658278830844235 0.02114456310693195 0 0 0 0
1 0.049738979483541605 0.06595863827505738 0 0 0 0
53 -0.15204120124840023 -0.07951909507146936 0 0 0 0
71 -0.04787345539369007 -0.009988022375759112 0 0 0 0
45 -0.08161703448964815 -0.37284630748609987 0 0 0 0
41 -0.17705678031669694 -0.05850360523243924 0 0 0 0
70 -0.1529406715765142 -0.2919344695318595 0 0 0 0
24 -0.19293549025077472 0.06614644917202837 0 0 0 0
68 0.15263053303388102 -0.04619403188968523 0 0 0 0
72 -0.24274440971345645 0.0345180622486376 0 0 0 0
76 -0.03770309555465509 -0.03681925712181725 0 0 0 0
66 -0.13609468765303828 0.08852738408189108 0 0 0 0
49 0.0887653368839215 0.03447095114390368 0 0 0 0
73 -0.1020835238325664 0.0075303957366169 0 0 0 0
50 -0.12181205863967816 -0.003079340280659815 0 0 0 0
11 0.04004079716437981 0.20964998468230406 0 0 0 0
9 0.03744636301764703 0.05704033798905474 0 0 0 0
17 0.1284222753357773 -0.04403064927148205 0 0 0 0
36 0.002981639594979474 -0.0980546935078095 0 0 0 0
34 -0.10908861642127225 -0.1200194593691079 0 0 0 0
54 -0.235732081344365 0.10698575617800356 0 0 0 0
14 0.12784306043807425 -0.04248385559831218 0 0 0 0
58 0.004439212253967024 -0.12611582010754235 0 0 0 0
30 0.10489968724500683 0.136679481629966 0 0 0 0
55 -0.10238906800347433 -0.09908075115825253 0 0 0 0
27 0.0989273300302044 0.004123490555301321 0 0 0 0
42 -0.016182969002823802 -0.05478818073943924 0 0 0 0
75 -0.00012598131574603086 -0.014204927391966687 0 0 0 0
64 0.058275382899521284 0.15009214659275133 0 0 0 0
16 0.05699986744282125 -0.034012861165697246 0 0 0 0
33 0.1005439437387182 -0.08677613614215932 0 0 0 0
74 -0.17200611925467743 0.006302782578721921 0 0 0 0
57 -0.0850709834028006 -0.13536485092989384 0 0 0 0
22 -0.03194440691718065 -0.03409400150443434 0 0 0 0
29 -0.1772858668486054 0.13826366800302534 0 0 0 0
19 0.004330541422866926 -0.033477496590452877 0 0 0 0
52 -0.0034118460427273382 0.019088878834339535 0 0 0 0
56 -0.016488871470295433 0.009474258972086388 0 0 0 0
