ITEM: TIMESTEP
0
ITEM: NUMBER OF ATOMS
80
ITEM: BOX BOUNDS pp pp pp
-1.0000000000000000e+01 1.0000000000000000e+01
-1.0000000000000000e+01 1.0000000000000000e+01
-1.0000000000000001e-01 1.0000000000000001e-01
ITEM: ATOMS id type xs ys zs
33 2 0.0574782 0.0355474 0.5
51 3 0.183437 0.0278445 0.5
38 2 0.612723 0.0271209 0.5
46 3 0.606655 0.047925 0.5
77 4 0.743857 0.00715661 0.5
35 2 0.865771 0.0130753 0.5
50 3 0.453625 0.0734155 0.5
12 1 0.581191 0.0762347 0.5
43 3 0.693226 0.054096 0.5
37 2 0.766589 0.065029 0.5
67 4 0.264184 0.132741 0.5
75 4 0.379731 0.143857 0.5
10 1 0.541806 0.127049 0.5
19 1 0.875597 0.150664 0.5
74 4 0.916532 0.152119 0.5
66 4 0.981324 0.116425 0.5
69 4 0.956454 0.11938 0.5
23 2 0.0996136 0.206354 0.5
6 1 0.185529 0.182275 0.5
18 1 0.221765 0.196912 0.5
30 2 0.467435 0.171768 0.5
39 2 0.474933 0.204449 0.5
79 4 0.710547 0.171084 0.5
41 3 0.459467 0.259123 0.5
5 1 0.589353 0.258064 0.5
64 4 0.144123 0.275326 0.5
32 2 0.370219 0.278291 0.5
56 3 0.640227 0.29908 0.5
7 1 0.137105 0.320445 0.5
2 1 0.304121 0.363305 0.5
3 1 0.881023 0.352456 0.5
57 3 0.922255 0.340083 0.5
59 3 0.00859081 0.385814 0.5
8 1 0.585613 0.403514 0.5
26 2 0.765717 0.398945 0.5
21 2 0.859962 0.373085 0.5
68 4 0.988003 0.373608 0.5
24 2 0.212382 0.502036 0.5
78 4 0.278485 0.492798 0.5
44 3 0.625306 0.517047 0.5
61 4 0.70783 0.501378 0.5
71 4 0.0645294 0.545819 0.5
45 3 0.128015 0.553082 0.5
20 1 0.50994 0.556814 0.5
15 1 0.534573 0.576679 0.5
36 2 0.60401 0.599759 0.5
16 1 0.674338 0.593315 0.5
22 2 0.637924 0.584762 0.5
49 3 0.0045623 0.678587 0.5
72 4 0.321333 0.635805 0.5
9 1 0.392315 0.641531 0.5
13 1 0.468059 0.66185 0.5
54 3 0.551653 0.634395 0.5
4 1 0.625434 0.672437 0.5
65 4 0.775311 0.648644 0.5
53 3 0.245179 0.725714 0.5
48 3 0.797329 0.716229 0.5
76 4 0.839455 0.714786 0.5
40 2 0.881818 0.70965 0.5
34 2 0.355551 0.742713 0.5
70 4 0.442896 0.756317 0.5
29 2 0.609435 0.781774 0.5
31 2 0.793344 0.738459 0.5
1 1 0.977733 0.765797 0.5
55 3 0.717665 0.802139 0.5
25 2 0.763363 0.837416 0.5
28 2 0.848979 0.792697 0.5
58 3 0.890391 0.799878 0.5
42 3 0.99743 0.79924 0.5
52 3 0.440106 0.868422 0.5
27 2 0.620091 0.868105 0.5
14 1 0.142554 0.901432 0.5
62 4 0.118935 0.945424 0.5
11 1 0.238289 0.919601 0.5
63 4 0.509901 0.906928 0.5
47 3 0.227641 0.96221 0.5
60 3 0.282023 0.959257 0.5
80 4 0.458675 0.955196 0.5
17 1 0.609268 0.97534 0.5
73 4 0.674479 0.962114 0.5
ITEM: TIMESTEP
10
ITEM: NUMBER OF ATOMS
80
ITEM: BOX BOUNDS pp pp pp
-9.2486284049629344e+00 9.2486284049629344e+00
-9.2486284049629344e+00 9.2486284049629344e+00
-1.0000000000000001e-01 1.0000000000000001e-01
ITEM: ATOMS id type xs ys zs
33 2 0.0574782 0.0355474 0.5
51 3 0.183437 0.0278445 0.5
38 2 0.612795 0.0270254 0.5
46 3 0.606685 0.0479776 0.5
77 4 0.743857 0.00715661 0.5
35 2 0.865771 0.0130753 0.5
50 3 0.453625 0.0734155 0.5
12 1 0.581131 0.0763078 0.5
43 3 0.693226 0.054096 0.5
37 2 0.766589 0.065029 0.5
67 4 0.264184 0.132741 0.5
75 4 0.379731 0.143857 0.5
10 1 0.541768 0.127097 0.5
19 1 0.875534 0.150662 0.5
74 4 0.916595 0.152121 0.5
66 4 0.981362 0.11642 0.5
69 4 0.956416 0.119384 0.5
23 2 0.0996136 0.206354 0.5
6 1 0.185387 0.182218 0.5
18 1 0.221906 0.196969 0.5
30 2 0.467408 0.171654 0.5
39 2 0.474961 0.204558 0.5
79 4 0.710547 0.171084 0.5
41 3 0.459465 0.259129 0.5
5 1 0.589351 0.258062 0.5
64 4 0.14413 0.275281 0.5
32 2 0.370219 0.278291 0.5
56 3 0.640229 0.299081 0.5
7 1 0.137098 0.32049 0.5
2 1 0.304121 0.363305 0.5
3 1 0.881058 0.352368 0.5
57 3 0.922335 0.34006 0.5
59 3 0.00865064 0.38585 0.5
8 1 0.585613 0.403514 0.5
26 2 0.765717 0.398945 0.5
21 2 0.859847 0.373197 0.5
68 4 0.987944 0.373573 0.5
24 2 0.212382 0.502036 0.5
78 4 0.278485 0.492798 0.5
44 3 0.625306 0.517047 0.5
61 4 0.70783 0.501378 0.5
71 4 0.0645294 0.545819 0.5
45 3 0.128015 0.553082 0.5
20 1 0.5098 0.556701 0.5
15 1 0.534705 0.576771 0.5
36 2 0.603906 0.599803 0.5
16 1 0.674476 0.593344 0.5
22 2 0.637892 0.58469 0.5
49 3 0.0045623 0.678587 0.5
72 4 0.321333 0.635805 0.5
9 1 0.392306 0.641529 0.5
13 1 0.468068 0.661853 0.5
54 3 0.551659 0.634415 0.5
4 1 0.625434 0.672437 0.5
65 4 0.775311 0.648644 0.5
53 3 0.245179 0.725714 0.5
48 3 0.797349 0.716102 0.5
76 4 0.839429 0.714789 0.5
40 2 0.881847 0.709647 0.5
34 2 0.355551 0.742713 0.5
70 4 0.442896 0.756317 0.5
29 2 0.609435 0.781774 0.5
31 2 0.793321 0.738586 0.5
1 1 0.977684 0.765712 0.5
55 3 0.717664 0.802138 0.5
25 2 0.763365 0.837417 0.5
28 2 0.848921 0.792687 0.5
58 3 0.890449 0.799888 0.5
42 3 0.99748 0.799325 0.5
52 3 0.440106 0.868422 0.5
27 2 0.620091 0.868105 0.5
14 1 0.142568 0.901406 0.5
62 4 0.118921 0.945451 0.5
11 1 0.23829 0.919507 0.5
63 4 0.509901 0.906928 0.5
47 3 0.227622 0.962287 0.5
60 3 0.282041 0.959274 0.5
80 4 0.458675 0.955196 0.5
17 1 0.609263 0.975262 0.5
73 4 0.674479 0.962114 0.5
ITEM: TIMESTEP
20
ITEM: NUMBER OF ATOMS
80
ITEM: BOX BOUNDS pp pp pp
-8.3198728599920635e+00 8.3198728599920635e+00
-8.3198728599920635e+00 8.3198728599920635e+00
-1.0000000000000001e-01 1.0000000000000001e-01
ITEM: ATOMS id type xs ys zs
33 2 0.0574782 0.0355474 0.5
51 3 0.183437 0.0278445 0.5
38 2 0.613068 0.0266836 0.5
46 3 0.606802 0.0481607 0.5
77 4 0.743857 0.00715661 0.5
35 2 0.865771 0.0130753 0.5
50 3 0.453625 0.0734155 0.5
12 1 0.580913 0.0765752 0.5
43 3 0.693226 0.054096 0.5
37 2 0.766589 0.065029 0.5
67 4 0.264184 0.132741 0.5
75 4 0.379731 0.143857 0.5
10 1 0.541616 0.127293 0.5
19 1 0.875293 0.150653 0.5
74 4 0.916835 0.15213 0.5
66 4 0.981506 0.116403 0.5
69 4 0.956272 0.119401 0.5
23 2 0.0996136 0.206354 0.5
6 1 0.184875 0.182011 0.5
18 1 0.222419 0.197176 0.5
30 2 0.467313 0.171237 0.5
39 2 0.47507 0.204928 0.5
79 4 0.710547 0.171084 0.5
41 3 0.459452 0.259175 0.5
5 1 0.589319 0.258037 0.5
64 4 0.144158 0.2751 0.5
32 2 0.370219 0.278291 0.5
56 3 0.640261 0.299107 0.5
7 1 0.13707 0.320671 0.5
2 1 0.304121 0.363305 0.5
3 1 0.881167 0.352056 0.5
57 3 0.922635 0.33997 0.5
59 3 0.00887005 0.38598 0.5
8 1 0.585613 0.403514 0.5
26 2 0.765717 0.398945 0.5
21 2 0.859438 0.373599 0.5
68 4 0.987724 0.373443 0.5
24 2 0.212382 0.502036 0.5
78 4 0.278485 0.492798 0.5
44 3 0.625306 0.517047 0.5
61 4 0.70783 0.501378 0.5
71 4 0.0645294 0.545819 0.5
45 3 0.128015 0.553082 0.5
20 1 0.509299 0.556298 0.5
15 1 0.535134 0.57706 0.5
36 2 0.603526 0.599953 0.5
16 1 0.675011 0.593447 0.5
22 2 0.637779 0.584424 0.5
49 3 0.0045623 0.678587 0.5
72 4 0.321333 0.635805 0.5
9 1 0.392234 0.64151 0.5
13 1 0.46814 0.661872 0.5
54 3 0.551682 0.634519 0.5
4 1 0.625441 0.67246 0.5
65 4 0.775311 0.648644 0.5
53 3 0.245179 0.725714 0.5
48 3 0.797397 0.715646 0.5
76 4 0.839357 0.714794 0.5
40 2 0.881969 0.709632 0.5
34 2 0.355551 0.742713 0.5
70 4 0.442896 0.756317 0.5
29 2 0.609435 0.781774 0.5
31 2 0.793223 0.739052 0.5
1 1 0.977499 0.765399 0.5
55 3 0.717634 0.802115 0.5
25 2 0.763394 0.83744 0.5
28 2 0.848697 0.792648 0.5
58 3 0.890673 0.799927 0.5
42 3 0.997664 0.799638 0.5
52 3 0.440106 0.868422 0.5
27 2 0.620091 0.868105 0.5
14 1 0.14263 0.90129 0.5
62 4 0.118859 0.945567 0.5
11 1 0.238276 0.919136 0.5
63 4 0.509901 0.906928 0.5
47 3 0.227543 0.962579 0.5
60 3 0.282134 0.959352 0.5
80 4 0.458675 0.955196 0.5
17 1 0.609242 0.974957 0.5
73 4 0.674479 0.962114 0.5
ITEM: TIMESTEP
30
ITEM: NUMBER OF ATOMS
80
ITEM: BOX BOUNDS pp pp pp
-7.6206299815005671e+00 7.6206299815005671e+00
-7.6206299815005671e+00 7.6206299815005671e+00
-1.0000000000000001e-01 1.0000000000000001e-01
ITEM: ATOMS id type xs ys zs
33 2 0.0574782 0.0355474 0.5
51 3 0.183437 0.0278445 0.5
38 2 0.613629 0.0260226 0.5
46 3 0.607044 0.0485346 0.5
77 4 0.743857 0.00715511 0.5
35 2 0.865771 0.0130753 0.5
50 3 0.453625 0.0734155 0.5
12 1 0.580484 0.0771036 0.5
43 3 0.693226 0.054096 0.5
37 2 0.76659 0.0650305 0.5
67 4 0.264184 0.132741 0.5
75 4 0.379731 0.143857 0.5
10 1 0.541298 0.127712 0.5
19 1 0.874796 0.150636 0.5
74 4 0.917332 0.152148 0.5
66 4 0.981804 0.116368 0.5
69 4 0.955974 0.119437 0.5
23 2 0.099608 0.206356 0.5
6 1 0.183874 0.181603 0.5
18 1 0.223425 0.197583 0.5
30 2 0.467112 0.170422 0.5
39 2 0.475302 0.205603 0.5
79 4 0.710547 0.171084 0.5
41 3 0.45941 0.259323 0.5
5 1 0.589207 0.257946 0.5
64 4 0.144219 0.27471 0.5
32 2 0.370219 0.278291 0.5
56 3 0.640373 0.299197 0.5
7 1 0.137009 0.321061 0.5
2 1 0.304121 0.363305 0.5
3 1 0.881349 0.351452 0.5
57 3 0.92325 0.339788 0.5
59 3 0.00930627 0.386238 0.5
8 1 0.585613 0.403514 0.5
26 2 0.765717 0.398945 0.5
21 2 0.858641 0.374384 0.5
68 4 0.987288 0.373184 0.5
24 2 0.212382 0.502036 0.5
78 4 0.278485 0.492798 0.5
44 3 0.625304 0.517037 0.5
61 4 0.70783 0.501378 0.5
71 4 0.0645294 0.545819 0.5
45 3 0.128015 0.553082 0.5
20 1 0.508324 0.555513 0.5
15 1 0.535876 0.577538 0.5
36 2 0.602801 0.600197 0.5
16 1 0.67614 0.593627 0.5
22 2 0.637566 0.583896 0.5
49 3 0.0045623 0.678587 0.5
72 4 0.32133 0.635805 0.5
9 1 0.392024 0.641453 0.5
13 1 0.468353 0.661929 0.5
54 3 0.551706 0.634805 0.5
4 1 0.62546 0.672594 0.5
65 4 0.775311 0.648644 0.5
53 3 0.245179 0.725714 0.5
48 3 0.797446 0.714761 0.5
76 4 0.839263 0.714787 0.5
40 2 0.882245 0.709599 0.5
34 2 0.355551 0.742713 0.5
70 4 0.442896 0.756317 0.5
29 2 0.609435 0.781774 0.5
31 2 0.792982 0.739968 0.5
1 1 0.97713 0.764773 0.5
55 3 0.717532 0.802036 0.5
25 2 0.763496 0.837518 0.5
28 2 0.848239 0.792577 0.5
58 3 0.89114 0.800008 0.5
42 3 0.998033 0.800264 0.5
52 3 0.440106 0.868422 0.5
27 2 0.620091 0.868105 0.5
14 1 0.142765 0.901024 0.5
62 4 0.118717 0.945831 0.5
11 1 0.238224 0.918353 0.5
63 4 0.509901 0.906928 0.5
47 3 0.227348 0.963178 0.5
60 3 0.282388 0.959539 0.5
80 4 0.458675 0.955196 0.5
17 1 0.609178 0.974294 0.5
73 4 0.6745 0.96211 0.5
ITEM: TIMESTEP
40
ITEM: NUMBER OF ATOMS
80
ITEM: BOX BOUNDS pp pp pp
-7.1209561564075488e+00 7.1209561564075488e+00
-7.1209561564075488e+00 7.1209561564075488e+00
-1.0000000000000001e-01 1.0000000000000001e-01
ITEM: ATOMS id type xs ys zs
33 2 0.0574782 0.0355474 0.5
51 3 0.183437 0.0278445 0.5
38 2 0.614558 0.0249869 0.5
46 3 0.60745 0.0491705 0.5
77 4 0.743847 0.00713049 0.5
35 2 0.865771 0.0130753 0.5
50 3 0.453625 0.0734155 0.5
12 1 0.579795 0.0779467 0.5
43 3 0.693214 0.0540942 0.5
37 2 0.766612 0.0650569 0.5
67 4 0.264185 0.132738 0.5
75 4 0.379731 0.143857 0.5
10 1 0.5408 0.128407 0.5
19 1 0.873972 0.150606 0.5
74 4 0.918156 0.152177 0.5
66 4 0.982299 0.116309 0.5
69 4 0.955479 0.119495 0.5
23 2 0.0995509 0.206373 0.5
6 1 0.182326 0.180938 0.5
18 1 0.225028 0.198234 0.5
30 2 0.466735 0.169149 0.5
39 2 0.475695 0.206609 0.5
79 4 0.710547 0.171084 0.5
41 3 0.45932 0.259632 0.5
5 1 0.588965 0.257751 0.5
64 4 0.144322 0.274047 0.5
32 2 0.370219 0.278291 0.5
56 3 0.640616 0.299393 0.5
7 1 0.136906 0.321724 0.5
2 1 0.304121 0.363305 0.5
3 1 0.881592 0.350499 0.5
57 3 0.924279 0.339486 0.5
59 3 0.0100081 0.386654 0.5
8 1 0.585613 0.403514 0.5
26 2 0.765717 0.398945 0.5
21 2 0.857368 0.37564 0.5
68 4 0.986586 0.372768 0.5
24 2 0.212379 0.502037 0.5
78 4 0.278487 0.492797 0.5
44 3 0.625292 0.516971 0.5
61 4 0.70783 0.501378 0.5
71 4 0.0645294 0.545819 0.5
45 3 0.128015 0.553082 0.5
20 1 0.506782 0.554274 0.5
15 1 0.536928 0.578176 0.5
36 2 0.601693 0.600511 0.5
16 1 0.678058 0.593857 0.5
22 2 0.63725 0.583045 0.5
49 3 0.00456234 0.678587 0.5
72 4 0.321295 0.635802 0.5
9 1 0.391626 0.641339 0.5
13 1 0.468783 0.662047 0.5
54 3 0.551686 0.63537 0.5
4 1 0.625494 0.673 0.5
65 4 0.775311 0.648644 0.5
53 3 0.245179 0.725714 0.5
48 3 0.797466 0.713363 0.5
76 4 0.839174 0.714754 0.5
40 2 0.882731 0.70954 0.5
34 2 0.355551 0.742713 0.5
70 4 0.442896 0.756317 0.5
29 2 0.609435 0.781771 0.5
31 2 0.792506 0.741402 0.5
1 1 0.976533 0.763759 0.5
55 3 0.717312 0.801866 0.5
25 2 0.763716 0.837688 0.5
28 2 0.84752 0.792498 0.5
58 3 0.891918 0.800143 0.5
42 3 0.99863 0.801277 0.5
52 3 0.440106 0.868422 0.5
27 2 0.620091 0.868108 0.5
14 1 0.142952 0.900544 0.5
62 4 0.118465 0.9463 0.5
11 1 0.238154 0.917041 0.5
63 4 0.509901 0.906928 0.5
47 3 0.226975 0.964164 0.5
60 3 0.282895 0.959876 0.5
80 4 0.458675 0.955196 0.5
17 1 0.609014 0.97313 0.5
73 4 0.674589 0.962093 0.5
ITEM: TIMESTEP
50
ITEM: NUMBER OF ATOMS
80
ITEM: BOX BOUNDS pp pp pp
-6.7711869102238973e+00 6.7711869102238973e+00
-6.7711869102238973e+00 6.7711869102238973e+00
-1.0000000000000001e-01 1.0000000000000001e-01
ITEM: ATOMS id type xs ys zs
33 2 0.0574782 0.0355474 0.5
51 3 0.183437 0.0278445 0.5
38 2 0.615907 0.0235614 0.5
46 3 0.608049 0.0501122 0.5
77 4 0.743815 0.00704982 0.5
35 2 0.865771 0.0130753 0.5
50 3 0.453625 0.0734155 0.5
12 1 0.578819 0.0791397 0.5
43 3 0.693155 0.0540854 0.5
37 2 0.766703 0.0651465 0.5
67 4 0.264203 0.132708 0.5
75 4 0.379731 0.143857 0.5
10 1 0.54014 0.129402 0.5
19 1 0.872782 0.150564 0.5
74 4 0.919344 0.152221 0.5
66 4 0.983014 0.116224 0.5
69 4 0.954767 0.119578 0.5
23 2 0.0993824 0.206424 0.5
6 1 0.180246 0.179977 0.5
18 1 0.227258 0.199174 0.5
30 2 0.466113 0.167405 0.5
39 2 0.476276 0.207943 0.5
79 4 0.710547 0.171084 0.5
41 3 0.459164 0.260154 0.5
5 1 0.588552 0.257418 0.5
64 4 0.144474 0.27307 0.5
32 2 0.370219 0.278291 0.5
56 3 0.641029 0.299726 0.5
7 1 0.136754 0.322701 0.5
2 1 0.304121 0.363305 0.5
3 1 0.88187 0.349162 0.5
57 3 0.925796 0.339046 0.5
59 3 0.010999 0.387242 0.5
8 1 0.585613 0.403514 0.5
26 2 0.765715 0.398945 0.5
21 2 0.855575 0.377416 0.5
68 4 0.985595 0.37218 0.5
24 2 0.212352 0.50204 0.5
78 4 0.278514 0.492793 0.5
44 3 0.625261 0.516801 0.5
61 4 0.70783 0.501378 0.5
71 4 0.0645294 0.545819 0.5
45 3 0.128015 0.553082 0.5
20 1 0.504629 0.552547 0.5
15 1 0.538248 0.578899 0.5
36 2 0.600218 0.600867 0.5
16 1 0.68088 0.594107 0.5
22 2 0.636854 0.581832 0.5
49 3 0.00456686 0.678573 0.5
72 4 0.321182 0.635793 0.5
9 1 0.391026 0.641157 0.5
13 1 0.469444 0.662275 0.5
54 3 0.55158 0.636276 0.5
4 1 0.625563 0.673839 0.5
65 4 0.775311 0.648644 0.5
53 3 0.245179 0.725714 0.5
48 3 0.797425 0.711414 0.5
76 4 0.839118 0.714685 0.5
40 2 0.88347 0.709442 0.5
34 2 0.355551 0.742713 0.5
70 4 0.442896 0.756317 0.5
29 2 0.609431 0.781738 0.5
31 2 0.791717 0.743367 0.5
1 1 0.975687 0.762334 0.5
55 3 0.716938 0.801578 0.5
25 2 0.76409 0.837977 0.5
28 2 0.846539 0.792454 0.5
58 3 0.893043 0.80034 0.5
42 3 0.999476 0.802714 0.5
52 3 0.440106 0.868422 0.5
27 2 0.620095 0.86814 0.5
14 1 0.14315 0.899801 0.5
62 4 0.118084 0.947011 0.5
11 1 0.238105 0.915137 0.5
63 4 0.509901 0.906928 0.5
47 3 0.226384 0.965582 0.5
60 3 0.283718 0.960394 0.5
80 4 0.458675 0.955196 0.5
17 1 0.608699 0.97135 0.5
73 4 0.67479 0.962058 0.5
ITEM: TIMESTEP
60
ITEM: NUMBER OF ATOMS
80
ITEM: BOX BOUNDS pp pp pp
-6.5169481858410441e+00 6.5169481858410441e+00
-6.5169481858410441e+00 6.5169481858410441e+00
-1.0000000000000001e-01 1.0000000000000001e-01
ITEM: ATOMS id type xs ys zs
33 2 0.0574782 0.0355474 0.5
51 3 0.183436 0.0278457 0.5
38 2 0.617697 0.0217517 0.5
46 3 0.608864 0.0513802 0.5
77 4 0.743751 0.00688635 0.5
35 2 0.865771 0.0130753 0.5
50 3 0.453625 0.0734155 0.5
12 1 0.577542 0.0806903 0.5
43 3 0.69303 0.05407 0.5
37 2 0.766906 0.0653308 0.5
67 4 0.264253 0.13262 0.5
75 4 0.379731 0.143857 0.5
10 1 0.539356 0.130689 0.5
19 1 0.871208 0.150508 0.5
74 4 0.920897 0.152297 0.5
66 4 0.98396 0.116112 0.5
69 4 0.953841 0.119671 0.5
23 2 0.0990493 0.206529 0.5
6 1 0.177676 0.178697 0.5
18 1 0.230111 0.200437 0.5
30 2 0.465187 0.165202 0.5
39 2 0.477046 0.209605 0.5
79 4 0.710547 0.171084 0.5
41 3 0.458928 0.260928 0.5
5 1 0.587942 0.256926 0.5
64 4 0.144678 0.271757 0.5
32 2 0.370221 0.278288 0.5
56 3 0.641638 0.300217 0.5
7 1 0.13655 0.324014 0.5
2 1 0.304119 0.363307 0.5
3 1 0.882152 0.347425 0.5
57 3 0.927839 0.338467 0.5
59 3 0.0122863 0.388005 0.5
8 1 0.585613 0.403514 0.5
26 2 0.765689 0.398952 0.5
21 2 0.853276 0.379726 0.5
68 4 0.984308 0.371417 0.5
24 2 0.212274 0.502051 0.5
78 4 0.278593 0.492782 0.5
44 3 0.625201 0.516479 0.5
61 4 0.70783 0.501378 0.5
71 4 0.0645289 0.545819 0.5
45 3 0.128016 0.553082 0.5
20 1 0.501856 0.550307 0.5
15 1 0.539764 0.579608 0.5
36 2 0.598428 0.601247 0.5
16 1 0.68466 0.594363 0.5
22 2 0.636442 0.580241 0.5
49 3 0.00458895 0.678509 0.5
72 4 0.320953 0.635775 0.5
9 1 0.390222 0.640894 0.5
13 1 0.470303 0.662687 0.5
54 3 0.551365 0.637566 0.5
4 1 0.625693 0.675222 0.5
65 4 0.775311 0.648644 0.5
53 3 0.245179 0.725714 0.5
48 3 0.797297 0.708902 0.5
76 4 0.83911 0.714578 0.5
40 2 0.884491 0.709272 0.5
34 2 0.35555 0.742716 0.5
70 4 0.442896 0.756317 0.5
29 2 0.609419 0.781641 0.5
31 2 0.790557 0.745844 0.5
1 1 0.974608 0.760515 0.5
55 3 0.716387 0.801152 0.5
25 2 0.764628 0.838411 0.5
28 2 0.845318 0.792493 0.5
58 3 0.894506 0.800616 0.5
42 3 0.00057853 0.804587 0.5
52 3 0.440106 0.868422 0.5
27 2 0.62011 0.868215 0.5
14 1 0.143316 0.898766 0.5
62 4 0.117562 0.947986 0.5
11 1 0.238117 0.912615 0.5
63 4 0.509901 0.906928 0.5
47 3 0.225552 0.967448 0.5
60 3 0.284894 0.961109 0.5
80 4 0.458675 0.955196 0.5
17 1 0.608182 0.968896 0.5
73 4 0.675137 0.962001 0.5
ITEM: TIMESTEP
70
ITEM: NUMBER OF ATOMS
80
ITEM: BOX BOUNDS pp pp pp
-6.3409704171978696e+00 6.3409704171978696e+00
-6.3409704171978696e+00 6.3409704171978696e+00
-1.0000000000000001e-01 1.0000000000000001e-01
ITEM: ATOMS id type xs ys zs
33 2 0.0574782 0.0355474 0.5
51 3 0.183423 0.0278648 0.5
38 2 0.619916 0.0195795 0.5
46 3 0.609914 0.05297 0.5
77 4 0.743646 0.00662106 0.5
35 2 0.865771 0.0130753 0.5
50 3 0.453625 0.0734155 0.5
12 1 0.57597 0.0825635 0.5
43 3 0.692842 0.0540567 0.5
37 2 0.767253 0.0656327 0.5
67 4 0.264345 0.132449 0.5
75 4 0.379731 0.143857 0.5
10 1 0.538497 0.132255 0.5
19 1 0.869252 0.150439 0.5
74 4 0.922792 0.152423 0.5
66 4 0.985135 0.115972 0.5
69 4 0.952728 0.119753 0.5
23 2 0.0985085 0.206707 0.5
6 1 0.174685 0.177085 0.5
18 1 0.233552 0.202043 0.5
30 2 0.463912 0.162568 0.5
39 2 0.478 0.211582 0.5
79 4 0.710547 0.171084 0.5
41 3 0.458596 0.26198 0.5
5 1 0.587122 0.256265 0.5
64 4 0.144935 0.270107 0.5
32 2 0.370239 0.278266 0.5
56 3 0.642459 0.300879 0.5
7 1 0.136293 0.325664 0.5
2 1 0.304102 0.363329 0.5
3 1 0.882405 0.345283 0.5
57 3 0.930403 0.337764 0.5
59 3 0.0138603 0.388938 0.5
8 1 0.585613 0.403514 0.5
26 2 0.765591 0.398973 0.5
21 2 0.850551 0.382546 0.5
68 4 0.982739 0.370487 0.5
24 2 0.212122 0.502073 0.5
78 4 0.278745 0.492761 0.5
44 3 0.6251 0.515962 0.5
61 4 0.70783 0.501378 0.5
71 4 0.0645194 0.545818 0.5
45 3 0.128025 0.553083 0.5
20 1 0.498472 0.547543 0.5
15 1 0.541386 0.58021 0.5
36 2 0.59641 0.601647 0.5
16 1 0.689387 0.594624 0.5
22 2 0.636079 0.578282 0.5
49 3 0.00464265 0.678358 0.5
72 4 0.320577 0.635746 0.5
9 1 0.389233 0.640525 0.5
13 1 0.471316 0.66335 0.5
54 3 0.551028 0.639266 0.5
4 1 0.625912 0.677178 0.5
65 4 0.775307 0.648635 0.5
53 3 0.245179 0.725714 0.5
48 3 0.797061 0.705854 0.5
76 4 0.839157 0.714438 0.5
40 2 0.885782 0.70899 0.5
34 2 0.35554 0.742744 0.5
70 4 0.442896 0.756317 0.5
29 2 0.609391 0.781475 0.5
31 2 0.788999 0.748763 0.5
1 1 0.973361 0.75835 0.5
55 3 0.715645 0.800579 0.5
25 2 0.765307 0.839041 0.5
28 2 0.843914 0.792642 0.5
58 3 0.896273 0.800986 0.5
42 3 0.00193115 0.806883 0.5
52 3 0.440106 0.868422 0.5
27 2 0.620145 0.868312 0.5
14 1 0.143413 0.897428 0.5
62 4 0.116898 0.949232 0.5
11 1 0.238228 0.909483 0.5
63 4 0.509901 0.906928 0.5
47 3 0.224488 0.969736 0.5
60 3 0.286428 0.962025 0.5
80 4 0.458675 0.955196 0.5
17 1 0.607415 0.965792 0.5
73 4 0.675655 0.961926 0.5
ITEM: TIMESTEP
80
ITEM: NUMBER OF ATOMS
80
ITEM: BOX BOUNDS pp pp pp
-6.2327077332394598e+00 6.2327077332394598e+00
-6.2327077332394598e+00 6.2327077332394598e+00
-1.0000000000000001e-01 1.0000000000000001e-01
ITEM: ATOMS id type xs ys zs
33 2 0.0574782 0.0355474 0.5
51 3 0.183378 0.0279285 0.5
38 2 0.622528 0.017092 0.5
46 3 0.611206 0.0548491 0.5
77 4 0.743497 0.00624461 0.5
35 2 0.865771 0.0130753 0.5
50 3 0.453624 0.0734059 0.5
12 1 0.574132 0.0846793 0.5
43 3 0.692603 0.0540562 0.5
37 2 0.767761 0.0660638 0.5
67 4 0.264483 0.132177 0.5
75 4 0.379731 0.143857 0.5
10 1 0.53761 0.134082 0.5
19 1 0.866936 0.150362 0.5
74 4 0.924982 0.152622 0.5
66 4 0.986521 0.115808 0.5
69 4 0.951468 0.119796 0.5
23 2 0.0977281 0.206972 0.5
6 1 0.171367 0.175146 0.5
18 1 0.23751 0.203986 0.5
30 2 0.46226 0.159564 0.5
39 2 0.479129 0.213838 0.5
79 4 0.710547 0.171084 0.5
41 3 0.458162 0.263318 0.5
5 1 0.586093 0.255435 0.5
64 4 0.145243 0.268147 0.5
32 2 0.370278 0.278209 0.5
56 3 0.643488 0.301708 0.5
7 1 0.135988 0.327627 0.5
2 1 0.304056 0.363388 0.5
3 1 0.882594 0.342754 0.5
57 3 0.933429 0.336948 0.5
59 3 0.0156923 0.390025 0.5
8 1 0.585613 0.403514 0.5
26 2 0.76538 0.399017 0.5
21 2 0.847511 0.385825 0.5
68 4 0.980943 0.369424 0.5
24 2 0.211883 0.502106 0.5
78 4 0.278984 0.492728 0.5
44 3 0.624959 0.515227 0.5
61 4 0.70783 0.501378 0.5
71 4 0.0644882 0.545815 0.5
45 3 0.128057 0.553087 0.5
20 1 0.494528 0.544289 0.5
15 1 0.543017 0.580622 0.5
36 2 0.594272 0.602069 0.5
16 1 0.694967 0.59489 0.5
22 2 0.63583 0.575995 0.5
49 3 0.00474113 0.678093 0.5
72 4 0.320031 0.635706 0.5
9 1 0.388089 0.640028 0.5
13 1 0.472433 0.6643 0.5
54 3 0.550566 0.641383 0.5
4 1 0.626247 0.679664 0.5
65 4 0.775289 0.648587 0.5
53 3 0.245179 0.725714 0.5
48 3 0.796711 0.702347 0.5
76 4 0.839254 0.714277 0.5
40 2 0.887311 0.708567 0.5
34 2 0.355516 0.742817 0.5
70 4 0.442896 0.756317 0.5
29 2 0.609339 0.781258 0.5
31 2 0.787052 0.752004 0.5
1 1 0.972021 0.755915 0.5
55 3 0.714708 0.799866 0.5
25 2 0.766087 0.839921 0.5
28 2 0.842401 0.792917 0.5
58 3 0.898294 0.801464 0.5
42 3 0.00350992 0.809564 0.5
52 3 0.440106 0.868422 0.5
27 2 0.62021 0.868407 0.5
14 1 0.143407 0.8958 0.5
62 4 0.1161 0.950737 0.5
11 1 0.238472 0.905797 0.5
63 4 0.509901 0.906928 0.5
47 3 0.223229 0.972377 0.5
60 3 0.288294 0.96313 0.5
80 4 0.458675 0.955196 0.5
17 1 0.606354 0.962122 0.5
73 4 0.676353 0.961837 0.5
ITEM: TIMESTEP
90
ITEM: NUMBER OF ATOMS
80
ITEM: BOX BOUNDS pp pp pp
-6.1827256269931263e+00 6.1827256269931263e+00
-6.1827256269931263e+00 6.1827256269931263e+00
-1.0000000000000001e-01 1.0000000000000001e-01
ITEM: ATOMS id type xs ys zs
33 2 0.0574782 0.0355474 0.5
51 3 0.183284 0.0280605 0.5
38 2 0.625469 0.0143678 0.5
46 3 0.612737 0.0569598 0.5
77 4 0.743304 0.00575813 0.5
35 2 0.865771 0.0130753 0.5
50 3 0.453615 0.0733549 0.5
12 1 0.572079 0.0869215 0.5
43 3 0.692327 0.0540802 0.5
37 2 0.768433 0.0666241 0.5
67 4 0.264661 0.131797 0.5
75 4 0.379731 0.143857 0.5
10 1 0.536739 0.136152 0.5
19 1 0.864309 0.150278 0.5
74 4 0.927405 0.15291 0.5
66 4 0.988086 0.115623 0.5
69 4 0.950107 0.119776 0.5
23 2 0.0966869 0.207329 0.5
6 1 0.167836 0.172902 0.5
18 1 0.241891 0.206234 0.5
30 2 0.460231 0.156288 0.5
39 2 0.480405 0.216313 0.5
79 4 0.710547 0.171084 0.5
41 3 0.457634 0.264934 0.5
5 1 0.584884 0.254456 0.5
64 4 0.145604 0.265932 0.5
32 2 0.370333 0.278107 0.5
56 3 0.644708 0.302692 0.5
7 1 0.13564 0.32986 0.5
2 1 0.303974 0.363494 0.5
3 1 0.882689 0.339874 0.5
57 3 0.936838 0.336028 0.5
59 3 0.0177373 0.391237 0.5
8 1 0.585613 0.403514 0.5
26 2 0.765019 0.399085 0.5
21 2 0.844271 0.389491 0.5
68 4 0.978996 0.368276 0.5
24 2 0.211553 0.502152 0.5
78 4 0.279314 0.492682 0.5
44 3 0.624777 0.514263 0.5
61 4 0.70783 0.501378 0.5
71 4 0.0644276 0.545808 0.5
45 3 0.128117 0.553094 0.5
20 1 0.490107 0.540625 0.5
15 1 0.544565 0.580776 0.5
36 2 0.59213 0.602518 0.5
16 1 0.701238 0.595166 0.5
22 2 0.635746 0.573448 0.5
49 3 0.00489548 0.677694 0.5
72 4 0.319305 0.635654 0.5
9 1 0.386829 0.639396 0.5
13 1 0.473606 0.665538 0.5
54 3 0.549988 0.6439 0.5
4 1 0.626719 0.682578 0.5
65 4 0.775244 0.648472 0.5
53 3 0.245179 0.725714 0.5
48 3 0.796265 0.698485 0.5
76 4 0.839381 0.714109 0.5
40 2 0.88902 0.707989 0.5
34 2 0.355474 0.742947 0.5
70 4 0.442896 0.756317 0.5
29 2 0.609257 0.781013 0.5
31 2 0.784767 0.755416 0.5
1 1 0.970666 0.753292 0.5
55 3 0.713567 0.799041 0.5
25 2 0.766928 0.841085 0.5
28 2 0.84086 0.793316 0.5
58 3 0.900509 0.802056 0.5
42 3 0.00527709 0.812565 0.5
52 3 0.440106 0.868422 0.5
27 2 0.620311 0.86847 0.5
14 1 0.143269 0.893914 0.5
62 4 0.115185 0.952474 0.5
11 1 0.238874 0.901648 0.5
63 4 0.509901 0.906928 0.5
47 3 0.22183 0.975277 0.5
60 3 0.290436 0.964396 0.5
80 4 0.458675 0.955196 0.5
17 1 0.604975 0.958022 0.5
73 4 0.677238 0.96173 0.5
ITEM: TIMESTEP
100
ITEM: NUMBER OF ATOMS
80
ITEM: BOX BOUNDS pp pp pp
-6.1798475546202045e+00 6.1798475546202045e+00
-6.1798475546202045e+00 6.1798475546202045e+00
-1.0000000000000001e-01 1.0000000000000001e-01
ITEM: ATOMS id type xs ys zs
33 2 0.0574782 0.0355474 0.5
51 3 0.183127 0.0282795 0.5
38 2 0.628652 0.0115009 0.5
46 3 0.614482 0.0592257 0.5
77 4 0.743069 0.00517232 0.5
35 2 0.865771 0.0130753 0.5
50 3 0.453597 0.0732329 0.5
12 1 0.569871 0.0891718 0.5
43 3 0.69204 0.0541399 0.5
37 2 0.769258 0.067302 0.5
67 4 0.264871 0.131315 0.5
75 4 0.37973 0.143857 0.5
10 1 0.535915 0.138443 0.5
19 1 0.861442 0.15019 0.5
74 4 0.92999 0.153303 0.5
66 4 0.98979 0.115423 0.5
69 4 0.948684 0.119672 0.5
23 2 0.0953807 0.20778 0.5
6 1 0.164208 0.170388 0.5
18 1 0.24658 0.208737 0.5
30 2 0.457847 0.152846 0.5
39 2 0.481784 0.218931 0.5
79 4 0.710547 0.171084 0.5
41 3 0.457019 0.266803 0.5
5 1 0.583557 0.253372 0.5
64 4 0.146018 0.263529 0.5
32 2 0.370394 0.277961 0.5
56 3 0.64609 0.303806 0.5
7 1 0.13526 0.332305 0.5
2 1 0.303852 0.36365 0.5
3 1 0.882665 0.336699 0.5
57 3 0.94054 0.33501 0.5
59 3 0.01994 0.392543 0.5
8 1 0.585613 0.403514 0.5
26 2 0.764482 0.399173 0.5
21 2 0.840945 0.393465 0.5
68 4 0.976977 0.367102 0.5
24 2 0.211135 0.502211 0.5
78 4 0.279731 0.492623 0.5
44 3 0.624557 0.513065 0.5
61 4 0.70783 0.501378 0.5
71 4 0.0643351 0.545797 0.5
45 3 0.12821 0.553104 0.5
20 1 0.48531 0.536654 0.5
15 1 0.545938 0.580631 0.5
36 2 0.590104 0.60301 0.5
16 1 0.707985 0.595462 0.5
22 2 0.63587 0.570729 0.5
49 3 0.00511391 0.677154 0.5
72 4 0.318398 0.635591 0.5
9 1 0.385495 0.638632 0.5
13 1 0.474787 0.667033 0.5
54 3 0.549317 0.64678 0.5
4 1 0.627348 0.685776 0.5
65 4 0.775172 0.648273 0.5
53 3 0.245179 0.725714 0.5
48 3 0.795752 0.694394 0.5
76 4 0.839515 0.713957 0.5
40 2 0.890836 0.707259 0.5
34 2 0.355413 0.743137 0.5
70 4 0.442896 0.756317 0.5
29 2 0.609138 0.780767 0.5
31 2 0.782213 0.758849 0.5
1 1 0.969364 0.750571 0.5
55 3 0.712226 0.798135 0.5
25 2 0.767788 0.842548 0.5
28 2 0.839371 0.79382 0.5
58 3 0.902854 0.802763 0.5
42 3 0.00718589 0.815809 0.5
52 3 0.440106 0.868422 0.5
27 2 0.62046 0.86847 0.5
14 1 0.142985 0.89182 0.5
62 4 0.11418 0.954398 0.5
11 1 0.23945 0.897158 0.5
63 4 0.509901 0.906928 0.5
47 3 0.22036 0.978325 0.5
60 3 0.292777 0.965788 0.5
80 4 0.458675 0.955196 0.5
17 1 0.603274 0.953649 0.5
73 4 0.678305 0.961595 0.5
ITEM: TIMESTEP
110
ITEM: NUMBER OF ATOMS
80
ITEM: BOX BOUNDS pp pp pp
-6.2087651737561442e+00 6.2087651737561442e+00
-6.2087651737561442e+00 6.2087651737561442e+00
-1.0000000000000001e-01 1.0000000000000001e-01
ITEM: ATOMS id type xs ys zs
33 2 0.0574782 0.0355474 0.5
51 3 0.182894 0.0285994 0.5
38 2 0.63199 0.00858098 0.5
46 3 0.616405 0.0615756 0.5
77 4 0.7428 0.00450434 0.5
35 2 0.865771 0.0130753 0.5
50 3 0.453572 0.0730196 0.5
12 1 0.567569 0.0913246 0.5
43 3 0.691771 0.0542444 0.5
37 2 0.770213 0.0680785 0.5
67 4 0.265102 0.130747 0.5
75 4 0.379713 0.143855 0.5
10 1 0.535145 0.140923 0.5
19 1 0.858418 0.150096 0.5
74 4 0.93267 0.153809 0.5
66 4 0.991591 0.115214 0.5
69 4 0.947228 0.119469 0.5
23 2 0.0938207 0.208328 0.5
6 1 0.160592 0.167647 0.5
18 1 0.251467 0.211429 0.5
30 2 0.455158 0.149334 0.5
39 2 0.48322 0.221618 0.5
79 4 0.710547 0.171084 0.5
41 3 0.456322 0.268896 0.5
5 1 0.582181 0.252239 0.5
64 4 0.146481 0.261007 0.5
32 2 0.370454 0.277772 0.5
56 3 0.647598 0.305022 0.5
7 1 0.134856 0.334897 0.5
2 1 0.303695 0.363853 0.5
3 1 0.882509 0.333289 0.5
57 3 0.944446 0.333894 0.5
59 3 0.0222437 0.393909 0.5
8 1 0.585613 0.403514 0.5
26 2 0.763754 0.399276 0.5
21 2 0.837639 0.397665 0.5
68 4 0.97496 0.365959 0.5
24 2 0.210641 0.50228 0.5
78 4 0.280226 0.492554 0.5
44 3 0.624301 0.511636 0.5
61 4 0.70783 0.501378 0.5
71 4 0.0642127 0.545783 0.5
45 3 0.128332 0.553118 0.5
20 1 0.480232 0.532479 0.5
15 1 0.547067 0.580164 0.5
36 2 0.588299 0.603571 0.5
16 1 0.714972 0.595771 0.5
22 2 0.636232 0.567931 0.5
49 3 0.00540174 0.676471 0.5
72 4 0.317319 0.635521 0.5
9 1 0.384127 0.63775 0.5
13 1 0.475936 0.66874 0.5
54 3 0.548582 0.649975 0.5
4 1 0.628145 0.689101 0.5
65 4 0.775089 0.647993 0.5
53 3 0.245179 0.725714 0.5
48 3 0.7952 0.690195 0.5
76 4 0.839624 0.713848 0.5
40 2 0.892692 0.706389 0.5
34 2 0.355336 0.743383 0.5
70 4 0.442896 0.756317 0.5
29 2 0.608979 0.780547 0.5
31 2 0.779467 0.762167 0.5
1 1 0.968172 0.747834 0.5
55 3 0.710698 0.797182 0.5
25 2 0.768633 0.844305 0.5
28 2 0.838005 0.794392 0.5
58 3 0.905274 0.803581 0.5
42 3 0.0091883 0.819214 0.5
52 3 0.440106 0.868422 0.5
27 2 0.620663 0.86838 0.5
14 1 0.142547 0.889574 0.5
62 4 0.11311 0.956464 0.5
11 1 0.240205 0.892457 0.5
63 4 0.509901 0.906928 0.5
47 3 0.218888 0.981411 0.5
60 3 0.295235 0.967264 0.5
80 4 0.458675 0.955196 0.5
17 1 0.601271 0.949143 0.5
73 4 0.679538 0.961422 0.5
ITEM: TIMESTEP
120
ITEM: NUMBER OF ATOMS
80
ITEM: BOX BOUNDS pp pp pp
-6.2509565135692293e+00 6.2509565135692293e+00
-6.2509565135692293e+00 6.2509565135692293e+00
-1.0000000000000001e-01 1.0000000000000001e-01
ITEM: ATOMS id type xs ys zs
33 2 0.0574782 0.0355474 0.5
51 3 0.182576 0.0290304 0.5
38 2 0.635407 0.00568216 0.5
46 3 0.618478 0.0639768 0.5
77 4 0.742503 0.00377361 0.5
35 2 0.865771 0.0130753 0.5
50 3 0.453546 0.0726979 0.5
12 1 0.565228 0.0932871 0.5
43 3 0.691544 0.0544011 0.5
37 2 0.771275 0.0689318 0.5
67 4 0.265342 0.130112 0.5
75 4 0.379662 0.143851 0.5
10 1 0.534425 0.143576 0.5
19 1 0.855304 0.149997 0.5
74 4 0.935392 0.154435 0.5
66 4 0.993451 0.114998 0.5
69 4 0.945759 0.119157 0.5
23 2 0.0920256 0.208977 0.5
6 1 0.15707 0.164719 0.5
18 1 0.256455 0.214244 0.5
30 2 0.452224 0.14583 0.5
39 2 0.484671 0.224312 0.5
79 4 0.710547 0.171084 0.5
41 3 0.455547 0.271187 0.5
5 1 0.580819 0.251108 0.5
64 4 0.146987 0.258424 0.5
32 2 0.370503 0.277548 0.5
56 3 0.649197 0.306312 0.5
7 1 0.134439 0.337578 0.5
2 1 0.303506 0.364096 0.5
3 1 0.882212 0.329703 0.5
57 3 0.948483 0.332675 0.5
59 3 0.0245996 0.395305 0.5
8 1 0.585613 0.403514 0.5
26 2 0.762825 0.399382 0.5
21 2 0.834431 0.402025 0.5
68 4 0.973 0.364902 0.5
24 2 0.210083 0.502358 0.5