ITEM: TIMESTEP
250
ITEM: NUMBER OF ATOMS
60
ITEM: BOX BOUNDS pp pp pp
-4.7934761357391258e+00 4.7934761357391258e+00
-4.7934351412773646e+00 4.7934351412773646e+00
-1.0000000000000001e-01 1.0000000000000001e-01
ITEM: ATOMS id type xs ys zs
1 1 0.21062 0.0744775 0.499804
14 1 0.588199 0.0706678 0.499683
29 1 0.793355 0.107584 0.500126
42 1 0.708412 0.0311726 0.499981
23 1 0.793795 0.981372 0.500943
39 1 0.957826 0.0119405 0.499375
19 1 0.0608436 0.103914 0.500409
5 1 0.618409 0.250476 0.499292
46 1 0.699754 0.144032 0.499281
34 1 0.921181 0.121904 0.500272
47 1 0.0838882 0.296842 0.501244
22 1 0.156834 0.207057 0.500077
32 1 0.27654 0.226364 0.499525
35 1 0.341412 0.335826 0.500203
11 1 0.46099 0.27352 0.500572
48 1 0.711587 0.338445 0.500127
53 1 0.738675 0.236502 0.499907
10 1 0.974796 0.250364 0.499345
15 1 0.967019 0.394164 0.499869
59 1 0.081409 0.382683 0.500171
16 1 0.206901 0.351837 0.500608
45 1 0.298295 0.429793 0.500596
36 1 0.423095 0.415291 0.499961
7 1 0.570982 0.38679 0.500094
6 1 0.838226 0.306741 0.499861
37 1 0.0950198 0.491552 0.500092
60 1 0.22021 0.480952 0.499717
2 1 0.341426 0.55476 0.499379
75 1 0.62381 0.492118 0.500606
62 1 0.68754 0.406458 0.500422
9 1 0.727669 0.507301 0.499764
25 1 0.972995 0.52739 0.500111
4 1 0.188258 0.595705 0.500185
28 1 0.3071 0.699439 0.499785
13 1 0.454548 0.65777 0.499511
20 1 0.596199 0.600252 0.50035
24 1 0.776632 0.637996 0.499066
56 1 0.844886 0.558512 0.498996
67 1 0.028007 0.609869 0.499345
21 1 0.0810736 0.689574 0.499799
52 1 0.197385 0.725502 0.500159
40 1 0.247919 0.800054 0.500735
31 1 0.435028 0.792935 0.500186
18 1 0.572002 0.754287 0.499172
12 1 0.923209 0.654509 0.500541
80 1 0.050471 0.863163 0.500565
30 1 0.123887 0.813955 0.500072
79 1 0.335205 0.791912 0.500362
50 1 0.525641 0.864772 0.501108
55 1 0.639647 0.863467 0.498782
43 1 0.67794 0.784017 0.499547
77 1 0.744101 0.768253 0.499545
58 1 0.824285 0.738443 0.500886
41 1 0.858259 0.828671 0.500698
17 1 0.974321 0.787635 0.500073
51 1 0.885834 0.917728 0.500121
8 1 0.0995023 0.956858 0.500101
3 1 0.456927 0.976621 0.500996
49 1 0.573003 0.929091 0.500554
33 1 0.760533 0.860786 0.50037
ITEM: TIMESTEP
500
ITEM: NUMBER OF ATOMS
60
ITEM: BOX BOUNDS pp pp pp
-4.7922776840120216e+00 4.7922776840120216e+00
-4.7893899979027772e+00 4.7893899979027772e+00
-1.0000000000000001e-01 1.0000000000000001e-01
ITEM: ATOMS id type xs ys zs
1 1 0.210694 0.0759679 0.5003
14 1 0.588452 0.0717412 0.500913
29 1 0.79391 0.107036 0.500567
42 1 0.708472 0.0312081 0.501166
23 1 0.793533 0.982009 0.500343
39 1 0.959585 0.0114008 0.499227
19 1 0.0616426 0.104407 0.500158
5 1 0.617732 0.25079 0.498971
46 1 0.700477 0.144188 0.499694
34 1 0.921601 0.120598 0.500554
47 1 0.0834064 0.297671 0.501437
22 1 0.157169 0.208615 0.500461
32 1 0.276803 0.226606 0.498869
35 1 0.341099 0.335926 0.501536
11 1 0.461036 0.27391 0.50115
48 1 0.71166 0.337635 0.499911
53 1 0.737365 0.237416 0.4993
10 1 0.975537 0.249316 0.499902
15 1 0.966679 0.393576 0.501775
59 1 0.0810456 0.382982 0.500078
16 1 0.206885 0.351889 0.499722
45 1 0.297748 0.429951 0.499926
36 1 0.4231 0.415908 0.500935
7 1 0.570827 0.387456 0.501598
6 1 0.838325 0.305325 0.50025
37 1 0.0941266 0.492018 0.500444
60 1 0.219465 0.481561 0.497336
2 1 0.341576 0.55412 0.500007
75 1 0.623231 0.492515 0.499366
62 1 0.688337 0.40586 0.500721
9 1 0.727413 0.507747 0.499524
25 1 0.971876 0.527869 0.500762
4 1 0.18873 0.59665 0.501055
28 1 0.307153 0.699302 0.500062
13 1 0.455198 0.657307 0.49933
20 1 0.597242 0.601257 0.500397
24 1 0.776516 0.638427 0.499101
56 1 0.844169 0.558505 0.497254
67 1 0.027187 0.610056 0.498353
21 1 0.0814816 0.689822 0.499461
52 1 0.197684 0.725904 0.501443
40 1 0.248036 0.800613 0.500957
31 1 0.435204 0.792542 0.502286
18 1 0.57246 0.754434 0.496828
12 1 0.922706 0.655325 0.502016
80 1 0.0516013 0.863657 0.499879
30 1 0.124208 0.813795 0.499504
79 1 0.33571 0.791512 0.500187
50 1 0.525273 0.865736 0.501616
55 1 0.640121 0.863735 0.498095
43 1 0.678477 0.784349 0.499498
77 1 0.744198 0.768225 0.498226
58 1 0.824308 0.739433 0.501947
41 1 0.858139 0.829573 0.501727
17 1 0.975194 0.78816 0.499106
51 1 0.885602 0.918706 0.501181
8 1 0.100662 0.957051 0.49914
3 1 0.456853 0.977292 0.501145
49 1 0.573334 0.929394 0.50002
33 1 0.76036 0.86119 0.500577
ITEM: TIMESTEP
750
ITEM: NUMBER OF ATOMS
60
ITEM: BOX BOUNDS pp pp pp
-4.7910792322849183e+00 4.7910792322849183e+00
-4.7882406631138181e+00 4.7882406631138181e+00
-1.0000000000000001e-01 1.0000000000000001e-01
ITEM: ATOMS id type xs ys zs
1 1 0.21061 0.0768218 0.501427
14 1 0.588427 0.0727042 0.500278
29 1 0.794337 0.108551 0.501205
42 1 0.709115 0.032736 0.500781
23 1 0.794551 0.982289 0.499122
39 1 0.958363 0.0117698 0.500129
19 1 0.0614425 0.103813 0.500674
5 1 0.618142 0.24996 0.500482
46 1 0.700583 0.145082 0.500381
34 1 0.921295 0.121242 0.499484
47 1 0.0831716 0.297997 0.50117
22 1 0.157095 0.208988 0.49996
32 1 0.277574 0.226202 0.498144
35 1 0.341961 0.335672 0.502462
11 1 0.460938 0.273374 0.500911
48 1 0.712362 0.33741 0.500983
53 1 0.738542 0.238053 0.498517
10 1 0.975449 0.249697 0.499259
15 1 0.967576 0.393403 0.49947
59 1 0.0822725 0.38325 0.500818
16 1 0.207425 0.351664 0.500271
45 1 0.298766 0.430112 0.500444
36 1 0.42377 0.415416 0.500577
7 1 0.571166 0.38612 0.503473
6 1 0.839025 0.306109 0.499983
37 1 0.0942688 0.492433 0.499322
60 1 0.220628 0.480478 0.494829
2 1 0.341545 0.555124 0.498878
75 1 0.62354 0.49269 0.499078
62 1 0.688509 0.405564 0.499793
9 1 0.728073 0.507152 0.498579
25 1 0.972317 0.527498 0.50069
4 1 0.188955 0.596293 0.501133
28 1 0.307147 0.699704 0.498939
13 1 0.455603 0.657688 0.500258
20 1 0.59716 0.600859 0.502008
24 1 0.776731 0.638281 0.498702
56 1 0.844965 0.558856 0.499071
67 1 0.0277418 0.609844 0.496461
21 1 0.0810835 0.689685 0.499169
52 1 0.197959 0.726286 0.501568
40 1 0.248032 0.801293 0.502621
31 1 0.435576 0.792923 0.501329
18 1 0.572704 0.754389 0.499079
12 1 0.923537 0.655234 0.50156
80 1 0.0514648 0.864173 0.501028
30 1 0.123587 0.813643 0.500797
79 1 0.335451 0.79264 0.500622
50 1 0.526028 0.864972 0.503291
55 1 0.640641 0.864638 0.49769
43 1 0.678385 0.78504 0.498765
77 1 0.74423 0.767993 0.500809
58 1 0.824607 0.738753 0.50169
41 1 0.858669 0.828461 0.503873
17 1 0.975029 0.78862 0.499356
51 1 0.885716 0.918118 0.502223
8 1 0.102015 0.956953 0.501
3 1 0.457732 0.977335 0.49937
49 1 0.573709 0.929255 0.500649
33 1 0.761636 0.860868 0.500316
ITEM: TIMESTEP
1000
ITEM: NUMBER OF ATOMS
60
ITEM: BOX BOUNDS pp pp pp
-4.7898807805578141e+00 4.7898807805578141e+00
-4.7933513812697663e+00 4.7933513812697663e+00
-1.0000000000000001e-01 1.0000000000000001e-01
ITEM: ATOMS id type xs ys zs
1 1 0.212055 0.076101 0.501228
14 1 0.588227 0.0707981 0.499759
29 1 0.794329 0.108915 0.499409
42 1 0.70936 0.0326961 0.502055
23 1 0.794046 0.982345 0.497812
39 1 0.959478 0.0111183 0.500028
19 1 0.0623868 0.103405 0.499185
5 1 0.618365 0.25076 0.500693
46 1 0.699993 0.144125 0.498616
34 1 0.922253 0.120859 0.499336
47 1 0.0839644 0.298175 0.501239
22 1 0.156056 0.207804 0.499788
32 1 0.276526 0.227475 0.497814
35 1 0.342683 0.335599 0.503245
11 1 0.461257 0.273684 0.500867
48 1 0.712189 0.338113 0.50112
53 1 0.738775 0.237023 0.499471
10 1 0.975195 0.250492 0.501096
15 1 0.967553 0.39391 0.497493
59 1 0.0818892 0.383746 0.500732
16 1 0.207496 0.352302 0.498149
45 1 0.299671 0.43029 0.500708
36 1 0.423918 0.416415 0.501059
7 1 0.571778 0.38671 0.502615
6 1 0.838758 0.307088 0.50195
37 1 0.0945231 0.493473 0.499841
60 1 0.220649 0.480787 0.494265
2 1 0.342258 0.554978 0.498966
75 1 0.624674 0.492163 0.499571
62 1 0.68872 0.406094 0.500221
9 1 0.728549 0.507319 0.498462
25 1 0.972693 0.527628 0.500013
4 1 0.190052 0.595972 0.502158
28 1 0.307341 0.69898 0.499465
13 1 0.454701 0.657479 0.500242
20 1 0.596052 0.600049 0.501896
24 1 0.777495 0.638599 0.498952
56 1 0.844982 0.559382 0.499153
67 1 0.0282432 0.609774 0.495809
21 1 0.0823334 0.689167 0.500332
52 1 0.197657 0.72605 0.501359
40 1 0.247863 0.800498 0.502978
31 1 0.435397 0.792359 0.501897
18 1 0.572894 0.754133 0.499895
12 1 0.924133 0.654851 0.503275
80 1 0.0510515 0.864496 0.499714
30 1 0.122713 0.813551 0.501623
79 1 0.335279 0.791795 0.501151
50 1 0.525043 0.864751 0.501523
55 1 0.640254 0.863778 0.496399
43 1 0.678858 0.784272 0.497893
77 1 0.744609 0.767823 0.500874
58 1 0.825066 0.739384 0.502567
41 1 0.859718 0.828963 0.503734
17 1 0.975847 0.78761 0.500201
51 1 0.885899 0.918409 0.502676
8 1 0.102627 0.956668 0.500741
3 1 0.456097 0.976573 0.500472
49 1 0.572742 0.928525 0.500715
33 1 0.761318 0.860314 0.500201
ITEM: TIMESTEP
1250
ITEM: NUMBER OF ATOMS
60
ITEM: BOX BOUNDS pp pp pp
-4.7886823288307099e+00 4.7886823288307099e+00
-4.7976077424407180e+00 4.7976077424407180e+00
-1.0000000000000001e-01 1.0000000000000001e-01
ITEM: ATOMS id type xs ys zs
1 1 0.210733 0.0764289 0.502352
14 1 0.5885 0.0708754 0.498899
29 1 0.794101 0.107099 0.498656
42 1 0.709005 0.0320521 0.502006
23 1 0.793817 0.981499 0.498595
39 1 0.957622 0.0122042 0.49977
19 1 0.0615362 0.103282 0.499429
5 1 0.618974 0.251065 0.50207
46 1 0.70034 0.143611 0.499991
34 1 0.921673 0.122283 0.499843
47 1 0.0847151 0.298284 0.500808
22 1 0.157381 0.207854 0.498714
32 1 0.277045 0.226909 0.498037
35 1 0.342069 0.335275 0.503362
11 1 0.461768 0.273289 0.500172
48 1 0.71221 0.33919 0.501115
53 1 0.738721 0.23615 0.500005
10 1 0.976229 0.250592 0.500699
15 1 0.966667 0.394595 0.496135
59 1 0.0811653 0.384131 0.500706
16 1 0.207261 0.352681 0.496676
45 1 0.299808 0.429769 0.501574
36 1 0.423647 0.415634 0.501322
7 1 0.570645 0.386811 0.504113
6 1 0.838593 0.306003 0.501598
37 1 0.0950654 0.492546 0.498218
60 1 0.221221 0.481544 0.494475
2 1 0.341398 0.554658 0.499599
75 1 0.623632 0.492412 0.500152
62 1 0.687425 0.406863 0.501694
9 1 0.727002 0.507811 0.498678
25 1 0.973072 0.527619 0.500375
4 1 0.189767 0.595948 0.502495
28 1 0.306578 0.698894 0.501048
13 1 0.454666 0.65751 0.498259
20 1 0.596339 0.600875 0.502021
24 1 0.776965 0.638574 0.49856
56 1 0.844906 0.558878 0.499768
67 1 0.028668 0.609829 0.496156
21 1 0.0817537 0.690011 0.498249
52 1 0.19745 0.725857 0.50297
40 1 0.24777 0.80082 0.501858
31 1 0.434805 0.792696 0.503059
18 1 0.572694 0.75414 0.499761
12 1 0.923785 0.654718 0.505694
80 1 0.0514817 0.864285 0.499654
30 1 0.123274 0.813396 0.502899
79 1 0.335236 0.791118 0.499794
50 1 0.525306 0.864404 0.500781
55 1 0.640149 0.863366 0.495229
43 1 0.678414 0.784192 0.496347
77 1 0.744578 0.768166 0.502305
58 1 0.825429 0.73914 0.502577
41 1 0.859652 0.829149 0.504669
17 1 0.975542 0.788325 0.498743
51 1 0.885292 0.918636 0.503086
8 1 0.103039 0.956744 0.501242
3 1 0.45768 0.97629 0.501389
49 1 0.573336 0.928033 0.502267
33 1 0.761557 0.860363 0.498074
ITEM: TIMESTEP
1500
ITEM: NUMBER OF ATOMS
60
ITEM: BOX BOUNDS pp pp pp
-4.7874838771036066e+00 4.7874838771036066e+00
-4.7943242276610913e+00 4.7943242276610913e+00
-1.0000000000000001e-01 1.0000000000000001e-01
ITEM: ATOMS id type xs ys zs
1 1 0.211294 0.0759583 0.503383
14 1 0.588646 0.0703909 0.499184
29 1 0.794215 0.10921 0.497769
42 1 0.710098 0.0319476 0.501779
23 1 0.794835 0.981134 0.499218
39 1 0.957365 0.0121292 0.499585
19 1 0.0609156 0.102642 0.500097
5 1 0.618616 0.250808 0.502396
46 1 0.699948 0.144113 0.500193
34 1 0.9216 0.121994 0.497983
47 1 0.0837483 0.297909 0.502022
22 1 0.155933 0.207515 0.500037
32 1 0.276523 0.226733 0.498963
35 1 0.341575 0.33471 0.503509
11 1 0.461317 0.273483 0.500401
48 1 0.712238 0.338091 0.497586
53 1 0.738628 0.236616 0.499452
10 1 0.975686 0.249339 0.5004
15 1 0.967453 0.394355 0.497506
59 1 0.0821163 0.383786 0.499538
16 1 0.207266 0.352368 0.495704
45 1 0.299619 0.429112 0.501386
36 1 0.422771 0.415207 0.501855
7 1 0.571275 0.386421 0.504576
6 1 0.838737 0.305976 0.502311
37 1 0.0951566 0.49258 0.499356
60 1 0.222253 0.481519 0.495686
2 1 0.342028 0.554451 0.500594
75 1 0.623188 0.492503 0.501892
62 1 0.688394 0.406385 0.502082
9 1 0.727732 0.507866 0.499768
25 1 0.973059 0.527618 0.501073
4 1 0.189549 0.596371 0.503598
28 1 0.306409 0.699685 0.50004
13 1 0.453751 0.658203 0.499227
20 1 0.595543 0.600415 0.501729
24 1 0.776649 0.638041 0.498239
56 1 0.844763 0.558293 0.500327
67 1 0.0281025 0.609736 0.495041
21 1 0.0809196 0.690244 0.499689
52 1 0.19693 0.726086 0.50228
40 1 0.246156 0.800863 0.504179
31 1 0.433985 0.793019 0.502953
18 1 0.571924 0.754284 0.500945
12 1 0.923631 0.65478 0.503848
80 1 0.0507178 0.864816 0.50029
30 1 0.122692 0.813949 0.504783
79 1 0.333912 0.792304 0.500198
50 1 0.525091 0.864835 0.500063
55 1 0.640791 0.86315 0.495091
43 1 0.6782 0.782738 0.497836
77 1 0.744343 0.767034 0.501278
58 1 0.824628 0.738631 0.503458
41 1 0.858298 0.828819 0.506004
17 1 0.975029 0.788237 0.49895
51 1 0.886501 0.917265 0.504685
8 1 0.102432 0.956398 0.5021
3 1 0.456485 0.976941 0.504309
49 1 0.573576 0.928458 0.503117
33 1 0.760286 0.859833 0.49861
ITEM: TIMESTEP
1750
ITEM: NUMBER OF ATOMS
60
ITEM: BOX BOUNDS pp pp pp
-4.7862854253765024e+00 4.7862854253765024e+00
-4.8004444490719225e+00 4.8004444490719225e+00
-1.0000000000000001e-01 1.0000000000000001e-01
ITEM: ATOMS id type xs ys zs
1 1 0.211898 0.0762397 0.501853
14 1 0.589177 0.0702747 0.500628
29 1 0.794678 0.107125 0.498781
42 1 0.70993 0.0318022 0.502037
23 1 0.794488 0.980835 0.497802
39 1 0.958262 0.0120171 0.50043
19 1 0.0616843 0.103142 0.500804
5 1 0.618828 0.251128 0.502353
46 1 0.70036 0.143941 0.500812
34 1 0.922256 0.122408 0.498994
47 1 0.0848313 0.297549 0.501773
22 1 0.156415 0.207318 0.501927
32 1 0.277059 0.227542 0.497553
35 1 0.342027 0.336633 0.501992
11 1 0.461233 0.274384 0.503253
48 1 0.712287 0.338486 0.497818
53 1 0.739064 0.236377 0.497333
10 1 0.976325 0.25034 0.498248
15 1 0.967557 0.393529 0.496987
59 1 0.0820433 0.383012 0.499946
16 1 0.207625 0.352805 0.496896
45 1 0.299053 0.430463 0.501454
36 1 0.4242 0.415755 0.500201
7 1 0.571697 0.38663 0.504591
6 1 0.839054 0.306118 0.500549
37 1 0.094443 0.492096 0.499556
60 1 0.220953 0.481746 0.495925
2 1 0.340976 0.555572 0.500737
75 1 0.623982 0.492477 0.501033
62 1 0.688851 0.406732 0.502147
9 1 0.72783 0.507835 0.499687
25 1 0.972512 0.526957 0.50076
4 1 0.188764 0.596121 0.505614
28 1 0.30646 0.699908 0.501103
13 1 0.454132 0.658505 0.498673
20 1 0.595895 0.599785 0.500808
24 1 0.776682 0.638581 0.496975
56 1 0.844545 0.559033 0.500649
67 1 0.0279984 0.609738 0.493409
21 1 0.0806099 0.689482 0.501381
52 1 0.19706 0.726082 0.503195
40 1 0.246683 0.800756 0.502563
31 1 0.433964 0.793327 0.501424
18 1 0.571453 0.754616 0.499339
12 1 0.923643 0.655001 0.503585
80 1 0.0513869 0.864391 0.501061
30 1 0.123087 0.813579 0.505613
79 1 0.334244 0.792787 0.501838
50 1 0.52447 0.865292 0.500773
55 1 0.640053 0.863264 0.4954
43 1 0.677243 0.783354 0.496266
77 1 0.743428 0.767432 0.502449
58 1 0.824275 0.73908 0.500977
41 1 0.858294 0.828868 0.504753
17 1 0.975461 0.788696 0.498439
51 1 0.886655 0.917682 0.501901
8 1 0.102417 0.956709 0.50227
3 1 0.4573 0.97728 0.502682
49 1 0.57298 0.928564 0.504832
33 1 0.760822 0.859492 0.50014
ITEM: TIMESTEP
2000
ITEM: NUMBER OF ATOMS
60
ITEM: BOX BOUNDS pp pp pp
-4.7850869736493982e+00 4.7850869736493982e+00
-4.8024133649751288e+00 4.8024133649751288e+00
-1.0000000000000001e-01 1.0000000000000001e-01
ITEM: ATOMS id type xs ys zs
1 1 0.211244 0.0751065 0.500663
14 1 0.588777 0.0709851 0.500766
29 1 0.794917 0.107208 0.500449
42 1 0.709865 0.0313721 0.503461
23 1 0.795273 0.981395 0.497249
39 1 0.958118 0.0114413 0.4998
19 1 0.0616725 0.102618 0.500052
5 1 0.619403 0.25061 0.502196
46 1 0.701007 0.143714 0.501065
34 1 0.922044 0.121288 0.49846
47 1 0.0840719 0.297901 0.501827
22 1 0.15709 0.207112 0.499308
32 1 0.276951 0.228109 0.497469
35 1 0.342405 0.336137 0.501263
11 1 0.461443 0.274293 0.503622
48 1 0.711991 0.338636 0.497591
53 1 0.73924 0.236466 0.498381
10 1 0.975528 0.250627 0.500256
15 1 0.966442 0.393889 0.497707
59 1 0.0808127 0.382632 0.499803
16 1 0.207274 0.353856 0.49712
45 1 0.299457 0.430944 0.501548
36 1 0.424036 0.416092 0.500095
7 1 0.571972 0.387173 0.503851
6 1 0.838626 0.306058 0.499585
37 1 0.0940495 0.491255 0.498754
60 1 0.220832 0.482373 0.495713
2 1 0.340379 0.55529 0.499171
75 1 0.623481 0.492559 0.502818
62 1 0.689461 0.407164 0.502773
9 1 0.727862 0.508982 0.498378
25 1 0.972329 0.527655 0.500317
4 1 0.187295 0.596404 0.506279
28 1 0.306146 0.699518 0.499401
13 1 0.453335 0.658777 0.499712
20 1 0.594916 0.600405 0.500531
24 1 0.777718 0.638212 0.496128
56 1 0.845899 0.558487 0.499972
67 1 0.0285947 0.609434 0.493681
21 1 0.0805322 0.690298 0.501312
52 1 0.196863 0.725871 0.502919
40 1 0.24686 0.800384 0.502684
31 1 0.434234 0.793905 0.501684
18 1 0.571262 0.754807 0.497685
12 1 0.923743 0.65479 0.503314
80 1 0.0503723 0.863581 0.497836
30 1 0.122942 0.813784 0.503314
79 1 0.33458 0.792057 0.502953
50 1 0.524995 0.865495 0.500683
55 1 0.640135 0.86395 0.495778
43 1 0.677354 0.784187 0.495102
77 1 0.743715 0.768753 0.500797
58 1 0.823909 0.738649 0.499711
41 1 0.857657 0.828335 0.505663
17 1 0.973988 0.788345 0.500685
51 1 0.886501 0.9167 0.503638
8 1 0.101289 0.956134 0.502611
3 1 0.45698 0.97716 0.501925
49 1 0.573479 0.92913 0.504285
33 1 0.760311 0.861246 0.499358
ITEM: TIMESTEP
2250
ITEM: NUMBER OF ATOMS
60
ITEM: BOX BOUNDS pp pp pp
-4.7838885219222940e+00 4.7838885219222940e+00
-4.8004212168615696e+00 4.8004212168615696e+00
-1.0000000000000001e-01 1.0000000000000001e-01
ITEM: ATOMS id type xs ys zs
1 1 0.211962 0.0754113 0.500119
14 1 0.588742 0.0701972 0.499965
29 1 0.794487 0.10958 0.498992
42 1 0.710226 0.0319351 0.50447
23 1 0.795122 0.981286 0.496992
39 1 0.956886 0.0124015 0.500009
19 1 0.0616359 0.102487 0.499548
5 1 0.619335 0.251522 0.502822
46 1 0.699847 0.14394 0.500437
34 1 0.921816 0.122222 0.496793
47 1 0.0836172 0.29701 0.501596
22 1 0.156357 0.207129 0.499175
32 1 0.276495 0.226668 0.496999
35 1 0.341463 0.335942 0.502005
11 1 0.461772 0.273953 0.503077
48 1 0.712545 0.339545 0.498253
53 1 0.739638 0.23548 0.497403
10 1 0.974719 0.251036 0.500866
15 1 0.967276 0.395032 0.497426
59 1 0.0813079 0.382339 0.499429
16 1 0.207345 0.352557 0.496343
45 1 0.298588 0.430125 0.501668
36 1 0.423671 0.415675 0.498764
7 1 0.571932 0.386972 0.50343
6 1 0.83841 0.307208 0.500287
37 1 0.0944217 0.491567 0.499739
60 1 0.220273 0.481381 0.493938
2 1 0.340876 0.554428 0.501294
75 1 0.623914 0.492508 0.500731
62 1 0.689181 0.407644 0.503021
9 1 0.727695 0.509064 0.498181
25 1 0.972381 0.526985 0.49901
4 1 0.187737 0.596382 0.507447
28 1 0.306731 0.698724 0.499465
13 1 0.453978 0.657406 0.497531
20 1 0.595586 0.600365 0.499773
24 1 0.777127 0.63846 0.49606
56 1 0.84487 0.558272 0.500834
67 1 0.0285345 0.608582 0.494757
21 1 0.0796743 0.689881 0.501633
52 1 0.196756 0.726014 0.502163
40 1 0.247437 0.800376 0.503471
31 1 0.434765 0.792535 0.5
18 1 0.571806 0.753802 0.499074
12 1 0.924189 0.654336 0.502539
80 1 0.050944 0.863386 0.499935
30 1 0.122679 0.812939 0.502197
79 1 0.334756 0.790642 0.502581
50 1 0.52502 0.865345 0.501509
55 1 0.638505 0.863829 0.49521
43 1 0.677616 0.784701 0.493336
77 1 0.743991 0.768088 0.499203
58 1 0.824751 0.738922 0.500944
41 1 0.857656 0.828762 0.50681
17 1 0.973819 0.788574 0.499546
51 1 0.886558 0.917333 0.505526
8 1 0.102547 0.955971 0.503434
3 1 0.456375 0.976665 0.502179
49 1 0.572497 0.929544 0.504925
33 1 0.760429 0.860949 0.498394
ITEM: TIMESTEP
2500
ITEM: NUMBER OF ATOMS
60
ITEM: BOX BOUNDS pp pp pp
-4.7826900701951907e+00 4.7826900701951907e+00
-4.8042328505709149e+00 4.8042328505709149e+00
-1.0000000000000001e-01 1.0000000000000001e-01
ITEM: ATOMS id type xs ys zs
1 1 0.211482 0.0744602 0.502251
14 1 0.588524 0.0692937 0.500082
29 1 0.794258 0.108609 0.499984
42 1 0.710117 0.0320735 0.502724
23 1 0.795463 0.981679 0.498166
39 1 0.956231 0.0116667 0.499555
19 1 0.0612043 0.101524 0.497672
5 1 0.619014 0.250776 0.502987
46 1 0.699805 0.143848 0.498768
34 1 0.922094 0.12163 0.497385
47 1 0.0838263 0.297553 0.502482
22 1 0.155964 0.206342 0.498218
32 1 0.276037 0.227398 0.4976
35 1 0.341666 0.335868 0.501634
11 1 0.461188 0.27341 0.503473
48 1 0.711919 0.339664 0.497685
53 1 0.739265 0.23515 0.494915
10 1 0.975364 0.250078 0.500127
15 1 0.966065 0.394058 0.499099
59 1 0.0808975 0.383117 0.498114
16 1 0.206693 0.352914 0.496485
45 1 0.298282 0.429806 0.50105
36 1 0.424055 0.415961 0.499213
7 1 0.571947 0.38618 0.504415
6 1 0.83836 0.306284 0.503223
37 1 0.0944158 0.491723 0.499688
60 1 0.220355 0.481533 0.494882
2 1 0.340888 0.55403 0.501892
75 1 0.624642 0.49227 0.501182
62 1 0.688428 0.407857 0.503004
9 1 0.728661 0.508345 0.498554
25 1 0.972148 0.527388 0.501132
4 1 0.188521 0.596517 0.506566
28 1 0.306661 0.699376 0.498781
13 1 0.454297 0.657235 0.498375
20 1 0.597022 0.600236 0.500881
24 1 0.776587 0.638007 0.498507
56 1 0.844971 0.559501 0.498612
67 1 0.0278469 0.609193 0.495059
21 1 0.0792731 0.689688 0.501702
52 1 0.197338 0.725819 0.502292
40 1 0.246613 0.800575 0.504091
31 1 0.434111 0.792333 0.499613
18 1 0.571643 0.753902 0.500658
12 1 0.923789 0.655013 0.503431
80 1 0.0505344 0.862783 0.500877
30 1 0.122802 0.812696 0.504001
79 1 0.333925 0.791593 0.504497
50 1 0.524847 0.864758 0.500236
55 1 0.638993 0.8636 0.494297
43 1 0.677603 0.784733 0.492616
77 1 0.743819 0.768187 0.500837
58 1 0.824057 0.738479 0.500844
41 1 0.857023 0.828772 0.505209
17 1 0.973496 0.788067 0.499052
51 1 0.88614 0.916561 0.503848
8 1 0.101727 0.955493 0.504391
3 1 0.45617 0.97611 0.502708
49 1 0.572258 0.928776 0.504342
33 1 0.759612 0.861281 0.496947
ITEM: TIMESTEP
2750
ITEM: NUMBER OF ATOMS
60
ITEM: BOX BOUNDS pp pp pp
-4.7814916184680865e+00 4.7814916184680865e+00
-4.8067739100233426e+00 4.8067739100233426e+00
-1.0000000000000001e-01 1.0000000000000001e-01
ITEM: ATOMS id type xs ys zs
1 1 0.211707 0.0747166 0.503036
14 1 0.588619 0.0686153 0.499988
29 1 0.794063 0.10785 0.49983
42 1 0.71018 0.0317262 0.504242
23 1 0.795061 0.981222 0.497286
39 1 0.956537 0.0105781 0.497815
19 1 0.0609414 0.101019 0.497898
5 1 0.619566 0.250794 0.500944
46 1 0.699846 0.142968 0.499014
34 1 0.92129 0.121427 0.496636
47 1 0.084302 0.297073 0.500514
22 1 0.155466 0.206455 0.497825
32 1 0.276114 0.22663 0.496847
35 1 0.341087 0.335821 0.503217
11 1 0.460783 0.273775 0.503723
48 1 0.711807 0.339807 0.498291
53 1 0.739831 0.235058 0.495376
10 1 0.975301 0.249879 0.497737
15 1 0.966319 0.394418 0.497226
59 1 0.081196 0.382261 0.498479
16 1 0.207242 0.352893 0.496896
45 1 0.298587 0.430454 0.502816
36 1 0.423457 0.415391 0.500048
7 1 0.570877 0.386291 0.504919
6 1 0.838621 0.306119 0.502725
37 1 0.0928249 0.490925 0.499383
60 1 0.220004 0.481641 0.493697
2 1 0.339901 0.555064 0.500973
75 1 0.623524 0.492458 0.500719
62 1 0.687245 0.407139 0.503299
9 1 0.727763 0.508013 0.496653
25 1 0.971225 0.527765 0.500862
4 1 0.18693 0.596043 0.507533
28 1 0.306597 0.70007 0.499022
13 1 0.454071 0.656752 0.496172
20 1 0.596022 0.599699 0.50055
24 1 0.776406 0.637476 0.497137
56 1 0.845206 0.559062 0.497007
67 1 0.0279465 0.608774 0.496193
21 1 0.0791212 0.689517 0.502869
52 1 0.196234 0.725342 0.505129
40 1 0.246079 0.800592 0.503466
31 1 0.433971 0.791062 0.49963
18 1 0.571672 0.753745 0.502715
12 1 0.923793 0.655165 0.502546
80 1 0.0493256 0.864275 0.501046
30 1 0.121485 0.812678 0.504921
79 1 0.333765 0.792204 0.505793
50 1 0.524581 0.86451 0.498391
55 1 0.639151 0.863699 0.492861
43 1 0.677433 0.784777 0.491207
77 1 0.743977 0.768748 0.498595
58 1 0.823439 0.737632 0.501173
41 1 0.85585 0.827818 0.506079
17 1 0.973466 0.788597 0.499309
51 1 0.885872 0.916141 0.503514
8 1 0.102203 0.955458 0.503155
3 1 0.455491 0.976065 0.503619
49 1 0.571976 0.928758 0.505172
33 1 0.758946 0.861685 0.497363
ITEM: TIMESTEP
3000
ITEM: NUMBER OF ATOMS
60
ITEM: BOX BOUNDS pp pp pp
-4.7802931667409823e+00 4.7802931667409823e+00
-4.8041931093903107e+00 4.8041931093903107e+00
-1.0000000000000001e-01 1.0000000000000001e-01
ITEM: ATOMS id type xs ys zs
1 1 0.211566 0.0753899 0.504216
14 1 0.587303 0.0701782 0.499525
29 1 0.793095 0.108525 0.500321
42 1 0.709045 0.0317032 0.504955
23 1 0.794679 0.982238 0.498234
39 1 0.956197 0.0117614 0.498221
19 1 0.0608552 0.101627 0.49899
5 1 0.619374 0.252042 0.500776
46 1 0.699019 0.14404 0.499209
34 1 0.920988 0.121986 0.496484
47 1 0.0834441 0.29748 0.500197
22 1 0.154927 0.206598 0.498319
32 1 0.275549 0.227183 0.49695
35 1 0.341241 0.335744 0.503656
11 1 0.460986 0.274183 0.505016
48 1 0.712534 0.340111 0.498894
53 1 0.739661 0.235231 0.494968
10 1 0.974659 0.250327 0.498022
15 1 0.965898 0.393603 0.495241
59 1 0.0806961 0.382724 0.499271
16 1 0.206602 0.352427 0.496061
45 1 0.298122 0.430094 0.503041
36 1 0.42254 0.415992 0.500645
7 1 0.570272 0.386931 0.507041
6 1 0.837973 0.306437 0.502392
37 1 0.0922829 0.49177 0.499143
60 1 0.219702 0.481103 0.494341
2 1 0.339466 0.555129 0.501374
75 1 0.624151 0.491786 0.500414
62 1 0.686742 0.407409 0.504467
9 1 0.727801 0.507698 0.494555
25 1 0.970428 0.527105 0.500424
4 1 0.185823 0.595848 0.508079
28 1 0.305682 0.699782 0.500176
13 1 0.453064 0.657034 0.497957
20 1 0.594787 0.598984 0.500703
24 1 0.775865 0.638405 0.499168
56 1 0.844086 0.559274 0.49811
67 1 0.0274869 0.608398 0.494929
21 1 0.0786025 0.689285 0.503172
52 1 0.195934 0.725504 0.505587
40 1 0.24556 0.800436 0.503392
31 1 0.433868 0.791937 0.501399
18 1 0.571664 0.753718 0.504024
12 1 0.923616 0.654891 0.503218
80 1 0.049849 0.863756 0.499143
30 1 0.120619 0.812202 0.504868
79 1 0.333351 0.792666 0.505112
50 1 0.523966 0.864519 0.499681
55 1 0.638246 0.863841 0.492053
43 1 0.677689 0.784899 0.489442
77 1 0.743877 0.768729 0.498058
58 1 0.824267 0.738371 0.500649
41 1 0.856681 0.828263 0.506446
17 1 0.973414 0.788513 0.498897
51 1 0.885581 0.916772 0.505416
8 1 0.102357 0.955367 0.504591
3 1 0.4556 0.976348 0.501837
49 1 0.570862 0.928593 0.506397
33 1 0.759384 0.861975 0.497837
ITEM: TIMESTEP
3250
ITEM: NUMBER OF ATOMS
60
ITEM: BOX BOUNDS pp pp pp
-4.7790947150138781e+00 4.7790947150138781e+00
-4.8085717478964316e+00 4.8085717478964316e+00
-1.0000000000000001e-01 1.0000000000000001e-01
ITEM: ATOMS id type xs ys zs
1 1 0.212109 0.0752252 0.504028
14 1 0.58747 0.0699494 0.500596
29 1 0.792896 0.107662 0.499284
42 1 0.708685 0.0313933 0.504451
23 1 0.794021 0.981347 0.496983
39 1 0.954487 0.0121859 0.49616
19 1 0.0605435 0.100695 0.499758
5 1 0.618413 0.251363 0.501696
46 1 0.698854 0.14409 0.497638
34 1 0.921066 0.122884 0.495648
47 1 0.0839913 0.297076 0.500282
22 1 0.155282 0.20654 0.496715
32 1 0.27579 0.226606 0.499314
35 1 0.341474 0.335295 0.503213
11 1 0.460878 0.27386 0.506991
48 1 0.711021 0.339961 0.499799
53 1 0.737982 0.235543 0.494949
10 1 0.974651 0.250556 0.498975
15 1 0.966123 0.394105 0.495741
59 1 0.080847 0.381771 0.498213
16 1 0.207121 0.352452 0.497527
45 1 0.298679 0.429969 0.50346
36 1 0.422906 0.415568 0.501447
7 1 0.571329 0.386932 0.506656
6 1 0.837177 0.305821 0.500104
37 1 0.0919884 0.4906 0.499612
60 1 0.221137 0.481584 0.494074
2 1 0.338895 0.555629 0.501526
75 1 0.622874 0.493011 0.499459
62 1 0.688005 0.407582 0.503258
9 1 0.727349 0.508496 0.497994
25 1 0.97013 0.526908 0.501209
4 1 0.185942 0.595095 0.506223
28 1 0.307268 0.700368 0.500315
13 1 0.452622 0.658569 0.493819
20 1 0.59516 0.600421 0.500206
24 1 0.777049 0.638399 0.499443
56 1 0.844997 0.559023 0.496695
67 1 0.0272847 0.607326 0.493505
21 1 0.0778638 0.688446 0.501694
52 1 0.196309 0.724716 0.505689
40 1 0.245845 0.800412 0.503489
31 1 0.433917 0.792953 0.502723
18 1 0.571325 0.753565 0.504056
12 1 0.923821 0.654757 0.504219
80 1 0.0506882 0.864083 0.499974
30 1 0.121112 0.811469 0.504673
79 1 0.333424 0.792858 0.50386
50 1 0.525217 0.864181 0.499113
55 1 0.638016 0.863141 0.491959
43 1 0.67706 0.784407 0.48841
77 1 0.743249 0.767984 0.496654
58 1 0.824183 0.738747 0.500661
41 1 0.856926 0.828231 0.50608
17 1 0.973945 0.788614 0.499102
51 1 0.885419 0.916492 0.504788
8 1 0.103448 0.955036 0.505098
3 1 0.455292 0.97547 0.500799
49 1 0.571478 0.929101 0.505794
33 1 0.759606 0.860963 0.498368
ITEM: TIMESTEP
3500
ITEM: NUMBER OF ATOMS
60
ITEM: BOX BOUNDS pp pp pp
-4.7778962632867747e+00 4.7778962632867747e+00
-4.8098571293526833e+00 4.8098571293526833e+00
-1.0000000000000001e-01 1.0000000000000001e-01
ITEM: ATOMS id type xs ys zs
1 1 0.210983 0.0753361 0.504001
14 1 0.588025 0.0690893 0.499268
29 1 0.79355 0.108335 0.498826
42 1 0.709479 0.031258 0.505167
23 1 0.794889 0.9811 0.496141
39 1 0.954652 0.0115116 0.495802
19 1 0.0603439 0.10061 0.501795
5 1 0.618492 0.250783 0.500459
46 1 0.698676 0.14295 0.497173
34 1 0.920987 0.122412 0.495324
47 1 0.084058 0.297177 0.498635
22 1 0.154963 0.205894 0.497453
32 1 0.275436 0.228022 0.499324
35 1 0.341918 0.335941 0.504008
11 1 0.46122 0.274572 0.508274
48 1 0.711078 0.339768 0.49986
53 1 0.738185 0.235252 0.497173
10 1 0.974811 0.250942 0.499961
15 1 0.96591 0.393991 0.4941
59 1 0.0808547 0.382397 0.496386
16 1 0.206949 0.353084 0.496542
45 1 0.298283 0.430248 0.504641
36 1 0.423137 0.415967 0.500283
7 1 0.57114 0.386804 0.506646
6 1 0.837764 0.305677 0.502692
37 1 0.091674 0.491567 0.499562
60 1 0.22028 0.481846 0.493803
2 1 0.339439 0.55541 0.500444
75 1 0.62314 0.492964 0.499552
62 1 0.688298 0.407852 0.501287
9 1 0.727573 0.508436 0.498167
25 1 0.97 0.526877 0.502851
4 1 0.185997 0.595028 0.505226
28 1 0.308014 0.70006 0.500089
13 1 0.452691 0.658594 0.494379
20 1 0.594746 0.600273 0.501519
24 1 0.776909 0.637504 0.49976
56 1 0.844917 0.557737 0.497421
67 1 0.027046 0.607848 0.49418
21 1 0.0788107 0.688749 0.500924
52 1 0.197397 0.724151 0.506308
40 1 0.24642 0.799596 0.504003
31 1 0.434433 0.793907 0.503123
18 1 0.571058 0.753522 0.503872
12 1 0.923433 0.654709 0.504148
80 1 0.0501489 0.86317 0.499508
30 1 0.121912 0.81135 0.502601
79 1 0.334756 0.792492 0.50234
50 1 0.526109 0.864857 0.499084
55 1 0.638604 0.863593 0.492007
43 1 0.677304 0.784538 0.489549
77 1 0.743825 0.76864 0.497933
58 1 0.823614 0.737724 0.501791
41 1 0.856939 0.827455 0.505745
17 1 0.973596 0.78799 0.498373
51 1 0.884949 0.915892 0.505164
8 1 0.10291 0.954549 0.502677
3 1 0.455792 0.975276 0.49979
49 1 0.572457 0.929135 0.506996