LAMMPS (23 Jun 2022 - Update 4)
  using 1 OpenMP thread(s) per MPI task
# Compute elastic constant tensor for a crystal
#
# Written by Aidan Thompson (Sandia, athomps@sandia.gov)
#
#  This script uses the following three include files.
#
#   init.mod      (must be modified for different crystal structures)
# 	       	  Define units, deformation parameters and initial
#		  configuration of the atoms and simulation cell.
#
#
#   potential.mod    (must be modified for different pair styles)
# 		     Define pair style and other attributes
#		     not stored in restart file
#
#
#   displace.mod    (displace.mod should not need to be modified)
# 		    Perform positive and negative box displacements
# 		    in direction ${dir} and size ${up}.
# 		    It uses the resultant changes
#		    in stress to compute one
# 		    row of the elastic stiffness tensor
#
#		    Inputs variables:
#		    	   dir = the Voigt deformation component
#		    		    (1,2,3,4,5,6)
#		    Global constants:
#       	    	   up = the deformation magnitude (strain units)
#       		   cfac = conversion from LAMMPS pressure units to
#               	   output units for elastic constants
#
#
#  To run this on a different system, it should only be necessary to
#  modify the files init.mod and potential.mod. In order to calculate
#  the elastic constants correctly, care must be taken to specify
#  the correct units in init.mod (units, cfac and cunits). It is also
#  important to verify that the minimization of energy w.r.t atom
#  positions in the deformed cell is fully converged.
#  One indication of this is that the elastic constants are insensitive
#  to the choice of the variable ${up} in init.mod. Another is to check
#  the final max and two-norm forces reported in the log file. If you know
#  that minimization is not required, you can set maxiter = 0.0 in
#  init.mod.
#



variable dt equal 0.01
variable strain equal 0.05
variable srate equal 1e-4
variable M equal 1000 # averaging time for properties
variable strainsteps equal ${strain}/${dt}/${srate}
variable strainsteps equal 0.05/${dt}/${srate}
variable strainsteps equal 0.05/0.01/${srate}
variable strainsteps equal 0.05/0.01/0.0001


dimension 2
include init.mod
# NOTE: This script can be modified for different atomic structures,
# units, etc. See in.elastic for more info.
#

# Define the finite deformation size. Try several values of this
# variable to verify that results do not depend on it.
variable up equal 1.0e-1

# Define the amount of random jiggle for atoms
# This prevents atoms from staying on saddle points
variable atomjiggle equal 1.0e-6

# Uncomment one of these blocks, depending on what units
# you are using in LAMMPS and for output

# metal units, elastic constants in eV/A^3
#units		metal
#variable cfac equal 6.2414e-7
#variable cunits string eV/A^3

# Choose potential
# metal units, elastic constants in GPa
units		metal
atom_style	full
#pair_style      lj/cut 1.0
#pair_style      yukawa 1.0 2.0
#pair_modify     mix arithmetic
bond_style      harmonic
angle_style     harmonic
dihedral_style  zero
special_bonds   amber
variable cfac equal 1.0e-4
variable cunits string GPa
boundary	p p p

# Need to set mass to something, just to satisfy LAMMPS
#mass 1 1.0e-20
read_data network.lmp
Reading data file ...
  orthogonal box = (-4.793806 -4.793806 -0.1) to (4.793806 4.793806 0.1)
  1 by 1 by 1 MPI processor grid
WARNING: Atom style in data file differs from currently defined atom style (src/read_data.cpp:538)
  reading atoms ...
  60 atoms
WARNING: Bond style in data file differs from currently defined bond style (src/read_data.cpp:630)
  scanning bonds ...
  5 = max bonds/atom
  reading bonds ...
  129 bonds
Finding 1-2 1-3 1-4 neighbors ...
  special bond factors lj:    0        0        0.5     
  special bond factors coul:  0        0        0.8333333333333334
     8 = max # of 1-2 neighbors
    32 = max # of 1-3 neighbors
   162 = max # of 1-4 neighbors
    29 = max # of special neighbors
  special bonds CPU = 0.000 seconds
  read_data CPU = 0.003 seconds

# real units, elastic constants in GPa
#units		real
#variable cfac equal 1.01325e-4
#variable cunits string GPa

# Define minimization parameters
variable etol equal 0.0
variable ftol equal 5.0e-10
variable maxiter equal 100000
variable maxeval equal 20000
variable dmax equal 1.0e-2


include potential.mod
# NOTE: This script can be modified for different pair styles
# See in.elastic for more info.

# Setup neighbor style
neighbor 3.0 nsq
neigh_modify once no every 1 delay 0 check yes
comm_modify cutoff 2.0

# Setup minimization style
min_style	     cg
min_modify	     dmax ${dmax} line quadratic
min_modify	     dmax 0.01 line quadratic

timestep	0.001


# Setup output
thermo		500
thermo_style custom step temp pe ebond eangle edihed press pxx pyy pzz pxy pxz pyz lx ly lz vol
thermo_modify norm no


#change_box all triclinic
comm_modify mode single cutoff 10.0 vel yes
atom_modify sort 0 0



# Compute initial state

#dump rela all atom 1 traj_relax.lmpstrj
fix 3 all box/relax x 0 y 0 # xy 0  #MS comment: relax if the network is periodic
minimize ${etol} ${ftol} ${maxiter} ${maxeval}
minimize 0 ${ftol} ${maxiter} ${maxeval}
minimize 0 5e-10 ${maxiter} ${maxeval}
minimize 0 5e-10 100000 ${maxeval}
minimize 0 5e-10 100000 20000
Neighbor list info ...
  update every 1 steps, delay 0 steps, check yes
  max neighbors/atom: 2000, page size: 100000
  master list distance cutoff = 0
  ghost atom cutoff = 10
  0 neighbor lists, perpetual/occasional/extra = 0 0 0
WARNING: Inconsistent image flags (src/domain.cpp:819)
Per MPI rank memory allocation (min/avg/max) = 8.779 | 8.779 | 8.779 Mbytes
   Step          Temp          PotEng         E_bond        E_angle        E_dihed         Press           Pxx            Pyy            Pzz            Pxy            Pxz            Pyz             Lx             Ly             Lz           Volume    
         0   0              2.3539651e-11  2.3539651e-11  0              0              0.026496458    0.11600752    -0.063014607    0             -0.005590893    0              0              9.587612       9.587612       0.2            91.922304    
       181   0              1.8306303e-19  1.8306303e-19  0              0              3.104471e-07   3.1141563e-07  3.0947856e-07  0              2.5004631e-06  0              0              9.5876138      9.5876098      0.2            91.922301    
Loop time of 0.0118572 on 1 procs for 181 steps with 60 atoms

98.0% CPU use with 1 MPI tasks x 1 OpenMP threads

Minimization stats:
  Stopping criterion = force tolerance
  Energy initial, next-to-last, final = 
    2.35396507724281e-11 2.11377087702012e-19 1.83063034210081e-19
  Force two-norm initial, final = 1.716945e-05 3.719623e-10
  Force max component initial, final = 6.6557453e-06 8.7420531e-11
  Final line search alpha, max atom move = 1 8.7420531e-11
  Iterations, force evaluations = 181 362

MPI task timing breakdown:
Section |  min time  |  avg time  |  max time  |%varavg| %total
---------------------------------------------------------------
Pair    | 0          | 0          | 0          |   0.0 |  0.00
Bond    | 0.0016232  | 0.0016232  | 0.0016232  |   0.0 | 13.69
Neigh   | 0          | 0          | 0          |   0.0 |  0.00
Comm    | 0.0035353  | 0.0035353  | 0.0035353  |   0.0 | 29.82
Output  | 0          | 0          | 0          |   0.0 |  0.00
Modify  | 0          | 0          | 0          |   0.0 |  0.00
Other   |            | 0.006699   |            |       | 56.50

Nlocal:             60 ave          60 max          60 min
Histogram: 1 0 0 0 0 0 0 0 0 0
Nghost:            511 ave         511 max         511 min
Histogram: 1 0 0 0 0 0 0 0 0 0
Neighs:              0 ave           0 max           0 min
Histogram: 1 0 0 0 0 0 0 0 0 0

Total # of neighbors = 0
Ave neighs/atom = 0
Ave special neighs/atom = 22.533333
Neighbor list builds = 0
Dangerous builds = 0
#dump rela all atom 1 traj_relax.lmpstrj
thermo 100
unfix 3

fix 2d all enforce2d



#dump dump0 all xyz 1000000 cfg0.xyz
#dump_modify dump0 format line "%d %20.10g %20.10g %20.10g"
#minimize ${etol} ${ftol} ${maxiter} ${maxeval}

#undump rela

#write_restart restart.equil

# These formulas define the derivatives w.r.t. strain components
# Constants uses $, variables use v_


timestep        ${dt}
timestep        0.01
variable nsteps equal round(${strainsteps})
variable nsteps equal round(50000)

fix             4 all nve
fix             5 all langevin 0.1 0.1 1 904297
#fix		6 all press/berendsen y  0.0 0.0 1 x 0.0 0.0 10
fix             6 all nph y 0.0 0.0 10 ptemp 0.1 # x 0.0 0.0 10

# For PLUMED2
# fix 22 all plumed plumedfile plumed.dat outfile plumed.out

#fix             6 all nph x 0.0 0.0 10
fix     	9 all deform 1 x erate -${srate} units box remap x
fix     	9 all deform 1 x erate -0.0001 units box remap x

#fix     8 all deform 1 xy erate ${srate} units box remap x



#fix    10 all ave/time

dump 1 all atom 250 deform_dump.lammpstrj


#To avoid flying ice cube phenomenon:
#fix 21 all momentum 100 linear 1 1 1 angular


run  ${nsteps}
run  50000
WARNING: One or more atoms are time integrated more than once (src/modify.cpp:292)
WARNING: Inconsistent image flags (src/domain.cpp:819)
Per MPI rank memory allocation (min/avg/max) = 7.654 | 7.654 | 7.654 Mbytes
   Step          Temp          PotEng         E_bond        E_angle        E_dihed         Press           Pxx            Pyy            Pzz            Pxy            Pxz            Pyz             Lx             Ly             Lz           Volume    
       181   0              1.8306303e-19  1.8306303e-19  0              0              3.104471e-07   3.1141563e-07  3.0947856e-07  0              2.5004631e-06  0              0              9.5876138      9.5876098      0.2            91.922301    
       200   0.091730957    6.119555e-05   6.119555e-05   0              0              24.522918      79.425787     -30.53956       0             -155.91184      0              0              9.5874317      9.5878047      0.2            91.922422    
       300   0.16635858     0.00084826505  0.00084826505  0              0              129.56045      223.37772      35.567017      0             -150.11044      0              0              9.5864729      9.582682       0.2            91.864121    
       400   0.2068237      0.00091486154  0.00091486154  0              0             -102.33293     -11.189571     -193.68458      0             -164.05442      0              0              9.5855141      9.5823959      0.2            91.852192    
       500   0.1382514      0.0010052479   0.0010052479   0              0              441.07532      844.67127      37.319354      0             -202.91333      0              0              9.5845554      9.57878        0.2            91.808347    
       600   0.179648       0.00084037208  0.00084037208  0              0              1094.553       2015.635       173.30998      0             -659.97568      0              0              9.5835966      9.5769825      0.2            91.781937    
       700   0.16662308     0.00090443809  0.00090443809  0              0              231.82636      672.42591     -208.93019      0             -247.51472      0              0              9.5826378      9.576583       0.2            91.768927    
       800   0.16061207     0.00078775681  0.00078775681  0              0              368.07867      714.6417       21.36461       0             -1377.6592      0              0              9.5816791      9.5814051      0.2            91.805949    
       900   0.20746969     0.001008629    0.001008629    0              0             -107.29215     -388.1859       173.43977      0             -236.31788      0              0              9.5807203      9.5902461      0.2            91.881465    
      1000   0.22601577     0.0011101731   0.0011101731   0              0             -22.127048      156.27701     -200.71837      0             -277.05889      0              0              9.5797616      9.5867028      0.2            91.838327    
      1100   0.26378553     0.0010438866   0.0010438866   0              0             -3.9924804      31.824228     -40.033376      0             -743.13552      0              0              9.5788028      9.5883585      0.2            91.844995    
      1200   0.23852827     0.0008930926   0.0008930926   0              0              270.36136      319.67384      220.89733      0             -397.331        0              0              9.577844       9.5991139      0.2            91.938816    
      1300   0.19471074     0.00096038043  0.00096038043  0              0              46.062739      279.42935     -187.4897       0             -632.47179      0              0              9.5768853      9.592236       0.2            91.863744    
      1400   0.21909131     0.0012485128   0.0012485128   0              0              622.39505      1356.9639     -112.34029      0             -468.952        0              0              9.5759265      9.5866215      0.2            91.800783    
      1500   0.19739917     0.001088954    0.001088954    0              0              344.87206      435.32242      254.23257      0              552.65294      0              0              9.5749678      9.5886485      0.2            91.811       
      1600   0.18770269     0.00099830512  0.00099830512  0              0              512.64313      1166.6221     -141.50939      0             -515.6811       0              0              9.574009       9.5854915      0.2            91.771582    
      1700   0.20918857     0.0010194272   0.0010194272   0              0              156.99568      477.92323     -164.12086      0              255.24336      0              0              9.5730502      9.5963958      0.2            91.866779    
      1800   0.21023777     0.0010112197   0.0010112197   0              0              934.38263      1499.1482      369.41355      0             -23.618817      0              0              9.5720915      9.598463       0.2            91.877365    
      1900   0.21570418     0.00091264415  0.00091264415  0              0              11.235306      115.51081     -93.180985      0              98.164094      0              0              9.5711327      9.6039763      0.2            91.920932    
      2000   0.16024825     0.0010930989   0.0010930989   0              0             -43.38702       175.44455     -262.41366      0              389.81322      0              0              9.5701739      9.6048267      0.2            91.919863    
      2100   0.30253231     0.0011039743   0.0011039743   0              0              369.14         400.58788      337.55073      0             -699.93795      0              0              9.5692152      9.6063473      0.2            91.925205    
      2200   0.28062296     0.00073132111  0.00073132111  0              0             -7.5611926      163.06981     -178.33106      0             -27.009196      0              0              9.5682564      9.6070258      0.2            91.922486    
      2300   0.20068345     0.00079032711  0.00079032711  0              0              0.37695108     252.58476     -252.01488      0              88.911648      0              0              9.5672977      9.6095053      0.2            91.936998    
      2400   0.17769696     0.00093864491  0.00093864491  0              0              853.62686      1392.9203      314.17246      0              272.04534      0              0              9.5663389      9.6070929      0.2            91.904707    
      2500   0.16997174     0.00098014659  0.00098014659  0              0              527.16193      971.43471      82.715028      0              457.74213      0              0              9.5653801      9.6084657      0.2            91.908627    
      2600   0.2170049      0.0010128721   0.0010128721   0              0              551.7829       1511.42       -408.04725      0             -145.38039      0              0              9.5644214      9.6149739      0.2            91.961662    
      2700   0.19045056     0.0010123862   0.0010123862   0              0              367.05231      581.27009      152.67383      0             -278.7112       0              0              9.5634626      9.6100741      0.2            91.905584    
      2800   0.20986005     0.0011121313   0.0011121313   0              0              545.11278      777.42068      312.63845      0              395.7165       0              0              9.5625039      9.6030026      0.2            91.828749    
      2900   0.1894466      0.0010431608   0.0010431608   0              0              321.55931      1011.4472     -368.51124      0              431.46742      0              0              9.5615451      9.610009       0.2            91.886534    
      3000   0.15527595     0.00084940054  0.00084940054  0              0              580.03188      1248.2146     -88.355521      0              372.56428      0              0              9.5605863      9.6083862      0.2            91.861806    
      3100   0.21747036     0.00094754229  0.00094754229  0              0              581.27165      653.29623      509.0653       0             -18.886145      0              0              9.5596276      9.6115629      0.2            91.882962    
      3200   0.17326534     0.0010922998   0.0010922998   0              0              10.552001      129.36804     -108.44138      0             -138.54804      0              0              9.5586688      9.618307       0.2            91.938211    
      3300   0.15517621     0.0010354315   0.0010354315   0              0             -149.05027      141.23302     -439.51887      0             -194.08201      0              0              9.55771        9.6198543      0.2            91.943778    
      3400   0.20499267     0.00083604356  0.00083604356  0              0              470.8641       591.33087      350.20452      0             -517.7283       0              0              9.5567513      9.6178425      0.2            91.915329    
      3500   0.250332       0.00095705092  0.00095705092  0              0              691.44007      1184.148       198.52849      0             -115.97044      0              0              9.5557925      9.6197143      0.2            91.923994    
      3600   0.20636835     0.0012491492   0.0012491492   0              0             -223.77989      74.832512     -522.58591      0             -50.360375      0              0              9.5548338      9.6214378      0.2            91.931238    
      3700   0.22764059     0.0010821515   0.0010821515   0              0              525.21088      986.6001       63.655401      0             -290.32949      0              0              9.553875       9.6204082      0.2            91.912177    
      3800   0.2467125      0.00096736072  0.00096736072  0              0              587.1999       623.78239      550.46676      0              446.91258      0              0              9.5529162      9.6143471      0.2            91.845053    
      3900   0.19047319     0.0010714707   0.0010714707   0              0             -121.63422      238.54728     -482.01263      0             -355.30602      0              0              9.5519575      9.6148464      0.2            91.840604    
      4000   0.18872836     0.0012311611   0.0012311611   0              0              155.49058      540.81379     -230.0332       0             -558.43615      0              0              9.5509987      9.6234689      0.2            91.913739    
      4100   0.23802776     0.0010912471   0.0010912471   0              0              952.20016      1222.7091      681.48396      0              280.85219      0              0              9.55004        9.614443       0.2            91.818315    
      4200   0.17335948     0.0010073347   0.0010073347   0              0              386.37517      1082.4575     -309.89107      0              199.08705      0              0              9.5490812      9.6208124      0.2            91.869919    
      4300   0.18708638     0.00075078283  0.00075078283  0              0              297.75573      1149.6296     -554.27353      0             -311.05961      0              0              9.5481224      9.6334061      0.2            91.980941    
      4400   0.1709775      0.00090738277  0.00090738277  0              0              989.15739      1261.9089      716.23204      0              43.533639      0              0              9.5471637      9.6200786      0.2            91.844465    
      4500   0.25561061     0.00078479698  0.00078479698  0              0             -25.489507     -110.33214      59.174329      0              686.42335      0              0              9.5462049      9.625654       0.2            91.888466    
      4600   0.25780216     0.0011635632   0.0011635632   0              0             -763.52316     -650.20431     -877.02219      0             -1241.88        0              0              9.5452462      9.6351807      0.2            91.970171    
      4700   0.24462688     0.00099439452  0.00099439452  0              0              657.20591      860.61629      453.5909       0             -581.18392      0              0              9.5442874      9.6285191      0.2            91.897354    
      4800   0.21259538     0.0010800854   0.0010800854   0              0              775.69969      890.57676      660.63092      0             -238.11353      0              0              9.5433286      9.6206696      0.2            91.813211    
      4900   0.196297       0.0011030987   0.0011030987   0              0             -155.82654      717.882       -1029.6652      0              283.10616      0              0              9.5423699      9.6303235      0.2            91.896109    
      5000   0.24008844     0.00091506835  0.00091506835  0              0              1075.3011      2131.5737      18.865351      0             -523.25881      0              0              9.5414111      9.6241866      0.2            91.828321    
      5100   0.25837063     0.0010762329   0.0010762329   0              0              1421.7856      1699.4743      1143.9228      0              229.03561      0              0              9.5404523      9.6126052      0.2            91.708602    
      5200   0.179436       0.00088150946  0.00088150946  0              0              339.70756      1268.4674     -589.22394      0              295.74021      0              0              9.5394936      9.6178654      0.2            91.749565    
      5300   0.23506491     0.0008196747   0.0008196747   0              0              42.513405      941.08433     -856.23786      0              177.07491      0              0              9.5385348      9.6243604      0.2            91.802297    
      5400   0.18664792     0.0011271332   0.0011271332   0              0              1986.4229      2860.9771      1111.6663      0              644.65211      0              0              9.5375761      9.6032171      0.2            91.591413    
      5500   0.24716234     0.00093648061  0.00093648061  0              0              736.24912      1190.319       282.00077      0              327.58627      0              0              9.5366173      9.6128503      0.2            91.674075    
      5600   0.23920608     0.0011478922   0.0011478922   0              0              161.16943      1407.1697     -1085.0205      0              385.94675      0              0              9.5356585      9.6181779      0.2            91.715661    
      5700   0.18888155     0.0011180566   0.0011180566   0              0              1281.7994      2225.8533      337.53472      0             -533.4159       0              0              9.5346998      9.6156469      0.2            91.682306    
      5800   0.22807558     0.0010563364   0.0010563364   0              0              1020.341       1195.2639      845.25613      0              81.461432      0              0              9.533741       9.617671       0.2            91.692384    
      5900   0.16718645     0.0010642495   0.0010642495   0              0             -70.274651      615.20409     -755.94494      0              462.44588      0              0              9.5327823      9.6320918      0.2            91.820634    
      6000   0.23079605     0.0011748655   0.0011748655   0              0              564.20077      1519.8928     -391.70485      0             -436.90431      0              0              9.5318235      9.6340625      0.2            91.830183    
      6100   0.20486638     0.0011484841   0.0011484841   0              0              1453.0138      2133.6904      772.13802      0             -129.31472      0              0              9.5308647      9.6171211      0.2            91.65948     
      6200   0.24816807     0.0010427124   0.0010427124   0              0              666.3488       1395.0535     -62.508773      0              169.70599      0              0              9.529906       9.6315336      0.2            91.78761     
      6300   0.22096219     0.0009836027   0.0009836027   0              0             -177.3104       155.35489     -510.14284      0              560.97135      0              0              9.5289472      9.6327269      0.2            91.789746    
      6400   0.25839083     0.0012439572   0.0012439572   0              0              771.61637      1252.1596      290.85037      0             -104.82441      0              0              9.5279884      9.6300591      0.2            91.755092    
      6500   0.24850784     0.00095455227  0.00095455227  0              0              609.04857      903.90119      313.9875       0              596.70325      0              0              9.5270297      9.6254825      0.2            91.702258    
      6600   0.23600755     0.0010769733   0.0010769733   0              0             -268.17858     -154.13701     -382.41681      0              440.67619      0              0              9.5260709      9.6292981      0.2            91.729377    
      6700   0.16704352     0.0011370668   0.0011370668   0              0              638.47192      1295.083      -18.32321       0              907.40988      0              0              9.5251122      9.6229374      0.2            91.659558    
      6800   0.1775521      0.001028228    0.001028228    0              0              693.87029      1046.2688      341.27053      0             -232.48023      0              0              9.5241534      9.6254182      0.2            91.673959    
      6900   0.26882444     0.00094013412  0.00094013412  0              0              392.17288      811.56011     -27.418094      0              78.434458      0              0              9.5231946      9.6250159      0.2            91.6609      
      7000   0.17842406     0.0011026692   0.0011026692   0              0             -247.6598      -190.96124     -304.50221      0              60.473972      0              0              9.5222359      9.6223371      0.2            91.626163    
      7100   0.22752169     0.0011197318   0.0011197318   0              0              533.99428      898.59192      169.20629      0              254.59636      0              0              9.5212771      9.6223148      0.2            91.616726    
      7200   0.20589648     0.0010859366   0.0010859366   0              0              428.20901      495.78405      360.47542      0             -63.584855      0              0              9.5203184      9.6257441      0.2            91.640148    
      7300   0.17872251     0.0010456228   0.0010456228   0              0              85.044961      441.34321     -271.43006      0              422.61842      0              0              9.5193596      9.6282903      0.2            91.655158    
      7400   0.23396671     0.00094348335  0.00094348335  0              0             -312.10283     -382.37718     -241.99653      0              56.064279      0              0              9.5184008      9.6309053      0.2            91.670817    
      7500   0.19671662     0.0010629236   0.0010629236   0              0              468.72094      610.45501      326.7931       0              96.137093      0              0              9.5174421      9.6318312      0.2            91.670396    
      7600   0.2162678      0.0011102719   0.0011102719   0              0              408.90689      707.93086      109.68664      0              304.7803       0              0              9.5164833      9.6291361      0.2            91.635513    
      7700   0.22310359     0.0011289298   0.0011289298   0              0              185.35589      735.59399     -365.04576      0             -260.57876      0              0              9.5155245      9.6320723      0.2            91.65422     
      7800   0.20594999     0.0011997454   0.0011997454   0              0              679.74945      1376.3296     -17.009199      0             -81.534372      0              0              9.5145658      9.630707       0.2            91.631995    
      7900   0.20439521     0.0011347787   0.0011347787   0              0              621.90362      865.80464      377.80428      0              19.932657      0              0              9.513607       9.6332284      0.2            91.646749    
      8000   0.23622829     0.0011006845   0.0011006845   0              0              53.986691      364.1982      -256.42294      0              289.59298      0              0              9.5126483      9.6381693      0.2            91.684515    
      8100   0.20333485     0.0010768668   0.0010768668   0              0             -8.4747712      305.64911     -322.76159      0              118.67427      0              0              9.5116895      9.6523712      0.2            91.810358    
      8200   0.22497951     0.0010787495   0.0010787495   0              0              862.79251      1310.6565      414.78204      0              462.37296      0              0              9.5107307      9.6419613      0.2            91.702098    
      8300   0.15745108     0.0010300767   0.0010300767   0              0              195.16576      187.90599      202.21255      0              271.19136      0              0              9.509772       9.6438063      0.2            91.710399    
      8400   0.22181545     0.0011746728   0.0011746728   0              0              346.88185      1131.896      -438.328        0              78.262037      0              0              9.5088132      9.6494552      0.2            91.754868    
      8500   0.23469925     0.0010744034   0.0010744034   0              0              477.44762      1092.8945     -138.20419      0              564.70899      0              0              9.5078545      9.6490139      0.2            91.74142     
      8600   0.23857502     0.001276639    0.001276639    0              0              1060.1902      1562.9886      557.20012      0             -597.4169       0              0              9.5068957      9.6526959      0.2            91.767173    
      8700   0.24425707     0.0010346854   0.0010346854   0              0              338.65007      613.08965      64.02014       0             -261.11189      0              0              9.5059369      9.6490965      0.2            91.723703    
      8800   0.22993187     0.0010742757   0.0010742757   0              0              59.154362      593.61328     -475.45338      0              171.24391      0              0              9.5049782      9.657165       0.2            91.791142    
      8900   0.24778144     0.00094054054  0.00094054054  0              0              892.04082      1692.0369      91.862146      0              196.43762      0              0              9.5040194      9.6573876      0.2            91.783999    
      9000   0.16290137     0.0010957011   0.0010957011   0              0              1459.8858      2259.2306      660.38406      0              389.06158      0              0              9.5030607      9.6476175      0.2            91.681894    
      9100   0.21723467     0.00099701766  0.00099701766  0              0              391.42742      1022.9733     -240.29104      0             -253.75888      0              0              9.5021019      9.6581808      0.2            91.773018    
      9200   0.20365499     0.0011267622   0.0011267622   0              0              59.804815      748.0951      -628.63466      0              704.30157      0              0              9.5011431      9.6526525      0.2            91.711233    
      9300   0.16730011     0.001158584    0.001158584    0              0              1015.6489      1591.4366      439.70772      0              240.83072      0              0              9.5001844      9.6517757      0.2            91.693649    
      9400   0.25262527     0.0011958483   0.0011958483   0              0              1275.0686      1947.4111      602.54468      0              68.831812      0              0              9.4992256      9.6519533      0.2            91.686082    
      9500   0.1993711      0.0011727822   0.0011727822   0              0              39.855339      579.25375     -499.71479      0              934.05251      0              0              9.4982668      9.6591668      0.2            91.745344    
      9600   0.2432171      0.00087523112  0.00087523112  0              0              968.46701      2369.0763     -432.30523      0              186.7005       0              0              9.4973081      9.6571421      0.2            91.716853    
      9700   0.22548224     0.0011145404   0.0011145404   0              0              1137.8463      1750.9332      524.6041       0              851.28986      0              0              9.4963493      9.6424226      0.2            91.567814    
      9800   0.21014642     0.0011371479   0.0011371479   0              0              1049.6789      1774.7737      324.38936      0              1469.4664      0              0              9.4953906      9.6428489      0.2            91.562616    
      9900   0.2170438      0.0012814893   0.0012814893   0              0              287.21159      1293.8862     -719.6459       0              1125.5446      0              0              9.4944318      9.6452731      0.2            91.576388    
     10000   0.19701854     0.0011883332   0.0011883332   0              0              765.04592      1787.277      -257.38238      0              524.51782      0              0              9.493473       9.6477013      0.2            91.590192    
     10100   0.20220354     0.0012425806   0.0012425806   0              0              1307.3347      1729.5877      884.92382      0              1244.6921      0              0              9.4925143      9.6461446      0.2            91.566165    
     10200   0.24456699     0.0010900822   0.0010900822   0              0              945.13638      1653.5232      236.60026      0              161.88035      0              0              9.4915555      9.6532957      0.2            91.624792    
     10300   0.2130002      0.001297524    0.001297524    0              0             -347.34075      465.82348     -1160.6832      0              260.57955      0              0              9.4905968      9.6699014      0.2            91.773135    
     10400   0.16363153     0.0012003799   0.0012003799   0              0              544.17615      1200.2335     -112.09207      0             -53.626333      0              0              9.489638       9.6663569      0.2            91.730228    
     10500   0.24004985     0.0012697644   0.0012697644   0              0              1729.7681      1929.6884      1529.6366      0              99.94832       0              0              9.4886792      9.648544       0.2            91.551939    
     10600   0.21209771     0.0012520092   0.0012520092   0              0              310.55932      776.15381     -155.20623      0              526.94742      0              0              9.4877205      9.6566831      0.2            91.61991     
     10700   0.20903678     0.0012266981   0.0012266981   0              0             -633.50535      361.71349     -1628.8604      0             -165.70146      0              0              9.4867617      9.6715926      0.2            91.752094    
     10800   0.24408687     0.0012422845   0.0012422845   0              0              1215.7737      1988.0391      443.31805      0             -464.35935      0              0              9.4858029      9.6554127      0.2            91.589342    
     10900   0.20249312     0.0013411984   0.0013411984   0              0              1772.3022      1789.3049      1755.1363      0              160.80137      0              0              9.4848442      9.6608795      0.2            91.631937    
     11000   0.20553364     0.0012417395   0.0012417395   0              0             -349.70549     -169.10891     -530.50045      0             -572.20369      0              0              9.4838854      9.6733053      0.2            91.740519    
     11100   0.17341269     0.0013222916   0.0013222916   0              0             -1092.1275     -541.63908     -1642.8197      0              411.6009       0              0              9.4829267      9.678318       0.2            91.77878     
     11200   0.20369944     0.0012661823   0.0012661823   0              0              1354.3985      2004.3972      704.20907      0              707.51875      0              0              9.4819679      9.66382        0.2            91.632031    
     11300   0.20492193     0.0012893136   0.0012893136   0              0              1373.6721      1337.8414      1409.3265      0             -83.093218      0              0              9.4810091      9.6598575      0.2            91.585198    
     11400   0.19035397     0.0012265664   0.0012265664   0              0              351.83271      1333.8561     -630.3606       0              182.57121      0              0              9.4800504      9.6653355      0.2            91.627867    
     11500   0.21477961     0.0011603037   0.0011603037   0              0             -567.14624     -97.274059     -1037.2029      0              405.72109      0              0              9.4790916      9.6722693      0.2            91.684327    
     11600   0.19022863     0.0012686322   0.0012686322   0              0              397.56228      173.02202      621.90636      0              518.41356      0              0              9.4781329      9.657388       0.2            91.534007    
     11700   0.21929866     0.0014458024   0.0014458024   0              0              1017.8499      1300.4611      735.06173      0              514.59694      0              0              9.4771741      9.6604234      0.2            91.553515    
     11800   0.27045938     0.0012715096   0.0012715096   0              0              215.789        929.31391     -497.9088       0              389.68474      0              0              9.4762153      9.6622728      0.2            91.561778    
     11900   0.23149215     0.0011816088   0.0011816088   0              0              219.36316      1035.6178     -597.07685      0              517.86031      0              0              9.4752566      9.6628886      0.2            91.558349    
     12000   0.21280761     0.0013707004   0.0013707004   0              0              950.56616      1402.8454      498.12395      0              489.45384      0              0              9.4742978      9.6509838      0.2            91.436294    
     12100   0.19334782     0.0012743754   0.0012743754   0              0              588.31598      731.67821      444.76678      0             -20.898324      0              0              9.473339       9.6551072      0.2            91.466104    
     12200   0.18458711     0.0012005363   0.0012005363   0              0              449.02346      1337.5942     -439.76329      0             -93.955544      0              0              9.4723803      9.6517861      0.2            91.425389    
     12300   0.21123741     0.0010950805   0.0010950805   0              0              73.107906      544.46643     -398.43343      0              326.217        0              0              9.4714215      9.6649773      0.2            91.541074    
     12400   0.17177859     0.00109358     0.00109358     0              0              786.22956      1230.3094      341.97607      0             -87.111231      0              0              9.4704628      9.6567514      0.2            91.453905    
     12500   0.17504232     0.0012545216   0.0012545216   0              0              398.81456      512.64963      284.76359      0              318.74749      0              0              9.469504       9.662409       0.2            91.498221    
     12600   0.15118509     0.0014473231   0.0014473231   0              0              424.28962      1148.7184     -300.35066      0              180.46216      0              0              9.4685452      9.6695469      0.2            91.556543    
     12700   0.22395474     0.0013782944   0.0013782944   0              0              144.37563      731.10363     -442.54086      0              305.8164       0              0              9.4675865      9.6638998      0.2            91.493807    
     12800   0.21633091     0.0013866214   0.0013866214   0              0              450.21156      650.15157      250.08841      0              328.7562       0              0              9.4666277      9.6604157      0.2            91.451559    
     12900   0.19869303     0.001203835    0.001203835    0              0              319.77127      92.088115      547.24964      0              688.45134      0              0              9.465669       9.6506992      0.2            91.350324    
     13000   0.21148737     0.0013631407   0.0013631407   0              0              429.79339      1118.9697     -259.53294      0              265.94172      0              0              9.4647102      9.6516933      0.2            91.35048     
     13100   0.16273341     0.001354687    0.001354687    0              0              68.127313      546.32332     -410.2481       0             -386.42828      0              0              9.4637514      9.6611012      0.2            91.430261    
     13200   0.22808385     0.001537313    0.001537313    0              0              851.47474      1475.3134      227.45777      0             -105.19994      0              0              9.4627927      9.6634247      0.2            91.442985    
     13300   0.20514285     0.0012291591   0.0012291591   0              0              566.13267      722.85784      409.1822       0              195.53751      0              0              9.4618339      9.6572437      0.2            91.375236    
     13400   0.16620984     0.0012888453   0.0012888453   0              0              144.02601      537.9378      -250.09547      0              84.392078      0              0              9.4608751      9.6605929      0.2            91.397663    
     13500   0.19234169     0.0012645056   0.0012645056   0              0             -197.9409       3.1701898     -399.27849      0              320.71972      0              0              9.4599164      9.6551826      0.2            91.33722     
     13600   0.24245074     0.0013013748   0.0013013748   0              0              823.06062      1282.8861      363.05515      0              238.92392      0              0              9.4589576      9.6473265      0.2            91.253653    
     13700   0.20188676     0.0012658246   0.0012658246   0              0              867.43548      1370.1817      364.51457      0              615.49757      0              0              9.4579989      9.6470535      0.2            91.241821    
     13800   0.24067879     0.0012458149   0.0012458149   0              0              520.58288      1318.5291     -277.54413      0              198.39173      0              0              9.4570401      9.652121       0.2            91.280495    
     13900   0.23047902     0.0012459725   0.0012459725   0              0              7.4978927      361.52858     -346.69906      0              183.48587      0              0              9.4560813      9.6529314      0.2            91.278904    
     14000   0.21623711     0.0013391701   0.0013391701   0              0              1072.0631      1889.0504      254.8692       0              325.02756      0              0              9.4551226      9.6462887      0.2            91.206842    
     14100   0.21790979     0.0014431463   0.0014431463   0              0              1142.4936      1837.0067      447.81985      0              81.768874      0              0              9.4541638      9.6406828      0.2            91.144595    
     14200   0.25463072     0.0012830691   0.0012830691   0              0              969.00316      2275.5148     -337.65872      0              537.67595      0              0              9.4532051      9.6478108      0.2            91.202734    
     14300   0.20642322     0.0014908769   0.0014908769   0              0              264.61235      1071.8724     -542.81928      0              487.48709      0              0              9.4522463      9.6526318      0.2            91.239053    
     14400   0.16660983     0.0010944364   0.0010944364   0              0              1009.8552      1768.195       251.33611      0              247.50395      0              0              9.4512875      9.6528559      0.2            91.231916    
     14500   0.17286326     0.0011571236   0.0011571236   0              0              885.66928      1209.696       561.43146      0              471.93096      0              0              9.4503288      9.6513196      0.2            91.208143    
     14600   0.1844367      0.0012239106   0.0012239106   0              0              884.97086      1817.1464     -47.371656      0              30.377876      0              0              9.44937        9.6537864      0.2            91.2222      
     14700   0.16063282     0.0012741707   0.0012741707   0              0              129.4884       885.33311     -626.58271      0              6.4534033      0              0              9.4484113      9.6639219      0.2            91.308708    
     14800   0.20346234     0.0011863032   0.0011863032   0              0             -72.729526     -146.76831      1.1520858      0              555.94637      0              0              9.4474525      9.6585235      0.2            91.248442    
     14900   0.22451365     0.0012578598   0.0012578598   0              0              1152.1978      1647.0043      657.23635      0              276.51211      0              0              9.4464937      9.6555989      0.2            91.211554    
     15000   0.19986172     0.0013281595   0.0013281595   0              0              696.60815      1193.7935      199.25442      0             -201.2304       0              0              9.445535       9.6657876      0.2            91.298535    
     15100   0.23178153     0.0011906259   0.0011906259   0              0              226.77534      1192.0348     -738.67466      0             -212.49938      0              0              9.4445762      9.6655222      0.2            91.286761    
     15200   0.19459364     0.0010699661   0.0010699661   0              0              575.66521      1609.2811     -458.11024      0             -571.26543      0              0              9.4436174      9.6658973      0.2            91.281036    
     15300   0.22300936     0.0014667758   0.0014667758   0              0              1555.2423      2219.6485      890.65016      0             -31.567197      0              0              9.4426587      9.6600981      0.2            91.217009    
     15400   0.20391265     0.0012932269   0.0012932269   0              0              1143.1316      1712.6826      573.35075      0             -442.45354      0              0              9.4416999      9.6630882      0.2            91.235979    
     15500   0.16587623     0.0012030477   0.0012030477   0              0              247.46121      1269.2199     -774.46946      0              487.82564      0              0              9.4407412      9.6696305      0.2            91.288479    
     15600   0.16736936     0.0013269693   0.0013269693   0              0             -178.926        548.84098     -906.87681      0              1089.1584      0              0              9.4397824      9.6767979      0.2            91.346866    
     15700   0.22586605     0.0010363971   0.0010363971   0              0              1437.4682      2132.0662      742.68701      0              727.11487      0              0              9.4388236      9.6605334      0.2            91.184071    
     15800   0.19596976     0.0014418767   0.0014418767   0              0              1486.2947      1912.9393      1059.4854      0              1089.7977      0              0              9.4378649      9.6579253      0.2            91.150194    
     15900   0.19624499     0.0013444364   0.0013444364   0              0              203.5816       955.5016      -548.4973       0              677.90345      0              0              9.4369061      9.6736561      0.2            91.289384    
     16000   0.22258175     0.001201811    0.001201811    0              0             -654.64024     -32.021734     -1277.43        0              408.9929       0              0              9.4359474      9.6857382      0.2            91.394116    
     16100   0.12851155     0.0012106827   0.0012106827   0              0              686.59894      1082.9199      290.11093      0              63.276946      0              0              9.4349886      9.6795824      0.2            91.32675     
     16200   0.15943921     0.0013397617   0.0013397617   0              0              1688.387       1979.4936      1397.0813      0              661.1359       0              0              9.4340298      9.6676849      0.2            91.205228    
     16300   0.17159006     0.0012165792   0.0012165792   0              0              964.2796       1856.6871      71.640284      0              359.72948      0              0              9.4330711      9.6771672      0.2            91.285406    
     16400   0.20099968     0.0012879418   0.0012879418   0              0             -686.16343     -70.946006     -1301.5667      0              404.00583      0              0              9.4321123      9.6833134      0.2            91.334099    
     16500   0.24905665     0.0013405698   0.0013405698   0              0              721.50164      1978.6163     -535.79239      0              900.38556      0              0              9.4311535      9.6841744      0.2            91.332936    
     16600   0.22055269     0.0011507567   0.0011507567   0              0              969.16743      790.34147      1147.7859      0              969.74489      0              0              9.4301948      9.6734827      0.2            91.222826    
     16700   0.20096891     0.0014000951   0.0014000951   0              0              953.03824      1170.6019      735.27881      0              590.22357      0              0              9.429236       9.6764865      0.2            91.241875    
     16800   0.21357283     0.0012928873   0.0012928873   0              0             -0.37643205     717.28518     -718.23247      0              1044.8458      0              0              9.4282773      9.6850672      0.2            91.313499    
     16900   0.19639508     0.0016473105   0.0016473105   0              0             -92.222388      726.07227     -910.66903      0              1529.1639      0              0              9.4273185      9.6904361      0.2            91.354828    
     17000   0.21149719     0.0013448561   0.0013448561   0              0              370.23565      523.95827      216.38349      0              1214.1098      0              0              9.4263597      9.6795399      0.2            91.242826    
     17100   0.22264577     0.0012403289   0.0012403289   0              0              703.59867      642.94394      764.07017      0              978.37735      0              0              9.425401       9.6811562      0.2            91.248779    
     17200   0.21983651     0.0012463703   0.0012463703   0              0              769.19428      1541.6158     -3.4151281      0              1028.0772      0              0              9.4244422      9.6826549      0.2            91.253621    
     17300   0.18335017     0.0012977899   0.0012977899   0              0              256.04859      1034.5764     -522.66737      0              706.9643       0              0              9.4234835      9.6880898      0.2            91.295554    
     17400   0.23076277     0.0012013083   0.0012013083   0              0              245.00133      726.30886     -236.51261      0              602.91758      0              0              9.4225247      9.6941071      0.2            91.342964    
     17500   0.22191392     0.0012316318   0.0012316318   0              0              426.69038      723.37421      129.79926      0              1162.1071      0              0              9.4215659      9.6920798      0.2            91.314569    
     17600   0.2332823      0.001237588    0.001237588    0              0              740.96203      1185.419       296.34222      0              954.30729      0              0              9.4206072      9.6855033      0.2            91.243322    
     17700   0.17659197     0.0011481634   0.0011481634   0              0              279.7994       649.51484     -90.099839      0              352.13969      0              0              9.4196484      9.6876987      0.2            91.254715    
     17800   0.2449422      0.0014027891   0.0014027891   0              0              45.121858      450.87875     -360.82043      0              671.60379      0              0              9.4186896      9.6918149      0.2            91.284196    
     17900   0.19825884     0.0011284907   0.0011284907   0              0              365.18526      780.81727     -50.613489      0              1050.1473      0              0              9.4177309      9.6988042      0.2            91.340728    
     18000   0.18257605     0.0013218243   0.0013218243   0              0              451.09579      596.47235      305.55774      0              872.99329      0              0              9.4167721      9.7025083      0.2            91.36631     
     18100   0.18847442     0.0011887484   0.0011887484   0              0              129.29892     -15.61151       274.02859      0              155.79709      0              0              9.4158134      9.6960221      0.2            91.295934    
     18200   0.22364799     0.0011648445   0.0011648445   0              0              134.70177      448.24009     -179.0329       0              698.59883      0              0              9.4148546      9.704392       0.2            91.36544     
     18300   0.16471127     0.0014003023   0.0014003023   0              0              8.3153602      345.74966     -329.30273      0              52.077635      0              0              9.4138958      9.700282       0.2            91.317444    
     18400   0.23059668     0.0011791536   0.0011791536   0              0              221.23078      302.91812      139.37009      0              439.67395      0              0              9.4129371      9.6988999      0.2            91.295135    
     18500   0.18503638     0.0015258516   0.0015258516   0              0              589.61291      722.93175      456.11264      0             -39.757907      0              0              9.4119783      9.7067143      0.2            91.359384    
     18600   0.19260347     0.0012873877   0.0012873877   0              0              635.14811      1075.2425      194.86003      0              15.420021      0              0              9.4110196      9.7078577      0.2            91.360839    
     18700   0.17106276     0.0014573123   0.0014573123   0              0             -55.721612      274.59934     -386.25681      0              208.61601      0              0              9.4100608      9.7141403      0.2            91.410651    
     18800   0.16025092     0.0013008698   0.0013008698   0              0             -359.20568     -338.78842     -379.78239      0              630.60946      0              0              9.409102       9.7077465      0.2            91.341178    
     18900   0.18655201     0.0012990874   0.0012990874   0              0              362.13698      596.32414      127.77371      0              728.56383      0              0              9.4081433      9.7013436      0.2            91.271631    
     19000   0.1862678      0.0016051459   0.0016051459   0              0              613.83917      689.16138      538.3452       0              572.53209      0              0              9.4071845      9.6900008      0.2            91.155625    
     19100   0.252979       0.001362935    0.001362935    0              0              625.63078      1123.0496      128.02322      0             -149.4892       0              0              9.4062258      9.6987171      0.2            91.228322    
     19200   0.20450656     0.0015514968   0.0015514968   0              0              81.310713      736.39945     -573.9876       0             -515.40853      0              0              9.405267       9.7000295      0.2            91.231367    
     19300   0.16569225     0.0012441974   0.0012441974   0              0              379.69797      1183.6124     -424.39093      0             -336.40621      0              0              9.4043082      9.6978963      0.2            91.202006    
     19400   0.22200688     0.0013347019   0.0013347019   0              0              493.90794      665.27104      322.37248      0              377.10753      0              0              9.4033495      9.703544       0.2            91.245815    
     19500   0.21345958     0.0013640406   0.0013640406   0              0              858.71921      1112.7222      604.54216      0             -163.70361      0              0              9.4023907      9.700866       0.2            91.211332    
     19600   0.19919115     0.00124132     0.00124132     0              0              788.21585      1628.9182     -52.698262      0             -278.2529       0              0              9.4014319      9.7062232      0.2            91.252397    
     19700   0.27727912     0.0013639497   0.0013639497   0              0             -737.11797     -705.1677      -769.23929      0              666.89195      0              0              9.4004732      9.7050854      0.2            91.232395    
     19800   0.22437075     0.0012859707   0.0012859707   0              0              175.48459      630.9221      -280.12216      0              293.94115      0              0              9.3995144      9.7010027      0.2            91.184714    
     19900   0.21232559     0.0014493068   0.0014493068   0              0              872.51506      1165.0071      579.85116      0              163.78932      0              0              9.3985557      9.6896104      0.2            91.068343    
     20000   0.26956097     0.0015010714   0.0015010714   0              0              481.42199      349.61454      613.01084      0              1044.3444      0              0              9.3975969      9.6884609      0.2            91.04825     
     20100   0.21934625     0.0017930753   0.0017930753   0              0              667.41357      1635.1603     -300.52589      0              63.069325      0              0              9.3966381      9.6941071      0.2            91.092017    
     20200   0.22558241     0.0017727113   0.0017727113   0              0             -50.844308      636.82284     -738.71345      0              865.86147      0              0              9.3956794      9.691419       0.2            91.057465    
     20300   0.18156833     0.0014924088   0.0014924088   0              0              392.31209      960.58008     -176.11678      0              465.70491      0              0              9.3947206      9.6951493      0.2            91.083219    
     20400   0.17722289     0.0013911857   0.0013911857   0              0              1107.9232      1506.2075      709.46771      0              208.98824      0              0              9.3937619      9.6911288      0.2            91.036156    
     20500   0.19836651     0.001321839    0.001321839    0              0              855.14893      1147.7353      562.34925      0              619.14499      0              0              9.3928031      9.6977547      0.2            91.0891      
     20600   0.2418184      0.0012989616   0.0012989616   0              0              567.18811      1481.1098     -346.93888      0              644.57171      0              0              9.3918443      9.7057737      0.2            91.155116    
     20700   0.16005051     0.0015713387   0.0015713387   0              0             -188.73932      483.11309     -860.75907      0              578.98132      0              0              9.3908856      9.7035473      0.2            91.124903    
     20800   0.20729147     0.0016655541   0.0016655541   0              0              601.86903      1504.5427     -300.99489      0              169.76147      0              0              9.3899268      9.7006862      0.2            91.088733    
     20900   0.22767488     0.0015466145   0.0015466145   0              0              1511.8331      2304.9152      718.57688      0              327.55251      0              0              9.388968       9.6962162      0.2            91.037464    
     21000   0.23294922     0.0016112833   0.0016112833   0              0              1826.2681      2744.7496      907.60507      0             -331.68247      0              0              9.3880093      9.698877       0.2            91.053147    
     21100   0.27166192     0.0013895811   0.0013895811   0              0              518.44293      1333.1735     -296.44417      0             -147.71417      0              0              9.3870505      9.7109068      0.2            91.156772    
     21200   0.21966901     0.0015164708   0.0015164708   0              0              794.96836      2845.3039     -1255.5285      0              215.4854       0              0              9.3860918      9.7192724      0.2            91.225983    
     21300   0.19224511     0.0014209177   0.0014209177   0              0              357.7032       1474.8916     -759.68755      0              312.29115      0              0              9.385133       9.7229087      0.2            91.250792    
     21400   0.22574612     0.0018042684   0.0018042684   0              0              2043.5244      3158.6504      928.21391      0             -101.1519       0              0              9.3841742      9.7072785      0.2            91.094792    
     21500   0.25331755     0.001394896    0.001394896    0              0              1656.0523      1687.8026      1624.109       0              181.53538      0              0              9.3832155      9.710312       0.2            91.11395     
     21600   0.22152229     0.0015430363   0.0015430363   0              0              418.62215      424.30445      412.76615      0              542.12099      0              0              9.3822567      9.7210957      0.2            91.205815    
     21700   0.25435718     0.0013945294   0.0013945294   0              0             -157.16816      1074.2008     -1388.7168      0             -264.24316      0              0              9.381298       9.7288511      0.2            91.269251    
     21800   0.22646163     0.0014114844   0.0014114844   0              0             -555.6187       423.75768     -1535.1524      0              498.51976      0              0              9.3803392      9.7354464      0.2            91.321789    
     21900   0.22293887     0.0013386723   0.0013386723   0              0              443.57731      840.83817      46.127441      0              562.10449      0              0              9.3793804      9.7250695      0.2            91.215126    
     22000   0.23172065     0.0014374431   0.0014374431   0              0              1629.6576      1785.1302      1473.9725      0              334.4247       0              0              9.3784217      9.714776       0.2            91.109265    
     22100   0.20857342     0.0014365836   0.0014365836   0              0              1191.4421      1419.7679      962.91155      0              867.99511      0              0              9.3774629      9.721238       0.2            91.160549    
     22200   0.1986839      0.00163584     0.00163584     0              0              604.4029       1605.2493     -396.60194      0              377.55499      0              0              9.3765041      9.7408203      0.2            91.334842    
     22300   0.2196218      0.0015589569   0.0015589569   0              0             -475.99886      36.274888     -988.44734      0             -409.48469      0              0              9.3755454      9.749935       0.2            91.410958    
     22400   0.20459298     0.0011885914   0.0011885914   0              0              236.09101      903.60357     -431.60738      0             -199.72043      0              0              9.3745866      9.7498947      0.2            91.401232    
     22500   0.2043177      0.0012585975   0.0012585975   0              0              788.80361      1219.1878      358.21092      0              219.94289      0              0              9.3736279      9.7465205      0.2            91.360256    
     22600   0.19064559     0.0014970389   0.0014970389   0              0              1017.0191      1409.9934      623.88557      0              572.30796      0              0              9.3726691      9.7419471      0.2            91.308047    
     22700   0.16357495     0.0014703098   0.0014703098   0              0              755.07321      1332.0462      177.92411      0              545.75314      0              0              9.3717103      9.743103       0.2            91.309539    
     22800   0.15006496     0.0013443397   0.0013443397   0              0              782.2428       2028.0839     -463.79251      0              553.89156      0              0              9.3707516      9.7465115      0.2            91.332138    
     22900   0.16816867     0.0014316867   0.0014316867   0              0              708.55915      2024.5561     -607.58386      0              530.28244      0              0              9.3697928      9.7448252      0.2            91.306993    
     23000   0.22782698     0.0015684207   0.0015684207   0              0              858.52567      1794.0848     -77.186704      0              514.25294      0              0              9.3688341      9.7408851      0.2            91.260736    
     23100   0.20503872     0.0014689779   0.0014689779   0              0              1083.5304      1720.1922      446.66061      0              171.34025      0              0              9.3678753      9.7435393      0.2            91.276261    
     23200   0.22710032     0.0014701587   0.0014701587   0              0              956.92735      1316.9567      596.72401      0              347.84411      0              0              9.3669165      9.7478758      0.2            91.307539    
     23300   0.22183454     0.0012547103   0.0012547103   0              0              677.27557      1215.4047      138.94251      0              88.705682      0              0              9.3659578      9.7483654      0.2            91.302779    
     23400   0.23098838     0.0015721211   0.0015721211   0              0             -68.082898      352.72378     -489.05086      0              656.53537      0              0              9.364999       9.7565244      0.2            91.369842    
     23500   0.19282506     0.0014358093   0.0014358093   0              0             -148.88852      215.46986     -513.42027      0              908.48412      0              0              9.3640403      9.7517506      0.2            91.315785    
     23600   0.2517358      0.0011734839   0.0011734839   0              0              166.1577       420.14826     -88.053493      0              46.562305      0              0              9.3630815      9.7567093      0.2            91.352864    
     23700   0.19421545     0.0014561365   0.0014561365   0              0              753.43744      1098.1214      408.59834      0              45.249459      0              0              9.3621227      9.7552089      0.2            91.329463    
     23800   0.16071171     0.0015365121   0.0015365121   0              0              594.26279      699.52982      488.78062      0             -390.26951      0              0              9.361164       9.7503523      0.2            91.274647    
     23900   0.1863555      0.0013954022   0.0013954022   0              0              230.0032       412.80432      47.038146      0              404.10403      0              0              9.3602052      9.7519914      0.2            91.280641    
     24000   0.19499942     0.0013439942   0.0013439942   0              0              123.5035       748.53826     -501.70532      0             -402.51976      0              0              9.3592464      9.7445892      0.2            91.202011    
     24100   0.18524459     0.0015337173   0.0015337173   0              0              356.14331      1389.0422     -676.93657      0             -346.95034      0              0              9.3582877      9.7513216      0.2            91.255673    
     24200   0.23933349     0.0014735494   0.0014735494   0              0              342.2272       736.21155     -51.886587      0              109.44003      0              0              9.3573289      9.7503994      0.2            91.237694    
     24300   0.20492773     0.0015860337   0.0015860337   0              0              976.11758      1283.6324      668.41151      0              333.14637      0              0              9.3563702      9.7394103      0.2            91.125528    
     24400   0.18579101     0.0015213876   0.0015213876   0              0              829.12022      877.75889      780.30548      0              99.084842      0              0              9.3554114      9.7458068      0.2            91.176032    
     24500   0.14402288     0.0013155172   0.0013155172   0              0              403.87442      831.429       -23.903401      0              665.53476      0              0              9.3544526      9.7463721      0.2            91.171976    
     24600   0.18827001     0.0012880661   0.0012880661   0              0             -348.63748     -11.731131     -685.75869      0              53.283807      0              0              9.3534939      9.7519519      0.2            91.214822    
     24700   0.19595121     0.0014571937   0.0014571937   0              0              46.237594      810.88399     -718.56755      0              206.90364      0              0              9.3525351      9.7464968      0.2            91.154453    
     24800   0.21851126     0.001662709    0.001662709    0              0              532.35381      1007.4127      57.126664      0              251.14901      0              0              9.3515764      9.7547726      0.2            91.222501    
     24900   0.14731128     0.0017011085   0.0017011085   0              0              1025.9018      1286.7344      764.89342      0              287.61157      0              0              9.3506176      9.7481466      0.2            91.151191    
     25000   0.18791562     0.0014583282   0.0014583282   0              0              1373.876       1962.8564      784.73408      0              189.19802      0              0              9.3496588      9.7470227      0.2            91.131337    
     25100   0.29303335     0.0013669665   0.0013669665   0              0              355.36943      734.20201     -23.64228       0              175.48326      0              0              9.3487001      9.7533769      0.2            91.181395    
     25200   0.1939839      0.0015276178   0.0015276178   0              0             -446.2475      -119.76029     -772.94228      0              509.17512      0              0              9.3477413      9.7503195      0.2            91.143464    
     25300   0.24097893     0.0015222504   0.0015222504   0              0             -171.99613      380.2032      -724.38915      0             -96.834899      0              0              9.3467825      9.7545194      0.2            91.173372    
     25400   0.17923157     0.001335985    0.001335985    0              0              823.15568      1655.4125     -9.2949123      0             -69.498552      0              0              9.3458238      9.751289       0.2            91.133829    
     25500   0.21470088     0.0013720499   0.0013720499   0              0              1283.6863      1937.506       629.72113      0              723.85317      0              0              9.344865       9.7541618      0.2            91.151326    
     25600   0.23573897     0.0013559296   0.0013559296   0              0              1105.6421      1610.7893      600.32534      0              13.893527      0              0              9.3439063      9.7482634      0.2            91.086859    
     25700   0.20226803     0.0015958573   0.0015958573   0              0              227.84444      331.42526      124.05071      0              557.25028      0              0              9.3429475      9.7528395      0.2            91.120267    
     25800   0.20017702     0.0015790902   0.0015790902   0              0             -441.26078     -455.44772     -427.24157      0              789.01678      0              0              9.3419887      9.7577281      0.2            91.156586    
     25900   0.18844172     0.0016032708   0.0016032708   0              0             -536.39784     -497.6517      -575.30439      0              180.59265      0              0              9.34103        9.7617092      0.2            91.184419    
     26000   0.19962703     0.0016999444   0.0016999444   0              0              73.526555      426.93613     -280.07965      0              635.83562      0              0              9.3400712      9.7564977      0.2            91.126384    
     26100   0.23729337     0.0014517295   0.0014517295   0              0              426.6688       542.32015      310.84548      0              37.849816      0              0              9.3391125      9.753472       0.2            91.088772    
     26200   0.19709154     0.0012853547   0.0012853547   0              0              305.60124      16.642647      594.40249      0              1187.1183      0              0              9.3381537      9.7541266      0.2            91.085534    
     26300   0.20875483     0.0017953848   0.0017953848   0              0              66.071604     -148.39844      280.36005      0              711.40763      0              0              9.3371949      9.7553407      0.2            91.087518    
     26400   0.22559933     0.0014542243   0.0014542243   0              0              368.25487      975.01586     -238.72863      0              202.63333      0              0              9.3362362      9.7601627      0.2            91.123184    
     26500   0.22122332     0.0014625529   0.0014625529   0              0             -530.80638     -523.11913     -538.63612      0              723.0666       0              0              9.3352774      9.7621063      0.2            91.131971    
     26600   0.23545252     0.0013771778   0.0013771778   0              0              44.247549      497.19535     -408.88961      0              577.9089       0              0              9.3343186      9.7640538      0.2            91.140789    
     26700   0.19683614     0.0013738208   0.0013738208   0              0              745.57643      1375.8078      115.16805      0              201.7584       0              0              9.3333599      9.7652126      0.2            91.142244    
     26800   0.23309792     0.0015059257   0.0015059257   0              0              1415.2857      2412.1955      418.19851      0              984.50561      0              0              9.3324011      9.7523887      0.2            91.013203    
     26900   0.18471845     0.001367922    0.001367922    0              0              909.62925      1464.398       354.64612      0              1035.9207      0              0              9.3314424      9.7503908      0.2            90.98521     
     27000   0.19149452     0.0013012825   0.0013012825   0              0              439.40914      841.39196      37.212697      0              575.758        0              0              9.3304836      9.7588095      0.2            91.054412    
     27100   0.16787251     0.001309315    0.001309315    0              0              528.33046      1317.428      -260.95282      0              815.97905      0              0              9.3295248      9.7528545      0.2            90.989498    
     27200   0.18290636     0.001269419    0.001269419    0              0              70.290054      426.95308     -286.51784      0              1163.0503      0              0              9.3285661      9.7563976      0.2            91.013199    
     27300   0.17995911     0.001483234    0.001483234    0              0              306.04122      755.92417     -144.05188      0              128.62412      0              0              9.3276073      9.7548649      0.2            90.989549    
     27400   0.1960149      0.001629737    0.001629737    0              0              204.01856      329.89973      77.986504      0              704.42785      0              0              9.3266486      9.7615555      0.2            91.042597    
     27500   0.25851318     0.0012069439   0.0012069439   0              0              33.425203     -145.79058      212.47095      0              1013.1805      0              0              9.3256898      9.7570352      0.2            90.991083    
     27600   0.21334338     0.0015624868   0.0015624868   0              0             -103.04704     -333.1798       126.88074      0              609.24575      0              0              9.324731       9.7582744      0.2            90.993285    
     27700   0.22229962     0.0013142761   0.0013142761   0              0              248.01728      584.985       -89.152855      0              410.87882      0              0              9.3237723      9.761501       0.2            91.014012    
     27800   0.21442511     0.001500367    0.001500367    0              0             -284.91873     -354.72251     -215.29584      0              1029.5197      0              0              9.3228135      9.7572776      0.2            90.96528     
     27900   0.23136154     0.0016446214   0.0016446214   0              0              206.52236      580.57896     -167.71888      0              871.9704       0              0              9.3218547      9.7519017      0.2            90.905811    
[...]
     42900   0.17713812     0.0011327466   0.0011327466   0              0              1216.0434      1700.1855      731.7075       0              100.67351      0              0              9.1780405      9.7979551      0.2            89.926029    
     43000   0.19931724     0.001267974    0.001267974    0              0              1420.3212      2027.5279      812.90791      0              1034.9545      0              0              9.1770818      9.8003799      0.2            89.938888    
     43100   0.20216249     0.0013931606   0.0013931606   0              0              1270.4262      1859.1043      681.57841      0              195.80663      0              0              9.176123       9.8002587      0.2            89.928379    
     43200   0.20723051     0.0013182567   0.0013182567   0              0              987.19177      1544.7084      429.49737      0              1375.4118      0              0              9.1751643      9.8034491      0.2            89.948256    
     43300   0.239445       0.0011087487   0.0011087487   0              0              330.4334       501.57639      159.09883      0              849.74296      0              0              9.1742055      9.801283       0.2            89.918984    
     43400   0.19063643     0.0012758265   0.0012758265   0              0              177.5866       538.40815     -183.43575      0              21.584546      0              0              9.1732467      9.8125819      0.2            90.013235    
     43500   0.19863167     0.0011072176   0.0011072176   0              0              301.10014      1043.6153     -441.58665      0              556.38003      0              0              9.172288       9.8187637      0.2            90.060528    
     43600   0.19637668     0.0015335873   0.0015335873   0              0              338.92315      1355.7179     -678.05889      0              1280.2569      0              0              9.1713292      9.8207154      0.2            90.069014    
     43700   0.25227682     0.0013086808   0.0013086808   0              0              109.70304      854.34727     -635.14945      0              685.77561      0              0              9.1703705      9.8191578      0.2            90.045315    
     43800   0.24479197     0.001357032    0.001357032    0              0             -59.774615      435.78127     -555.5287       0              993.25779      0              0              9.1694117      9.8145254      0.2            89.993424    
     43900   0.20029059     0.0014928734   0.0014928734   0              0              157.07961      777.60819     -463.62511      0              127.66167      0              0              9.1684529      9.8160926      0.2            89.998383    
     44000   0.1807266      0.0012686098   0.0012686098   0              0              236.4539       583.53202     -110.78255      0              179.46643      0              0              9.1674942      9.8165334      0.2            89.993013    
     44100   0.23202608     0.0016221287   0.0016221287   0              0              889.64504      1558.0933      220.99876      0              170.77392      0              0              9.1665354      9.8113084      0.2            89.935706    
     44200   0.19322628     0.0015156145   0.0015156145   0              0              954.36056      1360.0508      548.50092      0              906.66515      0              0              9.1655766      9.8172686      0.2            89.980928    
     44300   0.1878369      0.0013257797   0.0013257797   0              0              536.46421      370.14952      702.59897      0              524.78485      0              0              9.1646179      9.8206101      0.2            90.002139    
     44400   0.23555179     0.0014192304   0.0014192304   0              0              1304.4675      1787.1117      821.64028      0             -106.7013       0              0              9.1636591      9.8184552      0.2            89.972977    
     44500   0.19052701     0.0012959834   0.0012959834   0              0              1274.4746      1825.856       722.92208      0              349.79303      0              0              9.1627004      9.811494       0.2            89.89978     
     44600   0.19635581     0.0013031787   0.0013031787   0              0              959.68026      1355.1564      563.99022      0              930.14005      0              0              9.1617416      9.8104723      0.2            89.881012    
     44700   0.23402232     0.0013059301   0.0013059301   0              0              195.78851      215.4162       175.99369      0              900.56252      0              0              9.1607828      9.810893       0.2            89.87546     
     44800   0.19963353     0.0012273806   0.0012273806   0              0             -172.87518     -276.30691     -69.63117       0              692.1237       0              0              9.1598241      9.8152013      0.2            89.905517    
     44900   0.19904505     0.0014570103   0.0014570103   0              0              120.98353      712.01298     -470.2321       0              977.67351      0              0              9.1588653      9.8092349      0.2            89.841461    
     45000   0.21896447     0.0013256027   0.0013256027   0              0             -94.586413      591.42097     -780.80032      0              94.948519      0              0              9.1579066      9.8121494      0.2            89.858747    
     45100   0.17783635     0.0012390822   0.0012390822   0              0              100.86406      1106.2461     -904.72331      0              237.00739      0              0              9.1569478      9.8055437      0.2            89.788852    
     45200   0.21204495     0.001242113    0.001242113    0              0              137.79918      1089.4277     -814.00992      0              322.6333       0              0              9.155989       9.8145031      0.2            89.861482    
     45300   0.2171684      0.0013365626   0.0013365626   0              0             -97.183481      323.42647     -517.96195      0              919.40824      0              0              9.1550303      9.8042011      0.2            89.757758    
     45400   0.21632165     0.0016436279   0.0016436279   0              0              99.802324      346.64674     -147.25444      0              546.91146      0              0              9.1540715      9.8011593      0.2            89.720513    
     45500   0.17706811     0.0013421977   0.0013421977   0              0              286.64092      376.14001      196.95971      0              790.24871      0              0              9.1531127      9.7961087      0.2            89.664888    
     45600   0.19603883     0.0012337582   0.0012337582   0              0              687.08624      832.26267      541.71959      0              507.22585      0              0              9.152154       9.7990027      0.2            89.681982    
     45700   0.17119386     0.0013530262   0.0013530262   0              0              342.6352      -102.96375      788.04763      0              1347.1766      0              0              9.1511952      9.7918562      0.2            89.607188    
     45800   0.18495726     0.0013026718   0.0013026718   0              0              424.42513     -99.040748      947.68389      0              509.44531      0              0              9.1502365      9.8004755      0.2            89.676669    
     45900   0.213475       0.0013027918   0.0013027918   0              0              383.30688      25.457614      740.95909      0              1089.7793      0              0              9.1492777      9.8033506      0.2            89.693577    
     46000   0.17069782     0.0013928638   0.0013928638   0              0              922.32306      1288.0357      556.42208      0              740.71332      0              0              9.1483189      9.8066817      0.2            89.714652    
     46100   0.24613108     0.0011979886   0.0011979886   0              0              601.58014      908.92752      294.06309      0              167.65191      0              0              9.1473602      9.8099869      0.2            89.735484    
     46200   0.20405574     0.0012317597   0.0012317597   0              0              60.180043      114.32697      5.8089048      0              329.0462       0              0              9.1464014      9.8140476      0.2            89.763218    
     46300   0.22322092     0.0011330955   0.0011330955   0              0             -319.88333     -302.78857     -337.14498      0             -182.36241      0              0              9.1454427      9.812942       0.2            89.743698    
     46400   0.22047012     0.0015158353   0.0015158353   0              0              726.03284      2016.459      -564.59625      0             -27.804813      0              0              9.1444839      9.809914       0.2            89.7066      
     46500   0.18545857     0.0012803248   0.0012803248   0              0             -355.28654     -127.44856     -583.28203      0              373.84148      0              0              9.1435251      9.8071339      0.2            89.671775    
     46600   0.23101426     0.0013901562   0.0013901562   0              0              149.18222      903.5737      -605.38611      0              127.78019      0              0              9.1425664      9.8056987      0.2            89.649251    
     46700   0.18253646     0.0013800177   0.0013800177   0              0             -77.92704       240.07538     -396.09468      0              143.91739      0              0              9.1416076      9.8054038      0.2            89.637154    
     46800   0.20841036     0.0013981382   0.0013981382   0              0              332.33711      868.80516     -204.309        0              61.585266      0              0              9.1406488      9.8045682      0.2            89.620115    
     46900   0.20427764     0.0012331953   0.0012331953   0              0              247.1256       508.18546     -14.148958      0              118.84326      0              0              9.1396901      9.7982131      0.2            89.552631    
     47000   0.22325158     0.0011418161   0.0011418161   0              0              367.39493      470.15695      264.48568      0             -42.325408      0              0              9.1387313      9.7889259      0.2            89.458364    
     47100   0.19136364     0.0012981044   0.0012981044   0              0              516.7993       675.98792      357.39489      0             -149.82309      0              0              9.1377726      9.8016554      0.2            89.565298    
     47200   0.16712243     0.0011049354   0.0011049354   0              0              125.26126     -142.58071      392.91524      0              559.56589      0              0              9.1368138      9.7950802      0.2            89.495824    
     47300   0.16935195     0.0013779667   0.0013779667   0              0             -20.586823     -455.99964      414.64163      0              779.09127      0              0              9.135855       9.7896505      0.2            89.436828    
     47400   0.19778922     0.0013072603   0.0013072603   0              0              422.88133      513.4386       332.1488       0              70.749109      0              0              9.1348963      9.7976925      0.2            89.500904    
     47500   0.167833       0.0010160529   0.0010160529   0              0              652.46608      1061.1511      243.60872      0              744.0268       0              0              9.1339375      9.793909       0.2            89.456953    
     47600   0.21407029     0.0013144002   0.0013144002   0              0             -27.22717      -83.312491      28.659124      0              649.50475      0              0              9.1329788      9.7937169      0.2            89.445808    
     47700   0.1942318      0.0012030173   0.0012030173   0              0              684.16443      1389.536      -21.398599      0              489.54959      0              0              9.13202        9.7917504      0.2            89.418461    
     47800   0.16806973     0.0010465712   0.0010465712   0              0              583.36469      1375.3952     -208.84343      0              600.29785      0              0              9.1310612      9.7930751      0.2            89.421169    
     47900   0.26399563     0.0012670986   0.0012670986   0              0              47.616048      469.29993     -374.26904      0              156.3576       0              0              9.1301025      9.8001861      0.2            89.476704    
     48000   0.1711734      0.0015853318   0.0015853318   0              0              285.51902      957.12531     -386.2602       0             -219.58176      0              0              9.1291437      9.7946475      0.2            89.416745    
     48100   0.17435345     0.0015985822   0.0015985822   0              0              343.85222      997.12998     -309.60686      0              105.47856      0              0              9.128185       9.7891228      0.2            89.356923    
     48200   0.16092811     0.0012163941   0.0012163941   0              0             -177.71608     -172.10896     -183.46657      0              344.98105      0              0              9.1272262      9.7948476      0.2            89.39979     
     48300   0.26638697     0.0012370433   0.0012370433   0              0              282.70671      584.32631     -19.087688      0              679.95207      0              0              9.1262674      9.7978287      0.2            89.417605    
     48400   0.18272035     0.0012931556   0.0012931556   0              0              266.76911      366.33701      167.00444      0             -96.268678      0              0              9.1253087      9.8020698      0.2            89.446913    
     48500   0.24805628     0.0014018173   0.0014018173   0              0              564.47782      939.64402      189.09324      0             -25.182744      0              0              9.1243499      9.7959295      0.2            89.381489    
     48600   0.2444122      0.0011814838   0.0011814838   0              0              502.39563      715.35252      289.26431      0             -541.17227      0              0              9.1233911      9.8024578      0.2            89.431657    
     48700   0.22665965     0.0011554691   0.0011554691   0              0              687.16292      1057.6497      316.47345      0              188.1896       0              0              9.1224324      9.800496       0.2            89.404362    
     48800   0.20845319     0.0012482823   0.0012482823   0              0              680.04089      1035.9103      324.00771      0              64.121745      0              0              9.1214736      9.7981552      0.2            89.373614    
     48900   0.19525452     0.0012368348   0.0012368348   0              0              222.98915      72.469296      373.29123      0              917.89754      0              0              9.1205149      9.7912453      0.2            89.301199    
     49000   0.25644184     0.0013088012   0.0013088012   0              0              120.32448     -144.90982      385.37583      0              1043.9252      0              0              9.1195561      9.7965862      0.2            89.340518    
     49100   0.19841011     0.0013455967   0.0013455967   0              0              97.275865     -67.662644      262.01214      0              496.63853      0              0              9.1185973      9.8020058      0.2            89.380544    
     49200   0.20977792     0.0014884067   0.0014884067   0              0              563.84584      997.31314      130.20904      0             -466.48062      0              0              9.1176386      9.807363       0.2            89.419991    
     49300   0.21273159     0.0011650237   0.0011650237   0              0             -257.23791     -518.63567      3.9628393      0              171.40516      0              0              9.1166798      9.8104618      0.2            89.438839    
     49400   0.18661608     0.0012714091   0.0012714091   0              0              410.02991      912.7913      -92.920482      0             -548.87124      0              0              9.1157211      9.8167827      0.2            89.487052    
     49500   0.24161287     0.0012216945   0.0012216945   0              0              9.4543427      148.86328     -130.19067      0             -1025.1765      0              0              9.1147623      9.8185082      0.2            89.493368    
     49600   0.25651156     0.0014018165   0.0014018165   0              0              50.492344      410.74836     -309.98111      0             -83.637783      0              0              9.1138035      9.8152072      0.2            89.45387     
     49700   0.18590021     0.0013492266   0.0013492266   0              0             -282.95795     -130.5466      -435.59973      0              680.70752      0              0              9.1128448      9.8137515      0.2            89.431194    
     49800   0.25319243     0.0013891493   0.0013891493   0              0              365.161        1246.8287     -516.69256      0              260.52662      0              0              9.111886       9.8117437      0.2            89.40349     
     49900   0.23036534     0.0014929111   0.0014929111   0              0             -62.621917      470.8162      -596.27268      0              502.41341      0              0              9.1109272      9.8120035      0.2            89.39645     
     50000   0.23904165     0.0013233114   0.0013233114   0              0             -184.43227      206.43012     -575.45009      0              1034.7852      0              0              9.1099685      9.8157053      0.2            89.420766    
     50100   0.2252002      0.0012959816   0.0012959816   0              0             -419.13571     -390.62142     -447.81419      0              1023.5834      0              0              9.1090097      9.8118369      0.2            89.376118    
     50181   0.1871112      0.0010331667   0.0010331667   0              0              656.84452      757.44443      556.02985      0              557.86738      0              0              9.1082331      9.8154546      0.2            89.401448    
Loop time of 1.09966 on 1 procs for 50000 steps with 60 atoms

Performance: 39284.925 ns/day, 0.001 hours/ns, 45468.663 timesteps/s
98.9% CPU use with 1 MPI tasks x 1 OpenMP threads

MPI task timing breakdown:
Section |  min time  |  avg time  |  max time  |%varavg| %total
---------------------------------------------------------------
Pair    | 0          | 0          | 0          |   0.0 |  0.00
Bond    | 0.15866    | 0.15866    | 0.15866    |   0.0 | 14.43
Neigh   | 0          | 0          | 0          |   0.0 |  0.00
Comm    | 0.36882    | 0.36882    | 0.36882    |   0.0 | 33.54
Output  | 0.0069317  | 0.0069317  | 0.0069317  |   0.0 |  0.63
Modify  | 0.53815    | 0.53815    | 0.53815    |   0.0 | 48.94
Other   |            | 0.0271     |            |       |  2.46

Nlocal:             60 ave          60 max          60 min
Histogram: 1 0 0 0 0 0 0 0 0 0
Nghost:            511 ave         511 max         511 min
Histogram: 1 0 0 0 0 0 0 0 0 0
Neighs:              0 ave           0 max           0 min
Histogram: 1 0 0 0 0 0 0 0 0 0

Total # of neighbors = 0
Ave neighs/atom = 0
Ave special neighs/atom = 22.533333
Neighbor list builds = 0
Dangerous builds = 0


Total wall time: 0:00:01
