LAMMPS data file.

     60 atoms
    129 bonds
      0 angles
      0 dihedrals
      0 impropers
      1 atom types
    129 bond types
      0 angle types
      0 dihedral types
      0 improper types
  -4.793806   4.793806 xlo xhi
  -4.793806   4.793806 ylo yhi
  -0.100000   0.100000 zlo zhi

Masses # ['atom_id', 'mass']

1 10000.0

Atoms # ['atomID', 'moleculeID', 'atomType', 'charge', 'x', 'y', 'z']

      1      1      1   0.000000  -2.776995  -4.076826   0.000000
     14      1      1   0.000000   0.847029  -4.116679   0.000000
     29      1      1   0.000000   2.813523  -3.762122   0.000000
     42      1      1   0.000000   2.004450  -4.495646   0.000000
     23      1      1   0.000000   2.821367   4.613964   0.000000
     39      1      1   0.000000   4.384923  -4.680418   0.000000
     19      1      1   0.000000  -4.213704  -3.800378   0.000000
      5      1      1   0.000000   1.137238  -2.387213   0.000000
     46      1      1   0.000000   1.915498  -3.413215   0.000000
     34      1      1   0.000000   4.033789  -3.625854   0.000000
     47      1      1   0.000000  -3.989742  -1.949087   0.000000
     22      1      1   0.000000  -3.290385  -2.806941   0.000000
     32      1      1   0.000000  -2.139326  -2.623086   0.000000
     35      1      1   0.000000  -1.519650  -1.576854   0.000000
     11      1      1   0.000000  -0.373137  -2.170750   0.000000
     48      1      1   0.000000   2.034348  -1.546742   0.000000
     53      1      1   0.000000   2.288058  -2.527681   0.000000
     10      1      1   0.000000   4.553744  -2.396141   0.000000
     15      1      1   0.000000   4.474872  -1.016230   0.000000
     59      1      1   0.000000  -4.016454  -1.130449   0.000000
     16      1      1   0.000000  -2.810271  -1.422066   0.000000
     45      1      1   0.000000  -1.935588  -0.674123   0.000000
     36      1      1   0.000000  -0.737220  -0.808583   0.000000
      7      1      1   0.000000   0.678286  -1.084409   0.000000
      6      1      1   0.000000   3.244817  -1.860598   0.000000
     37      1      1   0.000000  -3.881835  -0.085472   0.000000
     60      1      1   0.000000  -2.685297  -0.184731   0.000000
      2      1      1   0.000000  -1.524110   0.522415   0.000000
     75      1      1   0.000000   1.188279  -0.074367   0.000000
     62      1      1   0.000000   1.798337  -0.896104   0.000000
      9      1      1   0.000000   2.185399   0.071676   0.000000
     25      1      1   0.000000   4.540327   0.263236   0.000000
      4      1      1   0.000000  -2.986643   0.918429   0.000000
     28      1      1   0.000000  -1.851257   1.907636   0.000000
     13      1      1   0.000000  -0.436637   1.508303   0.000000
     20      1      1   0.000000   0.925153   0.960674   0.000000
     24      1      1   0.000000   2.654785   1.321843   0.000000
     56      1      1   0.000000   3.305781   0.560781   0.000000
     67      1      1   0.000000  -4.523358   1.054722   0.000000
     21      1      1   0.000000  -4.015391   1.821022   0.000000
     52      1      1   0.000000  -2.901734   2.163430   0.000000
     40      1      1   0.000000  -2.420401   2.879185   0.000000
     31      1      1   0.000000  -0.624589   2.803814   0.000000
     18      1      1   0.000000   0.689903   2.436982   0.000000
     12      1      1   0.000000   4.060868   1.480461   0.000000
     80      1      1   0.000000  -4.306114   3.482361   0.000000
     30      1      1   0.000000  -3.609490   3.007132   0.000000
     79      1      1   0.000000  -1.582001   2.794296   0.000000
     50      1      1   0.000000   0.241294   3.498568   0.000000
     55      1      1   0.000000   1.337604   3.486541   0.000000
     43      1      1   0.000000   1.705485   2.724579   0.000000
     77      1      1   0.000000   2.337925   2.565205   0.000000
     58      1      1   0.000000   3.109937   2.286397   0.000000
     41      1      1   0.000000   3.434035   3.148748   0.000000
     17      1      1   0.000000   4.549283   2.757834   0.000000
     51      1      1   0.000000   3.697918   4.003012   0.000000
      8      1      1   0.000000  -3.837110   4.377885   0.000000
      3      1      1   0.000000  -0.414907   4.568421   0.000000
     49      1      1   0.000000   0.697762   4.112432   0.000000
     33      1      1   0.000000   2.499198   3.455248   0.000000

Bond Coeffs # ['bondID', 'bondCoeff', 'd']

      1   2.350838   0.652212
      2   0.543645   1.356258
      3   0.493617   1.423328
      4   1.484261   0.820814
      5   0.752890   1.152483
      6   0.823121   1.102220
      7   0.823121   1.102220
      8   0.528369   1.375724
      9   1.247554   0.895304
     10   0.536926   1.364717
     11   0.838465   1.092088
     12   0.560777   1.335381
     13   0.816318   1.106803
     14   0.533904   1.368574
     15   0.831644   1.096557
     16   0.437517   1.511829
     17   0.583541   1.309074
     18   0.900819   1.053613
     19   0.519745   1.387090
     20   0.519745   1.387090
     21   0.467168   1.463064
     22   0.517926   1.389524
     23   0.775159   1.135807
     24   0.676315   1.215977
     25   0.775159   1.135807
     26   0.735085   1.166356
     27   0.875961   1.068459
     28   0.775482   1.135571
     29   0.599806   1.291203
     30   0.775482   1.135571
     31   0.897569   1.055519
     32   1.178289   0.921243
     33   0.879099   1.066550
     34   1.033205   0.983800
     35   0.809455   1.111485
     36   0.691584   1.202479
     37   0.634846   1.255063
     38   0.984661   1.007759
     39   0.755008   1.150865
     40   0.639493   1.250496
     41   0.435572   1.515200
     42   0.706231   1.189944
     43   0.624604   1.265312
     44   0.775210   1.135770
     45   0.609266   1.281140
     46   0.661726   1.229308
     47   0.674200   1.217884
     48   0.584276   1.308250
     49   0.499443   1.415002
     50   0.532999   1.369736
     51   0.415402   1.551550
     52   1.164599   0.926642
     53   0.503004   1.409985
     54   0.415402   1.551550
     55   1.490577   0.819073
     56   0.560995   1.335121
     57   0.599196   1.291860
     58   1.222216   0.904536
     59   0.824571   1.101250
     60   0.669129   1.222489
     61   1.116272   0.946488
     62   0.920458   1.042313
     63   0.788748   1.125981
     64   1.116272   0.946488
     65   0.524127   1.381280
     66   1.250935   0.894093
     67   1.406219   0.843283
     68   0.552735   1.345059
     69   0.663298   1.227851
     70   1.344111   0.862546
     71   0.996997   1.001505
     72   1.708843   0.764978
     73   0.781080   1.131494
     74   1.183089   0.919372
     75   0.859212   1.078822
     76   0.570593   1.323844
     77   0.570593   1.323844
     78   0.611065   1.279253
     79   0.942438   1.030086
     80   0.942438   1.030086
     81   0.841724   1.089972
     82   0.841724   1.089972
     83   1.012220   0.993945
     84   1.109940   0.949183
     85   1.083458   0.960714
     86   1.109940   0.949183
     87   0.657422   1.233326
     88   0.716029   1.181775
     89   0.978541   1.010905
     90   0.603003   1.287776
     91   0.811401   1.110152
     92   0.447462   1.494934
     93   0.691364   1.202670
     94   0.429537   1.525808
     95   1.248224   0.895063
     96   0.547531   1.351436
     97   0.547531   1.351436
     98   0.735977   1.165649
     99   0.675735   1.216499
    100   0.675735   1.216499
    101   0.646573   1.243630
    102   0.415453   1.551454
    103   0.415453   1.551454
    104   1.077371   0.963424
    105   1.090835   0.957460
    106   0.643582   1.246516
    107   0.469906   1.458796
    108   0.469906   1.458796
    109   0.855482   1.081172
    110   0.523457   1.382163
    111   0.499976   1.414248
    112   2.087551   0.692120
    113   0.464173   1.467777
    114   0.743983   1.159361
    115   0.480830   1.442130
    116   0.449238   1.491976
    117   1.396799   0.846122
    118   0.591834   1.299870
    119   1.408211   0.842687
    120   0.699153   1.195953
    121   0.469145   1.459978
    122   0.642163   1.247893
    123   0.636289   1.253640
    124   0.876774   1.067963
    125   0.420426   1.542251
    126   0.649385   1.240934
    127   0.764660   1.143578
    128   0.464129   1.467846
    129   0.534693   1.367564

Bonds # ['ID', 'type', 'atom1', 'atom2']

         1         1        43        77
         2         2        19        22
         3         3         2        28
         4         4        77        58
         5         5        18        50
         6         6        15        59
         7         7        59        15
         8         8        32        16
         9         9        45        60
        10        10        31        18
        11        11        29        42
        12        12         9        24
        13        13        47        22
        14        14         4        21
        15        15        35        36
        16        16        11         7
        17        17        13        31
        18        18        59        37
        19        19        21        17
        20        20        17        21
        21        21         1        19
        22        22        30         8
        23        23        47        10
        24        24        32        35
        25        25        10        47
        26        26        53         6
        27        27        23        51
        28        28        39        51
        29        29        35        11
        30        30        51        39
        31        31        18        43
        32        32        58        41
        33        33        24        58
        34        34        41        33
        35        35        39        34
        36        36         3        49
        37        37        50         3
        38        38        75         9
        39        39        16        45
        40        40        48         6
        41        41         2         4
        42        42        56        12
        43        43        45         2
        44        44         7        62
        45        45        15        25
        46        46         5        48
        47        47        14        42
        48        48        25        12
        49        49        24        12
        50        50         1        22
        51        51         1         8
        52        52        28        79
        53        53        11        36
        54        54         8         1
        55        55        47        59
        56        56        34        10
        57        57        47        16
        58        58        77        33
        59        59        52        30
        60        60         9        56
        61        61        42        23
        62        62        62         9
        63        63        28        40
        64        64        23        42
        65        65         5         7
        66        66        41        51
        67        67        80        30
        68        68        37         4
        69        69        29        34
        70        70        52        40
        71        71        24        56
        72        72        50        49
        73        73         7        75
        74        74        67        21
        75        75        43        33
        76        76        39        19
        77        77        19        39
        78        78        14        46
        79        79        80        17
        80        80        17        80
        81        81        67        12
        82        82        12        67
        83        83        35        45
        84        84        25        67
        85        85        46        53
        86        86        67        25
        87        87        18        55
        88        88        41        17
        89        89        80         8
        90        90         5        46
        91        91        31        50
        92        92        20        18
        93        93        23        33
        94        94         5        11
        95        95        55        49
        96        96        19        34
        97        97        34        19
        98        98        22        32
        99        99        37        25
       100       100        25        37
       101       101        16        60
       102       102        14         3
       103       103         3        14
       104       104        29        46
       105       105        31        79
       106       106        12        58
       107       107        19         8
       108       108         8        19
       109       109        28        52
       110       110        10        15
       111       111        10         6
       112       112        48        62
       113       113        13        20
       114       114         5        53
       115       115        36         7
       116       116        15         6
       117       117        55        43
       118       118        35        16
       119       119        40        79
       120       120        40        30
       121       121        13        18
       122       122         4        52
       123       123        21        30
       124       124        75        20
       125       125         9        20
       126       126        59        16
       127       127        60         4
       128       128         2        13
       129       129        12        17
