ITEM: TIMESTEP
250
ITEM: NUMBER OF ATOMS
53
ITEM: BOX BOUNDS pp pp pp
-4.7944746518738297e+00 4.7944746518738297e+00
-4.7931776550612986e+00 4.7931776550612986e+00
-1.0000000000000001e-01 1.0000000000000001e-01
ITEM: ATOMS id type xs ys zs
24 1 0.251482 0.98089 0.499983
33 1 0.291553 0.118381 0.49937
30 1 0.430272 0.0740457 0.499578
19 1 0.586437 0.0478927 0.500106
40 1 0.190048 0.237975 0.50116
48 1 0.299482 0.232547 0.499725
21 1 0.398144 0.18574 0.500918
28 1 0.51911 0.154929 0.49994
59 1 0.632628 0.153309 0.49962
47 1 0.683562 0.234664 0.49931
32 1 0.267337 0.344084 0.50049
17 1 0.396629 0.333314 0.498995
77 1 0.479964 0.244573 0.500916
44 1 0.506769 0.343564 0.500833
36 1 0.576616 0.267923 0.499861
67 1 0.670325 0.306244 0.499958
1 1 0.13001 0.373674 0.500563
31 1 0.606616 0.411374 0.500238
7 1 0.748727 0.391571 0.499627
70 1 0.233445 0.537501 0.501322
20 1 0.325879 0.48866 0.500749
4 1 0.484902 0.474181 0.498971
49 1 0.670897 0.485058 0.500142
39 1 0.763044 0.524588 0.499245
13 1 0.0049428 0.444027 0.500074
9 1 0.119367 0.545339 0.50003
69 1 0.279549 0.586392 0.499548
8 1 0.390648 0.612675 0.500204
34 1 0.526474 0.661764 0.50084
14 1 0.664995 0.611922 0.499537
26 1 0.802935 0.637 0.500247
27 1 0.979186 0.59071 0.50007
12 1 0.066033 0.685864 0.500271
18 1 0.220325 0.679583 0.500039
22 1 0.349352 0.733757 0.499937
37 1 0.456488 0.764325 0.500213
5 1 0.619763 0.762188 0.499315
68 1 0.728616 0.695262 0.500125
23 1 0.795923 0.769202 0.501103
15 1 0.914436 0.712726 0.499363
45 1 0.00483951 0.788736 0.500312
6 1 0.129622 0.818358 0.500075
61 1 0.388361 0.839314 0.500869
57 1 0.3494 0.934346 0.498999
42 1 0.542181 0.839019 0.500367
51 1 0.444866 0.900013 0.500078
58 1 0.723504 0.845628 0.499537
11 1 0.272893 0.843704 0.500145
76 1 0.340848 0.0337953 0.500211
78 1 0.429244 0.97006 0.49954
80 1 0.489033 0.967275 0.500054
71 1 0.52442 0.915577 0.499391
25 1 0.629061 0.906017 0.501604
ITEM: TIMESTEP
500
ITEM: NUMBER OF ATOMS
53
ITEM: BOX BOUNDS pp pp pp
-4.7932759421089193e+00 4.7932759421089193e+00
-4.7990477264393157e+00 4.7990477264393157e+00
-1.0000000000000001e-01 1.0000000000000001e-01
ITEM: ATOMS id type xs ys zs
24 1 0.251167 0.981862 0.500521
33 1 0.290906 0.118025 0.50087
30 1 0.430928 0.0739351 0.497564
19 1 0.586344 0.0482089 0.50262
40 1 0.190229 0.239196 0.501542
48 1 0.299349 0.232724 0.500371
21 1 0.397856 0.185437 0.501753
28 1 0.518963 0.155353 0.499373
59 1 0.632107 0.15392 0.500383
47 1 0.68317 0.235427 0.499321
32 1 0.267774 0.344329 0.500181
17 1 0.397514 0.333792 0.498166
77 1 0.480079 0.245125 0.501016
44 1 0.507562 0.344854 0.500777
36 1 0.57624 0.268355 0.499295
67 1 0.670293 0.306602 0.501032
1 1 0.130242 0.373925 0.501034
31 1 0.607079 0.411726 0.500152
7 1 0.749184 0.391788 0.499928
70 1 0.233463 0.537968 0.502331
20 1 0.326176 0.488783 0.500128
4 1 0.48556 0.47492 0.498795
49 1 0.671833 0.48546 0.499983
39 1 0.763156 0.525051 0.498577
13 1 0.00467905 0.44341 0.499333
9 1 0.118282 0.545211 0.500615
69 1 0.279965 0.586174 0.498396
8 1 0.390496 0.614057 0.50192
34 1 0.526537 0.662103 0.500533
14 1 0.664405 0.61276 0.498283
26 1 0.802942 0.637171 0.502374
27 1 0.979887 0.58992 0.500103
12 1 0.0657657 0.685141 0.500009
18 1 0.221462 0.679282 0.501783
22 1 0.349935 0.734829 0.498924
37 1 0.457142 0.764808 0.500051
5 1 0.619254 0.762842 0.498925
68 1 0.729097 0.695383 0.500145
23 1 0.795994 0.769097 0.499574
15 1 0.914612 0.711937 0.499335
45 1 0.00507171 0.788052 0.49795
6 1 0.128714 0.817389 0.497206
61 1 0.388505 0.839648 0.501687
57 1 0.349288 0.933919 0.499495
42 1 0.542454 0.839661 0.501316
51 1 0.444609 0.90027 0.500746
58 1 0.723215 0.845245 0.499155
11 1 0.272381 0.844617 0.49972
76 1 0.340361 0.034312 0.502487
78 1 0.428861 0.970135 0.499576
80 1 0.488444 0.967698 0.500953
71 1 0.524466 0.9163 0.499976
25 1 0.629368 0.906965 0.502213
ITEM: TIMESTEP
750
ITEM: NUMBER OF ATOMS
53
ITEM: BOX BOUNDS pp pp pp
-4.7920772323440088e+00 4.7920772323440088e+00
-4.7995437421224336e+00 4.7995437421224336e+00
-1.0000000000000001e-01 1.0000000000000001e-01
ITEM: ATOMS id type xs ys zs
24 1 0.251538 0.981616 0.50138
33 1 0.292722 0.118494 0.500564
30 1 0.43088 0.0742671 0.498356
19 1 0.587553 0.0481655 0.503609
40 1 0.190112 0.238644 0.500272
48 1 0.299735 0.233029 0.500303
21 1 0.398626 0.185397 0.5028
28 1 0.519889 0.155203 0.499036
59 1 0.633793 0.153214 0.500174
47 1 0.684246 0.235296 0.49975
32 1 0.267958 0.343633 0.500614
17 1 0.397377 0.333542 0.497028
77 1 0.480362 0.244781 0.500193
44 1 0.50704 0.344055 0.501295
36 1 0.576927 0.268263 0.49929
67 1 0.670648 0.306787 0.50176
1 1 0.130762 0.374433 0.500301
31 1 0.605971 0.411731 0.500738
7 1 0.748435 0.391783 0.501649
70 1 0.233047 0.538152 0.502264
20 1 0.325501 0.489464 0.499317
4 1 0.484963 0.475209 0.502207
49 1 0.671103 0.48569 0.499673
39 1 0.763772 0.524506 0.499558
13 1 0.00524552 0.444419 0.500724
9 1 0.118628 0.546152 0.500531
69 1 0.279141 0.586992 0.497552
8 1 0.390202 0.613569 0.500461
34 1 0.527167 0.662308 0.500006
14 1 0.665443 0.61298 0.497243
26 1 0.803516 0.637202 0.505185
27 1 0.980861 0.59047 0.497817
12 1 0.0662986 0.685958 0.498391
18 1 0.2212 0.681092 0.499506
22 1 0.350427 0.734812 0.499894
37 1 0.457333 0.765447 0.499573
5 1 0.620128 0.76273 0.498133
68 1 0.729317 0.695834 0.500697
23 1 0.796962 0.769315 0.499971
15 1 0.914724 0.712154 0.499279
45 1 0.00509721 0.788352 0.498368
6 1 0.128937 0.819203 0.497584
61 1 0.388103 0.839604 0.501079
57 1 0.34953 0.934938 0.498888
42 1 0.542604 0.839325 0.501609
51 1 0.44474 0.900179 0.500255
58 1 0.724221 0.845037 0.500132
11 1 0.273068 0.844481 0.500374
76 1 0.341238 0.0336438 0.502685
78 1 0.429896 0.970458 0.49934
80 1 0.489472 0.966785 0.501414
71 1 0.524721 0.915647 0.498588
25 1 0.63031 0.906302 0.505633
ITEM: TIMESTEP
1000
ITEM: NUMBER OF ATOMS
53
ITEM: BOX BOUNDS pp pp pp
-4.7908785225790984e+00 4.7908785225790984e+00
-4.7984848708008716e+00 4.7984848708008716e+00
-1.0000000000000001e-01 1.0000000000000001e-01
ITEM: ATOMS id type xs ys zs
24 1 0.251434 0.981555 0.500978
33 1 0.292706 0.117986 0.49941
30 1 0.430414 0.0748855 0.498555
19 1 0.586942 0.0480847 0.505207
40 1 0.190165 0.238905 0.49837
48 1 0.299509 0.232074 0.500983
21 1 0.399033 0.186399 0.502359
28 1 0.519824 0.155312 0.501063
59 1 0.633423 0.153088 0.501133
47 1 0.683546 0.235225 0.499261
32 1 0.268494 0.343973 0.500621
17 1 0.397218 0.333656 0.497497
77 1 0.480974 0.24566 0.498407
44 1 0.507296 0.344103 0.50009
36 1 0.577442 0.268999 0.498042
67 1 0.671424 0.306529 0.501784
1 1 0.13077 0.374269 0.5018
31 1 0.606487 0.410701 0.501744
7 1 0.748979 0.391921 0.501961
70 1 0.233249 0.538557 0.502338
20 1 0.325701 0.490057 0.497876
4 1 0.484944 0.47422 0.501847
49 1 0.671118 0.48519 0.499905
39 1 0.763422 0.524297 0.498992
13 1 0.00534897 0.443866 0.500731
9 1 0.118918 0.545642 0.501027
69 1 0.279277 0.587292 0.497203
8 1 0.390486 0.613701 0.499674
34 1 0.527003 0.66162 0.498514
14 1 0.665216 0.612732 0.495843
26 1 0.803775 0.636414 0.503765
27 1 0.980014 0.590707 0.495866
12 1 0.0663638 0.685883 0.499126
18 1 0.221477 0.680966 0.499746
22 1 0.350832 0.735181 0.501254
37 1 0.458252 0.765005 0.499766
5 1 0.620634 0.762138 0.499037
68 1 0.729969 0.695328 0.500965
23 1 0.797036 0.768761 0.499714
15 1 0.91547 0.71292 0.499735
45 1 0.00548869 0.78904 0.499115
6 1 0.129713 0.818472 0.49857
61 1 0.389109 0.839362 0.501839
57 1 0.350204 0.934573 0.500914
42 1 0.543801 0.839354 0.502463
51 1 0.444829 0.900537 0.500888
58 1 0.72461 0.844667 0.501586
11 1 0.273155 0.844573 0.500199
76 1 0.341212 0.0335948 0.501579
78 1 0.429896 0.971078 0.498471
80 1 0.489551 0.967522 0.502398
71 1 0.525067 0.915753 0.49867
25 1 0.630416 0.905988 0.504068
ITEM: TIMESTEP
1250
ITEM: NUMBER OF ATOMS
53
ITEM: BOX BOUNDS pp pp pp
-4.7896798128141871e+00 4.7896798128141871e+00
-4.7998103277158188e+00 4.7998103277158188e+00
-1.0000000000000001e-01 1.0000000000000001e-01
ITEM: ATOMS id type xs ys zs
24 1 0.251683 0.982447 0.501602
33 1 0.292243 0.117894 0.49871
30 1 0.430889 0.0754714 0.497394
19 1 0.586449 0.0477269 0.505418
40 1 0.189924 0.239412 0.49791
48 1 0.298999 0.232431 0.502591
21 1 0.398383 0.186426 0.501881
28 1 0.520026 0.15557 0.500972
59 1 0.633495 0.15271 0.501524
47 1 0.68511 0.2342 0.499302
32 1 0.268045 0.343898 0.5018
17 1 0.397644 0.33371 0.496473
77 1 0.481403 0.245223 0.497041
44 1 0.508297 0.344924 0.500822
36 1 0.577847 0.269574 0.498346
67 1 0.672356 0.305296 0.502433
1 1 0.130528 0.375312 0.50322
31 1 0.606819 0.410453 0.499061
7 1 0.748706 0.391455 0.500466
70 1 0.232862 0.537012 0.500598
20 1 0.326068 0.489296 0.497856
4 1 0.485581 0.475041 0.501572
49 1 0.670993 0.484417 0.500922
39 1 0.763281 0.524008 0.499635
13 1 0.00428445 0.444256 0.501385
9 1 0.118621 0.545434 0.501668
69 1 0.278864 0.585744 0.497343
8 1 0.389366 0.614197 0.497808
34 1 0.526498 0.661281 0.499048
14 1 0.665385 0.611607 0.496964
26 1 0.804079 0.635971 0.503458
27 1 0.979913 0.590332 0.497072
12 1 0.0662146 0.685576 0.498346
18 1 0.22089 0.680633 0.499334
22 1 0.350513 0.735194 0.500535
37 1 0.457671 0.764796 0.497618
5 1 0.619796 0.76238 0.500835
68 1 0.729673 0.694536 0.500568
23 1 0.796628 0.767796 0.50033
15 1 0.915403 0.712338 0.498932
45 1 0.00567576 0.788422 0.500229
6 1 0.130049 0.818514 0.499205
61 1 0.389799 0.840516 0.501725
57 1 0.350737 0.936175 0.500347
42 1 0.542938 0.839961 0.504018
51 1 0.446263 0.901515 0.500222
58 1 0.724578 0.844338 0.502234
11 1 0.274133 0.845094 0.500238
76 1 0.341614 0.0339072 0.501269
78 1 0.430932 0.971531 0.499541
80 1 0.490603 0.968436 0.504007
71 1 0.526269 0.916746 0.498562
25 1 0.630289 0.906478 0.503126
ITEM: TIMESTEP
1500
ITEM: NUMBER OF ATOMS
53
ITEM: BOX BOUNDS pp pp pp
-4.7884811030492767e+00 4.7884811030492767e+00
-4.7963107053661123e+00 4.7963107053661123e+00
-1.0000000000000001e-01 1.0000000000000001e-01
ITEM: ATOMS id type xs ys zs
24 1 0.251427 0.981582 0.501582
33 1 0.2938 0.11882 0.499058
30 1 0.429991 0.0756935 0.496878
19 1 0.586795 0.0472967 0.506037
40 1 0.191668 0.239211 0.49837
48 1 0.30097 0.233614 0.502137
21 1 0.399307 0.186614 0.501232
28 1 0.520217 0.155014 0.501266
59 1 0.633388 0.152044 0.500057
47 1 0.684428 0.233542 0.497043
32 1 0.267899 0.345597 0.500571
17 1 0.397127 0.334908 0.496253
77 1 0.481712 0.245538 0.498112
44 1 0.507524 0.344843 0.502843
36 1 0.577684 0.269619 0.497482
67 1 0.671999 0.30489 0.503223
1 1 0.129672 0.374214 0.504334
31 1 0.606353 0.41078 0.49834
7 1 0.748827 0.39096 0.50126
70 1 0.23322 0.537205 0.502063
20 1 0.32572 0.488308 0.498464
4 1 0.485546 0.475948 0.501974
49 1 0.670878 0.484387 0.500023
39 1 0.762842 0.523954 0.49918
13 1 0.0042582 0.444162 0.501359
9 1 0.118704 0.545874 0.501769
69 1 0.279525 0.585595 0.496676
8 1 0.389362 0.613272 0.498796
34 1 0.525828 0.661305 0.498121
14 1 0.664711 0.611288 0.497602
26 1 0.803479 0.635795 0.502967
27 1 0.978957 0.590195 0.497014
12 1 0.0660582 0.685051 0.497218
18 1 0.221415 0.679653 0.499078
22 1 0.350176 0.734829 0.500237
37 1 0.457134 0.764801 0.498949
5 1 0.618638 0.761729 0.502126
68 1 0.729251 0.693391 0.501656
23 1 0.795641 0.767446 0.501397
15 1 0.91481 0.71237 0.498064
45 1 0.00544716 0.787784 0.499491
6 1 0.129838 0.817812 0.501703
61 1 0.389135 0.840641 0.501744
57 1 0.350266 0.934835 0.498672
42 1 0.541888 0.839675 0.504242
51 1 0.445905 0.901016 0.499813
58 1 0.723032 0.84391 0.502264
11 1 0.273196 0.844899 0.502252
76 1 0.340953 0.0336517 0.501238
78 1 0.430341 0.97136 0.498551
80 1 0.490112 0.967925 0.504565
71 1 0.526052 0.916993 0.500989
25 1 0.629665 0.905817 0.503613
ITEM: TIMESTEP
1750
ITEM: NUMBER OF ATOMS
53
ITEM: BOX BOUNDS pp pp pp
-4.7872823932843662e+00 4.7872823932843662e+00
-4.7929046368597072e+00 4.7929046368597072e+00
-1.0000000000000001e-01 1.0000000000000001e-01
ITEM: ATOMS id type xs ys zs
24 1 0.251169 0.982238 0.501254
33 1 0.292555 0.120224 0.500615
30 1 0.430362 0.0754609 0.496641
19 1 0.58491 0.0470386 0.504724
40 1 0.192412 0.238561 0.500335
48 1 0.301561 0.235124 0.504098
21 1 0.399275 0.186755 0.503347
28 1 0.520472 0.156209 0.501162
59 1 0.634178 0.150867 0.50137
47 1 0.683612 0.233754 0.495473
32 1 0.267749 0.346791 0.498471
17 1 0.39705 0.33518 0.496352
77 1 0.48074 0.246295 0.499294
44 1 0.506877 0.344798 0.503372
36 1 0.577184 0.269659 0.496392
67 1 0.671735 0.305277 0.503728
1 1 0.129618 0.372424 0.505199
31 1 0.60576 0.410415 0.498448
7 1 0.749078 0.39131 0.502547
70 1 0.232935 0.537143 0.501078
20 1 0.325086 0.488147 0.497878
4 1 0.485929 0.475812 0.50188
49 1 0.670773 0.484577 0.499055
39 1 0.762528 0.523813 0.497859
13 1 0.00325879 0.442633 0.501733
9 1 0.118224 0.543971 0.501818
69 1 0.278418 0.585989 0.496011
8 1 0.389453 0.612662 0.498069
34 1 0.525681 0.661162 0.501251
14 1 0.663954 0.611586 0.499312
26 1 0.802403 0.636079 0.502914
27 1 0.97923 0.589573 0.498051
12 1 0.0663147 0.684794 0.497837
18 1 0.220878 0.680003 0.502727
22 1 0.349728 0.733843 0.499726
37 1 0.457144 0.765165 0.500184
5 1 0.619226 0.762092 0.503218
68 1 0.728407 0.694091 0.501189
23 1 0.795655 0.767696 0.501335
15 1 0.914735 0.711664 0.50006
45 1 0.00541207 0.787568 0.498383
6 1 0.129821 0.817957 0.501143
61 1 0.388819 0.840531 0.501611
57 1 0.349504 0.935691 0.498865
42 1 0.542768 0.839286 0.504466
51 1 0.444888 0.90136 0.501383
58 1 0.724072 0.844376 0.500293
11 1 0.273856 0.84471 0.502004
76 1 0.340705 0.0345829 0.500919
78 1 0.429839 0.971513 0.497839
80 1 0.489573 0.968257 0.506197
71 1 0.525147 0.916224 0.501283
25 1 0.63013 0.906243 0.503998
ITEM: TIMESTEP
2000
ITEM: NUMBER OF ATOMS
53
ITEM: BOX BOUNDS pp pp pp
-4.7860836835194558e+00 4.7860836835194558e+00
-4.7938517716501501e+00 4.7938517716501501e+00
-1.0000000000000001e-01 1.0000000000000001e-01
ITEM: ATOMS id type xs ys zs
24 1 0.251793 0.982991 0.501572
33 1 0.291347 0.120469 0.500536
30 1 0.431255 0.0751788 0.495662
19 1 0.585591 0.0470369 0.504501
40 1 0.192225 0.238295 0.499773
48 1 0.30167 0.23513 0.502714
21 1 0.399345 0.186359 0.50379
28 1 0.520572 0.155734 0.50005
59 1 0.634047 0.151183 0.500872
47 1 0.684299 0.233624 0.495308
32 1 0.267441 0.345865 0.497836
17 1 0.396769 0.3345 0.496004
77 1 0.481348 0.245622 0.499221
44 1 0.507146 0.343835 0.504141
36 1 0.577681 0.268976 0.498129
67 1 0.672043 0.304789 0.505347
1 1 0.129168 0.372294 0.505239
31 1 0.605909 0.41105 0.498676
7 1 0.747868 0.392224 0.502261
70 1 0.233007 0.537048 0.500831
20 1 0.325307 0.48803 0.498107
4 1 0.485215 0.474576 0.50238
49 1 0.670208 0.485793 0.497914
39 1 0.762359 0.524681 0.498633
13 1 0.00343972 0.443152 0.500155
9 1 0.118462 0.545038 0.50239
69 1 0.279251 0.58542 0.494706
8 1 0.390182 0.612015 0.496821
34 1 0.526182 0.66127 0.501809
14 1 0.664647 0.612561 0.50086
26 1 0.802959 0.636488 0.503965
27 1 0.98004 0.589833 0.49721
12 1 0.0660889 0.685133 0.499189
18 1 0.221578 0.6795 0.501887
22 1 0.350548 0.733783 0.500483
37 1 0.457626 0.764919 0.49827
5 1 0.618437 0.762298 0.502356
68 1 0.728383 0.69531 0.50126
23 1 0.796739 0.768595 0.503429
15 1 0.914574 0.712005 0.500258
45 1 0.00529636 0.788363 0.497344
6 1 0.129727 0.818172 0.5016
61 1 0.389216 0.840651 0.501735
57 1 0.350189 0.9356 0.498197
42 1 0.542049 0.840152 0.503764
51 1 0.445575 0.901 0.499639
58 1 0.723977 0.844123 0.500081
11 1 0.27382 0.844452 0.503012
76 1 0.340608 0.0364029 0.501186
78 1 0.430521 0.971048 0.49911
80 1 0.490098 0.968222 0.50733
71 1 0.52564 0.917004 0.498489
25 1 0.630236 0.90571 0.503699
ITEM: TIMESTEP
2250
ITEM: NUMBER OF ATOMS
53
ITEM: BOX BOUNDS pp pp pp
-4.7848849737545454e+00 4.7848849737545454e+00
-4.8021727196720017e+00 4.8021727196720017e+00
-1.0000000000000001e-01 1.0000000000000001e-01
ITEM: ATOMS id type xs ys zs
24 1 0.252001 0.982404 0.499129
33 1 0.289458 0.121697 0.501448
30 1 0.431678 0.0740358 0.496712
19 1 0.585178 0.0472171 0.504236
40 1 0.191479 0.238837 0.498478
48 1 0.300947 0.235463 0.501931
21 1 0.398857 0.185507 0.502119
28 1 0.520323 0.155807 0.499909
59 1 0.634369 0.151152 0.501102
47 1 0.684603 0.233125 0.496176
32 1 0.26671 0.346311 0.497884
17 1 0.395437 0.333797 0.495079
77 1 0.480885 0.245714 0.499601
44 1 0.505423 0.343613 0.506094
36 1 0.577585 0.269986 0.499421
67 1 0.672673 0.304767 0.502729
1 1 0.128217 0.371727 0.506129
31 1 0.606216 0.411402 0.499461
7 1 0.74859 0.39202 0.503613
70 1 0.233534 0.536342 0.501366
20 1 0.326272 0.487584 0.498566
4 1 0.485118 0.47421 0.501754
49 1 0.670927 0.485247 0.495918
39 1 0.762825 0.524572 0.495957
13 1 0.00425984 0.444022 0.501159
9 1 0.11937 0.545474 0.503126
69 1 0.279469 0.584974 0.495044
8 1 0.389509 0.613538 0.499478
34 1 0.525843 0.662727 0.50024
14 1 0.664407 0.61236 0.500362
26 1 0.802606 0.636296 0.504503
27 1 0.979792 0.590798 0.498325
12 1 0.0665768 0.685156 0.498808
18 1 0.221315 0.678893 0.501866
22 1 0.350256 0.734557 0.502119
37 1 0.457152 0.765767 0.498577
5 1 0.618526 0.763081 0.501325
68 1 0.728482 0.694573 0.50218
23 1 0.795695 0.768396 0.502781
15 1 0.914317 0.71263 0.497331
45 1 0.00466488 0.788485 0.496246
6 1 0.130187 0.817365 0.500392
61 1 0.388707 0.840497 0.501731
57 1 0.350081 0.934787 0.498944
42 1 0.541752 0.840163 0.502135
51 1 0.445819 0.9006 0.499813
58 1 0.723578 0.845801 0.498947
11 1 0.273215 0.844685 0.502118
76 1 0.340111 0.0382664 0.502109
78 1 0.430045 0.97075 0.498528
80 1 0.489822 0.968192 0.506326
71 1 0.52592 0.917206 0.497737
25 1 0.629456 0.906295 0.504418
ITEM: TIMESTEP
2500
ITEM: NUMBER OF ATOMS
53
ITEM: BOX BOUNDS pp pp pp
-4.7836862639896349e+00 4.7836862639896349e+00
-4.7907506615126181e+00 4.7907506615126181e+00
-1.0000000000000001e-01 1.0000000000000001e-01
ITEM: ATOMS id type xs ys zs
24 1 0.253007 0.982436 0.498494
33 1 0.290498 0.121309 0.502041
30 1 0.431903 0.074177 0.492421
19 1 0.58528 0.0474633 0.504658
40 1 0.193173 0.238719 0.498484
48 1 0.302438 0.236128 0.502886
21 1 0.399147 0.18547 0.501954
28 1 0.520267 0.156406 0.499131
59 1 0.634573 0.152075 0.501707
47 1 0.683766 0.23458 0.496986
32 1 0.266778 0.346568 0.495829
17 1 0.395622 0.332595 0.494321
77 1 0.480892 0.246187 0.498672
44 1 0.505502 0.343948 0.50785
36 1 0.577226 0.26992 0.498513
67 1 0.671976 0.305823 0.501914
1 1 0.129143 0.372126 0.507484
31 1 0.606262 0.410823 0.499224
7 1 0.748825 0.391105 0.502924
70 1 0.232524 0.535339 0.501266
20 1 0.325544 0.487585 0.497616
4 1 0.48525 0.474759 0.501351
49 1 0.670607 0.484538 0.49545
39 1 0.762742 0.524384 0.496109
13 1 0.00419472 0.443737 0.500781
9 1 0.118506 0.545513 0.502912
69 1 0.27788 0.584719 0.495742
8 1 0.388996 0.613437 0.499871
34 1 0.526028 0.661842 0.502065
14 1 0.664414 0.611732 0.500944
26 1 0.802158 0.63639 0.504563
27 1 0.980025 0.590161 0.498818
12 1 0.0665151 0.685536 0.498581
18 1 0.220658 0.679929 0.500313
22 1 0.349352 0.734264 0.502852
37 1 0.456828 0.764513 0.499793
5 1 0.619265 0.762644 0.501723
68 1 0.728229 0.694893 0.503939
23 1 0.79552 0.768427 0.502878
15 1 0.914501 0.711897 0.497784
45 1 0.0044951 0.788564 0.498193
6 1 0.128669 0.818206 0.501206
61 1 0.388693 0.84082 0.5006
57 1 0.350776 0.933358 0.499178
42 1 0.541553 0.839689 0.499875
51 1 0.446902 0.899876 0.500033
58 1 0.723466 0.845198 0.498836
11 1 0.272745 0.844693 0.49974
76 1 0.340951 0.0375268 0.499593
78 1 0.430085 0.970071 0.500411
80 1 0.490102 0.967676 0.50565
71 1 0.527009 0.916983 0.498604
25 1 0.629109 0.906201 0.504292
ITEM: TIMESTEP
2750
ITEM: NUMBER OF ATOMS
53
ITEM: BOX BOUNDS pp pp pp
-4.7824875542247236e+00 4.7824875542247236e+00
-4.8024555927262371e+00 4.8024555927262371e+00
-1.0000000000000001e-01 1.0000000000000001e-01
ITEM: ATOMS id type xs ys zs
24 1 0.252418 0.982351 0.499803
33 1 0.290346 0.121016 0.502743
30 1 0.433208 0.0734467 0.493386
19 1 0.586555 0.0469236 0.504891
40 1 0.19253 0.238157 0.498383
48 1 0.301999 0.235526 0.503055
21 1 0.399487 0.184832 0.502021
28 1 0.52118 0.155504 0.49757
59 1 0.634577 0.151421 0.50198
47 1 0.684375 0.23445 0.496548
32 1 0.266542 0.346317 0.496057
17 1 0.395602 0.332465 0.496078
77 1 0.480842 0.244772 0.498195
44 1 0.505648 0.343707 0.509254
36 1 0.577311 0.269693 0.498022
67 1 0.671633 0.305767 0.502971
1 1 0.127505 0.370937 0.506456
31 1 0.605941 0.411451 0.500796
7 1 0.748511 0.391856 0.502508
70 1 0.232089 0.535605 0.50108
20 1 0.324686 0.487423 0.497885
4 1 0.485123 0.474118 0.500657
49 1 0.671176 0.484905 0.496215
39 1 0.762662 0.524379 0.495134
13 1 0.00456874 0.44426 0.50141
9 1 0.117876 0.546786 0.502768
69 1 0.277386 0.584889 0.495266
8 1 0.388636 0.612729 0.499309
34 1 0.525797 0.661191 0.502632
14 1 0.663974 0.611449 0.501731
26 1 0.802218 0.636353 0.503333
27 1 0.98021 0.590503 0.498394
12 1 0.0651307 0.686798 0.500349
18 1 0.220497 0.679739 0.498697
22 1 0.349283 0.734058 0.503124
37 1 0.456488 0.764422 0.497284
5 1 0.619615 0.761617 0.50086
68 1 0.727914 0.694713 0.505105
23 1 0.795108 0.768191 0.501979
15 1 0.914014 0.712245 0.498199
45 1 0.00401829 0.789217 0.497406
6 1 0.129003 0.81911 0.500648
61 1 0.388293 0.839996 0.501009
57 1 0.349996 0.933906 0.501057
42 1 0.541595 0.837515 0.499279
51 1 0.445397 0.899886 0.501295
58 1 0.7232 0.844953 0.500401
11 1 0.272769 0.844902 0.499429
76 1 0.340842 0.0370754 0.501
78 1 0.430191 0.969864 0.500335
80 1 0.490308 0.966438 0.502442
71 1 0.526032 0.914975 0.499342
25 1 0.628598 0.905041 0.504132
ITEM: TIMESTEP
3000
ITEM: NUMBER OF ATOMS
53
ITEM: BOX BOUNDS pp pp pp
-4.7812888444598132e+00 4.7812888444598132e+00
-4.8025271850402538e+00 4.8025271850402538e+00
-1.0000000000000001e-01 1.0000000000000001e-01
ITEM: ATOMS id type xs ys zs
24 1 0.252575 0.982402 0.499501
33 1 0.288675 0.120739 0.502421
30 1 0.43202 0.0735537 0.492866
19 1 0.586362 0.0469131 0.504534
40 1 0.192425 0.237928 0.498495
48 1 0.301508 0.234301 0.503779
21 1 0.398285 0.183984 0.502643
28 1 0.520943 0.154612 0.496701
59 1 0.634576 0.151009 0.502652
47 1 0.682942 0.233606 0.497254
32 1 0.266317 0.345115 0.494786
17 1 0.395196 0.331523 0.497548
77 1 0.480709 0.243567 0.496078
44 1 0.504686 0.342394 0.510154
36 1 0.576465 0.26877 0.497532
67 1 0.671436 0.304861 0.502371
1 1 0.128337 0.372256 0.505863
31 1 0.605442 0.410542 0.502094
7 1 0.747905 0.390935 0.502149
70 1 0.231721 0.536443 0.500971
20 1 0.323974 0.487596 0.498503
4 1 0.483555 0.47312 0.504068
49 1 0.670414 0.484388 0.49662
39 1 0.76218 0.524374 0.49451
13 1 0.00370795 0.444521 0.500237
9 1 0.117355 0.546921 0.503001
69 1 0.277797 0.585101 0.494639
8 1 0.388601 0.61237 0.498546
34 1 0.524751 0.661198 0.501363
14 1 0.663236 0.611753 0.501516
26 1 0.802124 0.636447 0.502794
27 1 0.978582 0.591523 0.49719
12 1 0.0650097 0.686445 0.499558
18 1 0.220591 0.679484 0.498588
22 1 0.34952 0.73392 0.501488
37 1 0.456701 0.765002 0.49467
5 1 0.618783 0.761988 0.501666
68 1 0.727508 0.694355 0.505208
23 1 0.794519 0.768127 0.502096
15 1 0.913618 0.713311 0.497125
45 1 0.00418373 0.788897 0.497667
6 1 0.129456 0.817739 0.500059
61 1 0.388113 0.840486 0.500355
57 1 0.350699 0.934094 0.500848
42 1 0.541539 0.838755 0.496994
51 1 0.446041 0.900089 0.503451
58 1 0.723127 0.845095 0.498421
11 1 0.272727 0.844687 0.496852
76 1 0.340069 0.0379605 0.501419
78 1 0.431043 0.970071 0.501716
80 1 0.490678 0.967162 0.503603
71 1 0.526314 0.915749 0.500904
25 1 0.628948 0.905195 0.505077
ITEM: TIMESTEP
3250
ITEM: NUMBER OF ATOMS
53
ITEM: BOX BOUNDS pp pp pp
-4.7800901346949027e+00 4.7800901346949027e+00
-4.8088742539814433e+00 4.8088742539814433e+00
-1.0000000000000001e-01 1.0000000000000001e-01
ITEM: ATOMS id type xs ys zs
24 1 0.252435 0.98186 0.498253
33 1 0.288953 0.121515 0.500378
30 1 0.431749 0.0732842 0.493328
19 1 0.58588 0.0464646 0.504327
40 1 0.191138 0.239253 0.498231
48 1 0.30087 0.235069 0.502415
21 1 0.39779 0.184059 0.503344
28 1 0.51997 0.154984 0.497249
59 1 0.633739 0.150376 0.501886
47 1 0.682737 0.233509 0.497329
32 1 0.266148 0.345944 0.494897
17 1 0.394581 0.331652 0.498061
77 1 0.479755 0.243738 0.497705
44 1 0.505038 0.342858 0.510848
36 1 0.576142 0.268639 0.49605
67 1 0.670994 0.304723 0.503639
1 1 0.127832 0.37256 0.505544
31 1 0.605032 0.411085 0.501087
7 1 0.748135 0.391524 0.500358
70 1 0.231764 0.536189 0.501383
20 1 0.32449 0.488166 0.498607
4 1 0.483004 0.472521 0.504918
49 1 0.669798 0.484854 0.496115
39 1 0.761745 0.524285 0.494721
13 1 0.00337269 0.444111 0.502916
9 1 0.117277 0.546686 0.501045
69 1 0.27738 0.585295 0.49485
8 1 0.388825 0.612925 0.498561
34 1 0.524951 0.661852 0.503664
14 1 0.663077 0.611813 0.500367
26 1 0.801719 0.636001 0.502493
27 1 0.978922 0.590737 0.496438
12 1 0.0647712 0.68605 0.499031
18 1 0.220046 0.679345 0.500104
22 1 0.349203 0.734191 0.503607
37 1 0.456509 0.764944 0.493233
5 1 0.618845 0.762176 0.501875
68 1 0.727926 0.694353 0.504611
23 1 0.794831 0.767737 0.503418
15 1 0.913548 0.712613 0.496938
45 1 0.00362042 0.789262 0.496943
6 1 0.12858 0.81749 0.497916
61 1 0.388387 0.840213 0.501508
57 1 0.350147 0.933364 0.500476
42 1 0.541604 0.838776 0.499904
51 1 0.44607 0.899521 0.502841
58 1 0.723176 0.844605 0.498476
11 1 0.272579 0.844511 0.496329
76 1 0.339474 0.0377143 0.501504
78 1 0.430152 0.969485 0.501379
80 1 0.489911 0.966823 0.503411
71 1 0.526165 0.915872 0.500646
25 1 0.628621 0.905111 0.504633
ITEM: TIMESTEP
3500
ITEM: NUMBER OF ATOMS
53
ITEM: BOX BOUNDS pp pp pp
-4.7788914249299923e+00 4.7788914249299923e+00
-4.8065699795303045e+00 4.8065699795303045e+00
-1.0000000000000001e-01 1.0000000000000001e-01
ITEM: ATOMS id type xs ys zs
24 1 0.252573 0.981096 0.499461
33 1 0.287788 0.12096 0.501099
30 1 0.430973 0.0732839 0.493986
19 1 0.58584 0.046987 0.505686
40 1 0.190348 0.240231 0.499011
48 1 0.300182 0.235052 0.503342
21 1 0.397045 0.183956 0.50258
28 1 0.518478 0.155166 0.496524
59 1 0.632385 0.151455 0.502331
47 1 0.683386 0.23335 0.497376
32 1 0.267076 0.346161 0.493411
17 1 0.396246 0.331699 0.497381
77 1 0.478904 0.244578 0.497329
44 1 0.506562 0.343717 0.509648
36 1 0.576192 0.268272 0.497007
67 1 0.670986 0.304612 0.504539
1 1 0.128212 0.374115 0.50631
31 1 0.605168 0.410357 0.500984
7 1 0.747602 0.391636 0.499511
70 1 0.230926 0.537987 0.500707
20 1 0.323175 0.488397 0.499408
4 1 0.483413 0.473557 0.506888
49 1 0.668579 0.48491 0.495305
39 1 0.761178 0.524109 0.493274
13 1 0.00226102 0.445156 0.501213
9 1 0.11702 0.547301 0.500082
69 1 0.277434 0.586403 0.495982
8 1 0.388497 0.612954 0.499039
34 1 0.524525 0.661972 0.50438
14 1 0.663286 0.611793 0.501484
26 1 0.801991 0.63644 0.501163
27 1 0.977839 0.591613 0.496198
12 1 0.0644254 0.686819 0.499129
18 1 0.22007 0.68096 0.499727
22 1 0.349085 0.73429 0.504583
37 1 0.456264 0.765466 0.49407
5 1 0.618068 0.762135 0.503743
68 1 0.726986 0.694589 0.50444
23 1 0.794037 0.768061 0.502874
15 1 0.912718 0.713168 0.495684
45 1 0.00316106 0.789315 0.496988
6 1 0.128415 0.818097 0.497649
61 1 0.387899 0.84108 0.501608
57 1 0.35031 0.932294 0.498298
42 1 0.541436 0.839356 0.500996
51 1 0.446427 0.899504 0.501619
58 1 0.722652 0.844683 0.500245
11 1 0.271839 0.843903 0.496452
76 1 0.33957 0.0381523 0.50377
78 1 0.430133 0.969568 0.502196
80 1 0.490032 0.967055 0.503235
71 1 0.526453 0.916336 0.501233
25 1 0.629035 0.906224 0.504759
ITEM: TIMESTEP
3750
ITEM: NUMBER OF ATOMS
53
ITEM: BOX BOUNDS pp pp pp
-4.7776927151650819e+00 4.7776927151650819e+00
-4.8067322302575475e+00 4.8067322302575475e+00
-1.0000000000000001e-01 1.0000000000000001e-01
ITEM: ATOMS id type xs ys zs
24 1 0.251915 0.980157 0.496885
33 1 0.286681 0.120857 0.50082
30 1 0.430137 0.0733638 0.49557
19 1 0.586154 0.0472094 0.505544
40 1 0.190096 0.23997 0.496656
48 1 0.299668 0.234723 0.504058
21 1 0.396579 0.184054 0.503504
28 1 0.518813 0.154086 0.497038
59 1 0.632603 0.151579 0.50434
47 1 0.683584 0.233264 0.495412
32 1 0.266924 0.345683 0.493379
17 1 0.395271 0.332117 0.498156
77 1 0.479374 0.243078 0.495913
44 1 0.505749 0.342984 0.510143
36 1 0.575978 0.267302 0.498439
67 1 0.67113 0.304493 0.505148
1 1 0.129457 0.374516 0.507504
31 1 0.604782 0.411181 0.501313
7 1 0.747105 0.391239 0.501183
70 1 0.232735 0.536885 0.50155
20 1 0.325198 0.488786 0.497542
4 1 0.483271 0.473117 0.506648
49 1 0.668953 0.485096 0.493838
39 1 0.761043 0.524638 0.493951
13 1 0.0039706 0.444644 0.500566
9 1 0.118614 0.546639 0.500634
69 1 0.278066 0.586224 0.494339
8 1 0.389208 0.612725 0.497951
34 1 0.525162 0.661545 0.501401
14 1 0.663615 0.612053 0.503205
26 1 0.801854 0.636485 0.501521
27 1 0.97975 0.590496 0.497011
12 1 0.0651284 0.686504 0.497974
18 1 0.219762 0.679938 0.500234
22 1 0.349311 0.733238 0.503496
37 1 0.456828 0.765061 0.492537
5 1 0.618131 0.762199 0.502973
68 1 0.727682 0.694906 0.503301
23 1 0.795493 0.767836 0.502899
15 1 0.913843 0.711432 0.495739
45 1 0.00381244 0.78866 0.495681
6 1 0.128585 0.817955 0.496594
61 1 0.388394 0.840769 0.504596
57 1 0.350176 0.931814 0.499012
42 1 0.541552 0.839785 0.501183
51 1 0.446984 0.89934 0.50128
58 1 0.722909 0.844068 0.500669
11 1 0.272221 0.843109 0.49728
76 1 0.3383 0.0379892 0.503324
78 1 0.429894 0.969377 0.502253
80 1 0.489883 0.967633 0.50481
71 1 0.526448 0.916833 0.500203
25 1 0.629038 0.905908 0.505567
ITEM: TIMESTEP
4000
ITEM: NUMBER OF ATOMS
53
ITEM: BOX BOUNDS pp pp pp
-4.7764940054001706e+00 4.7764940054001706e+00
-4.8118085027967830e+00 4.8118085027967830e+00
-1.0000000000000001e-01 1.0000000000000001e-01
ITEM: ATOMS id type xs ys zs
24 1 0.250831 0.98112 0.49672
33 1 0.287859 0.121005 0.501396
30 1 0.429702 0.0737811 0.497292
19 1 0.585616 0.0466278 0.50599
40 1 0.19012 0.24064 0.494988
48 1 0.299472 0.234662 0.504774
21 1 0.397094 0.184318 0.503552
28 1 0.519281 0.154455 0.498627
59 1 0.633145 0.150491 0.504697
47 1 0.682817 0.232774 0.494209
32 1 0.267475 0.346033 0.492945
17 1 0.396428 0.332419 0.499019
77 1 0.479593 0.243719 0.495592
44 1 0.506613 0.343501 0.511726
36 1 0.575907 0.268073 0.499758
67 1 0.671301 0.304196 0.506077
1 1 0.130609 0.377133 0.510184
31 1 0.604713 0.410915 0.502047
7 1 0.74679 0.391473 0.49957
70 1 0.232205 0.537801 0.500338
20 1 0.323805 0.488646 0.496549
4 1 0.48244 0.473038 0.506359
49 1 0.669032 0.484858 0.492826
39 1 0.761777 0.524051 0.49138
13 1 0.00391076 0.443955 0.499901
9 1 0.117586 0.545745 0.500482
69 1 0.278286 0.585818 0.495556
8 1 0.388811 0.612673 0.496099
34 1 0.525074 0.661229 0.499353
14 1 0.66354 0.611962 0.503216