LAMMPS (23 Jun 2022 - Update 4)
  using 1 OpenMP thread(s) per MPI task
# Compute elastic constant tensor for a crystal
#
# Written by Aidan Thompson (Sandia, athomps@sandia.gov)
#
#  This script uses the following three include files.
#
#   init.mod      (must be modified for different crystal structures)
# 	       	  Define units, deformation parameters and initial
#		  configuration of the atoms and simulation cell.
#
#
#   potential.mod    (must be modified for different pair styles)
# 		     Define pair style and other attributes
#		     not stored in restart file
#
#
#   displace.mod    (displace.mod should not need to be modified)
# 		    Perform positive and negative box displacements
# 		    in direction ${dir} and size ${up}.
# 		    It uses the resultant changes
#		    in stress to compute one
# 		    row of the elastic stiffness tensor
#
#		    Inputs variables:
#		    	   dir = the Voigt deformation component
#		    		    (1,2,3,4,5,6)
#		    Global constants:
#       	    	   up = the deformation magnitude (strain units)
#       		   cfac = conversion from LAMMPS pressure units to
#               	   output units for elastic constants
#
#
#  To run this on a different system, it should only be necessary to
#  modify the files init.mod and potential.mod. In order to calculate
#  the elastic constants correctly, care must be taken to specify
#  the correct units in init.mod (units, cfac and cunits). It is also
#  important to verify that the minimization of energy w.r.t atom
#  positions in the deformed cell is fully converged.
#  One indication of this is that the elastic constants are insensitive
#  to the choice of the variable ${up} in init.mod. Another is to check
#  the final max and two-norm forces reported in the log file. If you know
#  that minimization is not required, you can set maxiter = 0.0 in
#  init.mod.
#



variable dt equal 0.01
variable strain equal 0.05
variable srate equal 1e-4
variable M equal 1000 # averaging time for properties
variable strainsteps equal ${strain}/${dt}/${srate}
variable strainsteps equal 0.05/${dt}/${srate}
variable strainsteps equal 0.05/0.01/${srate}
variable strainsteps equal 0.05/0.01/0.0001


dimension 2
include init.mod
# NOTE: This script can be modified for different atomic structures,
# units, etc. See in.elastic for more info.
#

# Define the finite deformation size. Try several values of this
# variable to verify that results do not depend on it.
variable up equal 1.0e-1

# Define the amount of random jiggle for atoms
# This prevents atoms from staying on saddle points
variable atomjiggle equal 1.0e-6

# Uncomment one of these blocks, depending on what units
# you are using in LAMMPS and for output

# metal units, elastic constants in eV/A^3
#units		metal
#variable cfac equal 6.2414e-7
#variable cunits string eV/A^3

# Choose potential
# metal units, elastic constants in GPa
units		metal
atom_style	full
#pair_style      lj/cut 1.0
#pair_style      yukawa 1.0 2.0
#pair_modify     mix arithmetic
bond_style      harmonic
angle_style     harmonic
dihedral_style  zero
special_bonds   amber
variable cfac equal 1.0e-4
variable cunits string GPa
boundary	p p p

# Need to set mass to something, just to satisfy LAMMPS
#mass 1 1.0e-20
read_data network.lmp
Reading data file ...
  orthogonal box = (-4.79484 -4.79484 -0.1) to (4.79484 4.79484 0.1)
  1 by 1 by 1 MPI processor grid
WARNING: Atom style in data file differs from currently defined atom style (src/read_data.cpp:538)
  reading atoms ...
  53 atoms
WARNING: Bond style in data file differs from currently defined bond style (src/read_data.cpp:630)
  scanning bonds ...
  5 = max bonds/atom
  reading bonds ...
  109 bonds
Finding 1-2 1-3 1-4 neighbors ...
  special bond factors lj:    0        0        0.5     
  special bond factors coul:  0        0        0.8333333333333334
     8 = max # of 1-2 neighbors
    31 = max # of 1-3 neighbors
   156 = max # of 1-4 neighbors
    27 = max # of special neighbors
  special bonds CPU = 0.000 seconds
  read_data CPU = 0.003 seconds

# real units, elastic constants in GPa
#units		real
#variable cfac equal 1.01325e-4
#variable cunits string GPa

# Define minimization parameters
variable etol equal 0.0
variable ftol equal 5.0e-10
variable maxiter equal 100000
variable maxeval equal 20000
variable dmax equal 1.0e-2


include potential.mod
# NOTE: This script can be modified for different pair styles
# See in.elastic for more info.

# Setup neighbor style
neighbor 3.0 nsq
neigh_modify once no every 1 delay 0 check yes
comm_modify cutoff 2.0

# Setup minimization style
min_style	     cg
min_modify	     dmax ${dmax} line quadratic
min_modify	     dmax 0.01 line quadratic

timestep	0.001


# Setup output
thermo		500
thermo_style custom step temp pe ebond eangle edihed press pxx pyy pzz pxy pxz pyz lx ly lz vol
thermo_modify norm no


#change_box all triclinic
comm_modify mode single cutoff 10.0 vel yes
atom_modify sort 0 0



# Compute initial state

#dump rela all atom 1 traj_relax.lmpstrj
fix 3 all box/relax x 0 y 0 # xy 0  #MS comment: relax if the network is periodic
minimize ${etol} ${ftol} ${maxiter} ${maxeval}
minimize 0 ${ftol} ${maxiter} ${maxeval}
minimize 0 5e-10 ${maxiter} ${maxeval}
minimize 0 5e-10 100000 ${maxeval}
minimize 0 5e-10 100000 20000
Neighbor list info ...
  update every 1 steps, delay 0 steps, check yes
  max neighbors/atom: 2000, page size: 100000
  master list distance cutoff = 0
  ghost atom cutoff = 10
  0 neighbor lists, perpetual/occasional/extra = 0 0 0
WARNING: Inconsistent image flags (src/domain.cpp:819)
Per MPI rank memory allocation (min/avg/max) = 8.648 | 8.648 | 8.648 Mbytes
   Step          Temp          PotEng         E_bond        E_angle        E_dihed         Press           Pxx            Pyy            Pzz            Pxy            Pxz            Pyz             Lx             Ly             Lz           Volume    
         0   0              2.4093506e-11  2.4093506e-11  0              0             -0.17417699    -0.14897836    -0.19937561     0             -0.075781704    0              0              9.58968        9.58968        0.2            91.961963    
       174   0              2.5466432e-19  2.5466432e-19  0              0             -7.1504506e-07  8.8773789e-07 -2.317828e-06   0             -8.278166e-06   0              0              9.5896781      9.5896785      0.2            91.96193     
Loop time of 0.00892376 on 1 procs for 174 steps with 53 atoms

95.2% CPU use with 1 MPI tasks x 1 OpenMP threads

Minimization stats:
  Stopping criterion = force tolerance
  Energy initial, next-to-last, final = 
    2.40935062272821e-11 2.76025496766176e-19 2.54664317287786e-19
  Force two-norm initial, final = 2.2299436e-05 3.8710646e-10
  Force max component initial, final = 1.1443791e-05 1.3303901e-10
  Final line search alpha, max atom move = 1 1.3303901e-10
  Iterations, force evaluations = 174 348

MPI task timing breakdown:
Section |  min time  |  avg time  |  max time  |%varavg| %total
---------------------------------------------------------------
Pair    | 0          | 0          | 0          |   0.0 |  0.00
Bond    | 0.0011987  | 0.0011987  | 0.0011987  |   0.0 | 13.43
Neigh   | 0          | 0          | 0          |   0.0 |  0.00
Comm    | 0.0026859  | 0.0026859  | 0.0026859  |   0.0 | 30.10
Output  | 0          | 0          | 0          |   0.0 |  0.00
Modify  | 0          | 0          | 0          |   0.0 |  0.00
Other   |            | 0.005039   |            |       | 56.47

Nlocal:             53 ave          53 max          53 min
Histogram: 1 0 0 0 0 0 0 0 0 0
Nghost:            445 ave         445 max         445 min
Histogram: 1 0 0 0 0 0 0 0 0 0
Neighs:              0 ave           0 max           0 min
Histogram: 1 0 0 0 0 0 0 0 0 0

Total # of neighbors = 0
Ave neighs/atom = 0
Ave special neighs/atom = 21.320755
Neighbor list builds = 0
Dangerous builds = 0
#dump rela all atom 1 traj_relax.lmpstrj
thermo 100
unfix 3

fix 2d all enforce2d



#dump dump0 all xyz 1000000 cfg0.xyz
#dump_modify dump0 format line "%d %20.10g %20.10g %20.10g"
#minimize ${etol} ${ftol} ${maxiter} ${maxeval}

#undump rela

#write_restart restart.equil

# These formulas define the derivatives w.r.t. strain components
# Constants uses $, variables use v_


timestep        ${dt}
timestep        0.01
variable nsteps equal round(${strainsteps})
variable nsteps equal round(50000)

fix             4 all nve
fix             5 all langevin 0.1 0.1 1 904297
#fix		6 all press/berendsen y  0.0 0.0 1 x 0.0 0.0 10
fix             6 all nph y 0.0 0.0 10 ptemp 0.1 # x 0.0 0.0 10

# For PLUMED2
# fix 22 all plumed plumedfile plumed.dat outfile plumed.out

#fix             6 all nph x 0.0 0.0 10
fix     	9 all deform 1 x erate -${srate} units box remap x
fix     	9 all deform 1 x erate -0.0001 units box remap x

#fix     8 all deform 1 xy erate ${srate} units box remap x



#fix    10 all ave/time

dump 1 all atom 250 deform_dump.lammpstrj


#To avoid flying ice cube phenomenon:
#fix 21 all momentum 100 linear 1 1 1 angular


run  ${nsteps}
run  50000
WARNING: One or more atoms are time integrated more than once (src/modify.cpp:292)
WARNING: Inconsistent image flags (src/domain.cpp:819)
Per MPI rank memory allocation (min/avg/max) = 7.523 | 7.523 | 7.523 Mbytes
   Step          Temp          PotEng         E_bond        E_angle        E_dihed         Press           Pxx            Pyy            Pzz            Pxy            Pxz            Pyz             Lx             Ly             Lz           Volume    
       174   0              2.5466432e-19  2.5466432e-19  0              0             -7.1504506e-07  8.8773789e-07 -2.317828e-06   0             -8.278166e-06   0              0              9.5896781      9.5896785      0.2            91.96193     
       200   0.10490313     9.286517e-05   9.286517e-05   0              0             -58.333123     -165.70405      48.870809      0             -10.937478      0              0              9.5894288      9.5891725      0.2            91.954687    
       300   0.21076342     0.00079678587  0.00079678587  0              0             -115.65328     -91.750236     -139.70964      0             -340.09238      0              0              9.5884698      9.5895406      0.2            91.94902     
       400   0.17386492     0.00049278216  0.00049278216  0              0             -152.49884     -442.95494      137.78253      0             -121.31181      0              0              9.5875109      9.591241       0.2            91.956127    
       500   0.22480903     0.00080274596  0.00080274596  0              0             -98.824609     -154.62926     -43.180883      0              35.477655      0              0              9.5865519      9.5980955      0.2            92.01264     
       600   0.16682352     0.00078674084  0.00078674084  0              0              148.22777      453.12818     -156.81192      0             -18.957634      0              0              9.5855929      9.5953512      0.2            91.977131    
       700   0.23025709     0.000855512    0.000855512    0              0              276.21387      315.69347      236.58094      0              185.09504      0              0              9.5846339      9.597281       0.2            91.986425    
       800   0.24144322     0.00063160102  0.00063160102  0              0              118.29815      422.58793     -186.16705      0             -78.809804      0              0              9.583675       9.5925847      0.2            91.932214    
       900   0.20511662     0.00069843094  0.00069843094  0              0              208.29217      307.23001      109.18605      0             -353.27863      0              0              9.582716       9.5966971      0.2            91.962423    
      1000   0.15177106     0.00077593164  0.00077593164  0              0              258.28395      581.3281      -64.884379      0             -181.06913      0              0              9.581757       9.5969697      0.2            91.955832    
      1100   0.15061103     0.00079341996  0.00079341996  0              0             -56.219777      76.638448     -189.25131      0              6.9731728      0              0              9.5807981      9.5969828      0.2            91.946754    
      1200   0.20670295     0.0008482239   0.0008482239   0              0             -130.68731     -553.344        291.80853      0             -427.64087      0              0              9.5798391      9.5882293      0.2            91.853694    
      1300   0.18984887     0.0008684131   0.0008684131   0              0             -623.0501      -996.51107     -249.77852      0             -490.66396      0              0              9.5788801      9.6009591      0.2            91.966437    
      1400   0.23383902     0.00090769199  0.00090769199  0              0             -5.5885425     -27.635483      16.303282      0              129.89785      0              0              9.5779212      9.5890464      0.2            91.843131    
      1500   0.17864582     0.00094723749  0.00094723749  0              0              492.4979       739.38259      245.45607      0              367.80259      0              0              9.5769622      9.5926214      0.2            91.868173    
      1600   0.18417284     0.00088418184  0.00088418184  0              0             -162.4858       111.70467     -436.83382      0              163.2704       0              0              9.5760032      9.5902652      0.2            91.83641     
      1700   0.18906938     0.0010391541   0.0010391541   0              0              689.84123      1064.4676      315.01835      0              133.45322      0              0              9.5750443      9.57748        0.2            91.704795    
      1800   0.26508278     0.00074101367  0.00074101367  0              0             -5.6345008      37.842923     -49.263901      0              18.720683      0              0              9.5740853      9.5889448      0.2            91.805376    
      1900   0.16051428     0.00096323165  0.00096323165  0              0              105.94194      517.05256     -305.32279      0             -6.8873901      0              0              9.5731263      9.5966339      0.2            91.869789    
      2000   0.23082171     0.00070712636  0.00070712636  0              0              797.03009      995.13812      598.7403       0             -205.5107       0              0              9.5721674      9.5877035      0.2            91.775103    
      2100   0.2655351      0.00083896909  0.00083896909  0              0             -422.96255     -278.71241     -567.35945      0             -293.60702      0              0              9.5712084      9.5861669      0.2            91.751201    
      2200   0.19327564     0.00081573279  0.00081573279  0              0              177.39396      157.91492      196.69402      0              80.769845      0              0              9.5702494      9.5972929      0.2            91.848487    
      2300   0.22210768     0.00090925109  0.00090925109  0              0              505.29407      578.96935      431.45623      0             -72.350342      0              0              9.5692905      9.5999899      0.2            91.865092    
      2400   0.1803274      0.00077606599  0.00077606599  0              0             -405.75078      207.37425     -1019.0231      0              294.70966      0              0              9.5683315      9.5957348      0.2            91.815172    
      2500   0.22186048     0.0010399577   0.0010399577   0              0              1059.7276      1051.5658      1067.731       0              276.76566      0              0              9.5673725      9.5815013      0.2            91.669793    
      2600   0.17848101     0.0010229367   0.0010229367   0              0              91.081832      636.72601     -454.75694      0              521.17868      0              0              9.5664136      9.5933288      0.2            91.773751    
      2700   0.23024471     0.0010856938   0.0010856938   0              0             -318.37186     -139.26476     -497.66165      0              93.90351       0              0              9.5654546      9.5983736      0.2            91.812807    
      2800   0.19158343     0.00090215605  0.00090215605  0              0              1270.2917      1389.8472      1150.5306      0              21.227571      0              0              9.5644956      9.5934652      0.2            91.756656    
      2900   0.15849409     0.00090607981  0.00090607981  0              0             -309.98421      474.13615     -1094.2468      0              504.15378      0              0              9.5635367      9.6160724      0.2            91.963661    
      3000   0.18621061     0.00083312631  0.00083312631  0              0              1030.0758      1551.4658      508.51636      0             -147.32637      0              0              9.5625777      9.6050544      0.2            91.849079    
      3100   0.22186101     0.00089435791  0.00089435791  0              0              191.59637      13.44065       369.61856      0             -303.55173      0              0              9.5616187      9.6161134      0.2            91.94561     
      3200   0.18186882     0.00081800306  0.00081800306  0              0             -87.93919       759.35254     -935.39313      0             -196.15019      0              0              9.5606598      9.6224561      0.2            91.997028    
      3300   0.19296393     0.00088393443  0.00088393443  0              0              1096.057       1254.2747      937.68707      0              389.83956      0              0              9.5597008      9.6043057      0.2            91.814289    
      3400   0.20238249     0.00079130181  0.00079130181  0              0              227.72362      892.44693     -437.12612      0             -56.089734      0              0              9.5587418      9.617892       0.2            91.934946    
      3500   0.22697996     0.00086164433  0.00086164433  0              0             -225.97703     -160.87668     -291.23358      0             -95.965871      0              0              9.5577828      9.61314        0.2            91.880304    
      3600   0.21621414     0.0011103702   0.0011103702   0              0              1088.447       1522.5745      654.15197      0              58.118225      0              0              9.5568239      9.6051752      0.2            91.794968    
      3700   0.19350177     0.0010289754   0.0010289754   0              0              514.35563      1793.9535     -765.41101      0              169.50793      0              0              9.5558649      9.6190593      0.2            91.918432    
      3800   0.17966417     0.0010981006   0.0010981006   0              0              1230.0703      2043.8417      416.12964      0             -291.66047      0              0              9.5549059      9.6160585      0.2            91.880535    
      3900   0.22183438     0.00093258736  0.00093258736  0              0              487.19268      883.46449      90.754274      0             -243.05435      0              0              9.553947       9.6190824      0.2            91.900203    
      4000   0.20666002     0.0010319671   0.0010319671   0              0              645.98581      1699.0633     -407.26865      0              43.044253      0              0              9.552988       9.623617       0.2            91.934298    
      4100   0.22149014     0.00087814107  0.00087814107  0              0              824.16622      1162.494       485.68793      0             -38.6426        0              0              9.552029       9.614712       0.2            91.840008    
      4200   0.17707935     0.00093383643  0.00093383643  0              0              205.28189      737.45934     -327.02988      0             -213.42185      0              0              9.5510701      9.6209081      0.2            91.889967    
      4300   0.18680582     0.00095165889  0.00095165889  0              0              413.67351      848.03892     -20.842959      0              328.43678      0              0              9.5501111      9.6096719      0.2            91.773435    
      4400   0.14157896     0.0010216066   0.0010216066   0              0              812.75703      1305.2825      320.01191      0             -106.60387      0              0              9.5491521      9.605658       0.2            91.72589     
      4500   0.19865303     0.0011456551   0.0011456551   0              0              146.12549      814.18186     -522.08329      0              150.90922      0              0              9.5481932      9.6218293      0.2            91.871085    
      4600   0.18440091     0.00099822321  0.00099822321  0              0              597.29337      736.78305      457.62989      0             -338.11267      0              0              9.5472342      9.6186694      0.2            91.831689    
      4700   0.22171281     0.0012613002   0.0012613002   0              0              501.35305      1105.0582     -102.49936      0             -256.11244      0              0              9.5462752      9.6183458      0.2            91.819376    
      4800   0.17324121     0.0011656887   0.0011656887   0              0              810.90932      1873.3599     -251.70747      0              388.81759      0              0              9.5453163      9.6086405      0.2            91.717513    
      4900   0.23177461     0.00087460712  0.00087460712  0              0              1113.1036      1843.5315      382.50213      0             -241.823        0              0              9.5443573      9.6133445      0.2            91.753194    
      5000   0.17389036     0.0010977142   0.0010977142   0              0              885.50054      2012.0362     -241.20766      0             -129.53708      0              0              9.5433983      9.6219487      0.2            91.826089    
      5100   0.25582148     0.0010431125   0.0010431125   0              0              633.69901      1292.1833     -24.951924      0             -345.92834      0              0              9.5424394      9.6240241      0.2            91.836666    
      5200   0.19223272     0.00093583382  0.00093583382  0              0              1265.6928      2151.1486      380.10783      0             -614.20566      0              0              9.5414804      9.619251       0.2            91.781895    
      5300   0.18466243     0.00082905282  0.00082905282  0              0              400.00395      1134.3068     -334.46956      0              326.26717      0              0              9.5405214      9.6241117      0.2            91.819044    
      5400   0.22968957     0.00095686892  0.00095686892  0              0              981.56802      1801.4549      161.51022      0              220.55125      0              0              9.5395625      9.6168982      0.2            91.741001    
      5500   0.19096369     0.00096176599  0.00096176599  0              0              458.27509      875.16886      41.234372      0             -427.66363      0              0              9.5386035      9.6115721      0.2            91.680975    
      5600   0.16389976     0.00084479325  0.00084479325  0              0              237.12716      714.06486     -239.9358       0              285.07331      0              0              9.5376445      9.6115073      0.2            91.67114     
      5700   0.19878891     0.0010623895   0.0010623895   0              0              1023.6124      1819.9599      227.09154      0             -8.8159244      0              0              9.5366856      9.6039619      0.2            91.589965    
      5800   0.17627303     0.0011271756   0.0011271756   0              0              282.82473      754.76023     -189.22718      0              661.44648      0              0              9.5357266      9.6138538      0.2            91.675082    
      5900   0.24965568     0.00091577056  0.00091577056  0              0              681.32051      1407.7549     -45.280706      0              86.605613      0              0              9.5347676      9.615747       0.2            91.683913    
      6000   0.1467392      0.00098516404  0.00098516404  0              0              1026.6091      2037.0998      15.950184      0              674.37372      0              0              9.5338087      9.6226849      0.2            91.740836    
      6100   0.17678516     0.00099403316  0.00099403316  0              0              268.34293      670.26882     -133.71994      0             -323.22115      0              0              9.5328497      9.6275321      0.2            91.777817    
      6200   0.21188276     0.0010865928   0.0010865928   0              0              1189.8819      2211.6785      167.95062      0              232.49509      0              0              9.5318907      9.6227374      0.2            91.722881    
      6300   0.22632785     0.0013490935   0.0013490935   0              0              923.52705      1954.9014     -108.02604      0             -52.574707      0              0              9.5309318      9.6186819      0.2            91.675001    
      6400   0.19384296     0.0010012499   0.0010012499   0              0              618.46661      1327.3768     -90.580605      0              449.87719      0              0              9.5299728      9.6161557      0.2            91.641702    
      6500   0.21198775     0.0011059383   0.0011059383   0              0              1026.5593      1673.6892      379.25564      0              401.51424      0              0              9.5290138      9.6032984      0.2            91.509963    
      6600   0.20943405     0.0013307058   0.0013307058   0              0              610.584        1552.329      -331.3277       0              534.66788      0              0              9.5280548      9.6132495      0.2            91.595568    
      6700   0.23112688     0.0012340675   0.0012340675   0              0              1066.4266      2050.5273      82.154738      0              421.69699      0              0              9.5270959      9.6133297      0.2            91.587114    
      6800   0.20303131     0.0010348069   0.0010348069   0              0              680.68885      838.3711       522.82362      0             -837.78855      0              0              9.5261369      9.6030529      0.2            91.479997    
      6900   0.17131205     0.0012538437   0.0012538437   0              0              305.14384      1352.1049     -741.96334      0              189.83639      0              0              9.5251779      9.6071633      0.2            91.50994     
      7000   0.19522751     0.0011728588   0.0011728588   0              0              1075.6976      1682.722       468.5328       0              16.595409      0              0              9.524219       9.6100529      0.2            91.528248    
      7100   0.17668659     0.0011076587   0.0011076587   0              0              616.18672      963.83224      268.39644      0             -109.73604      0              0              9.52326        9.6150426      0.2            91.56655     
      7200   0.17351348     0.0010476355   0.0010476355   0              0              461.84158      1784.6361     -861.13247      0              153.38114      0              0              9.522301       9.6213417      0.2            91.617312    
      7300   0.24314103     0.0013458535   0.0013458535   0              0              1549.9539      2227.4161      872.33169      0             -958.63375      0              0              9.5213421      9.6092451      0.2            91.49291     
      7400   0.21511414     0.0011351531   0.0011351531   0              0              784.2088       1827.7858     -259.53438      0              391.86764      0              0              9.5203831      9.6132533      0.2            91.521854    
      7500   0.22183985     0.001309345    0.001309345    0              0              652.36713      1826.4687     -521.87319      0             -44.076167      0              0              9.5194241      9.6167359      0.2            91.545788    
      7600   0.23448436     0.0012889709   0.0012889709   0              0              1733.6247      2425.6255      1041.421       0             -483.64197      0              0              9.5184652      9.5936427      0.2            91.316754    
      7700   0.2209006      0.0014098272   0.0014098272   0              0              296.14069      1337.3893     -745.25442      0              104.16496      0              0              9.5175062      9.6167943      0.2            91.527899    
      7800   0.23414997     0.0012692088   0.0012692088   0              0              864.17043      1915.3168     -187.13709      0             -663.79087      0              0              9.5165472      9.6128443      0.2            91.481087    
      7900   0.21701092     0.0011122735   0.0011122735   0              0              1173.1376      1380.9448      965.165        0             -627.79947      0              0              9.5155883      9.605752       0.2            91.404381    
      8000   0.19731609     0.0011500006   0.0011500006   0              0             -177.6064       712.30487     -1067.6622      0             -594.65003      0              0              9.5146293      9.6246108      0.2            91.574604    
      8100   0.2337053      0.0013015245   0.0013015245   0              0              1381.7923      2404.0951      359.34784      0             -620.49332      0              0              9.5136703      9.6015628      0.2            91.346103    
      8200   0.19049818     0.0012512609   0.0012512609   0              0              1382.3898      2177.5619      587.05089      0              424.11018      0              0              9.5127114      9.6106378      0.2            91.423223    
      8300   0.25706019     0.0014172282   0.0014172282   0              0             -74.780404      918.42081     -1068.1288      0              1.2043694      0              0              9.5117524      9.6160997      0.2            91.465959    
      8400   0.19627779     0.0015007108   0.0015007108   0              0              1023.2443      1211.1827      835.14424      0              100.7144       0              0              9.5107934      9.6127931      0.2            91.425289    
      8500   0.21538298     0.001300471    0.001300471    0              0              247.45654      595.9844      -101.23464      0             -122.63778      0              0              9.5098345      9.6212923      0.2            91.496897    
      8600   0.21298705     0.0013488472   0.0013488472   0              0              414.19879      1441.7057     -613.45602      0             -55.832783      0              0              9.5088755      9.6264953      0.2            91.537145    
      8700   0.22053917     0.0014002861   0.0014002861   0              0              1303.3066      1782.5946      823.86709      0             -652.47225      0              0              9.5079165      9.6210628      0.2            91.476262    
      8800   0.18662393     0.0013850835   0.0013850835   0              0              528.52954      1401.385      -344.47854      0             -371.21409      0              0              9.5069576      9.6317383      0.2            91.568527    
      8900   0.20423055     0.0014659804   0.0014659804   0              0              435.25182      1146.0356     -275.70587      0             -852.9368       0              0              9.5059986      9.6202192      0.2            91.44979     
      9000   0.20199781     0.0013864466   0.0013864466   0              0              1336.3121      2177.9333      494.50862      0             -403.98856      0              0              9.5050396      9.6070307      0.2            91.315208    
      9100   0.17662485     0.0013946697   0.0013946697   0              0              1009.4307      2491.4206     -472.70288      0             -678.88708      0              0              9.5040807      9.6099518      0.2            91.333757    
      9200   0.20961541     0.0012940835   0.0012940835   0              0              936.32801      1832.8849      39.576508      0              169.49483      0              0              9.5031217      9.6164226      0.2            91.386034    
      9300   0.22991618     0.0014856512   0.0014856512   0              0              1098.2157      1853.9391      342.32422      0              157.70732      0              0              9.5021627      9.6261047      0.2            91.468813    
      9400   0.18772943     0.0013599833   0.0013599833   0              0              492.01574      1330.0722     -346.21261      0             -595.45515      0              0              9.5012037      9.6274944      0.2            91.472786    
      9500   0.20669304     0.0014787939   0.0014787939   0              0              1138.8516      2040.3365      237.22224      0              239.53713      0              0              9.5002448      9.6185208      0.2            91.378302    
      9600   0.22743016     0.0013925982   0.0013925982   0              0              1206.752       2247.1164      166.22333      0             -456.03634      0              0              9.4992858      9.6112291      0.2            91.299813    
      9700   0.22765011     0.001348129    0.001348129    0              0              723.27065      1864.4304     -418.03015      0             -270.96653      0              0              9.4983268      9.611058       0.2            91.28897     
      9800   0.22120059     0.0015555384   0.0015555384   0              0              785.76241      1218.6758      352.69614      0             -364.34763      0              0              9.4973679      9.5999049      0.2            91.173828    
      9900   0.24460623     0.0014887481   0.0014887481   0              0              1145.5538      2351.9319     -60.988268      0             -247.3682       0              0              9.4964089      9.6188238      0.2            91.344284    
     10000   0.2052198      0.0014223454   0.0014223454   0              0              507.04149      1318.536      -304.59016      0             -473.89157      0              0              9.4954499      9.6187024      0.2            91.333907    
     10100   0.24334218     0.0013213886   0.0013213886   0              0              1654.3101      2934.2356      374.24683      0             -429.21315      0              0              9.494491       9.6138795      0.2            91.278892    
     10200   0.16856672     0.0014992761   0.0014992761   0              0              1010.6109      2015.8363      5.2581125      0             -585.94046      0              0              9.493532       9.621956       0.2            91.346347    
     10300   0.19877323     0.0016298023   0.0016298023   0              0              1016.9092      2264.6582     -231.02614      0             -504.73027      0              0              9.492573       9.6292483      0.2            91.406343    
     10400   0.21404467     0.0014600025   0.0014600025   0              0              1382.681       2449.4508      315.7405       0              99.515654      0              0              9.4916141      9.6219918      0.2            91.328232    
     10500   0.21072866     0.0013721668   0.0013721668   0              0              978.29088      2133.6182     -177.19912      0             -283.92973      0              0              9.4906551      9.6315242      0.2            91.409474    
     10600   0.18710145     0.0013870436   0.0013870436   0              0              1197.9193      2453.0301     -57.347082      0             -471.35175      0              0              9.4896961      9.6223984      0.2            91.313637    
     10700   0.25064952     0.0015745493   0.0015745493   0              0              1213.9177      2172.0911      255.58876      0             -173.18083      0              0              9.4887372      9.6282684      0.2            91.360108    
     10800   0.22545031     0.0014800361   0.0014800361   0              0              1405.1031      3151.1909     -341.12548      0              39.896836      0              0              9.4877782      9.6364474      0.2            91.428475    
     10900   0.23048683     0.0015657598   0.0015657598   0              0              1138.8736      2283.6568     -6.070052       0             -297.19616      0              0              9.4868192      9.6329138      0.2            91.385712    
     11000   0.18923799     0.0013681076   0.0013681076   0              0              1629.5789      2938.8908      320.08916      0              337.70877      0              0              9.4858603      9.6272427      0.2            91.322679    
     11100   0.17352836     0.0015629623   0.0015629623   0              0              1270.2991      2815.3838     -274.95331      0             -231.12627      0              0              9.4849013      9.6293708      0.2            91.333631    
     11200   0.20364719     0.0014259573   0.0014259573   0              0              1014.9281      1906.4614      123.23557      0             -58.235414      0              0              9.4839423      9.6423453      0.2            91.447447    
     11300   0.19292404     0.001618984    0.001618984    0              0              1264.8284      2452.9755      76.533416      0             -55.149284      0              0              9.4829834      9.6408644      0.2            91.424156    
     11400   0.21972245     0.0015741398   0.0015741398   0              0              1236.7404      2685.261      -211.90965      0              292.15602      0              0              9.4820244      9.6407516      0.2            91.413842    
     11500   0.14043534     0.0014584674   0.0014584674   0              0              1725.7681      3164.3997      286.96143      0              194.56311      0              0              9.4810654      9.6347927      0.2            91.3481      
     11600   0.2069133      0.0016674352   0.0016674352   0              0              1133.3284      2380.4129     -113.89371      0              304.91545      0              0              9.4801065      9.6363018      0.2            91.353166    
     11700   0.22633649     0.0016397008   0.0016397008   0              0              1133.0403      2439.3496     -173.43436      0              174.75743      0              0              9.4791475      9.6308363      0.2            91.292118    
     11800   0.16244688     0.0016733144   0.0016733144   0              0              1647.8254      2767.4362      528.05514      0              129.23828      0              0              9.4781885      9.6347297      0.2            91.319784    
     11900   0.26915991     0.0017280412   0.0017280412   0              0              1196.8805      2738.4194     -344.8091       0              274.87176      0              0              9.4772296      9.6348178      0.2            91.31138     
     12000   0.21592478     0.0018442187   0.0018442187   0              0              1250.3434      2796.1081     -295.58555      0              612.33894      0              0              9.4762706      9.6294654      0.2            91.25142     
     12100   0.16200186     0.0016445789   0.0016445789   0              0              2196.57        3546.8784      846.10257      0              373.55566      0              0              9.4753116      9.6222192      0.2            91.173526    
     12200   0.15617298     0.0017496546   0.0017496546   0              0              923.75462      2467.5999     -620.26076      0             -339.74344      0              0              9.4743527      9.6343711      0.2            91.279429    
     12300   0.18108451     0.001662695    0.001662695    0              0              1246.8415      2809.8233     -316.29648      0              66.303799      0              0              9.4733937      9.620787       0.2            91.141502    
     12400   0.1802145      0.0016422487   0.0016422487   0              0              1645.6945      2129.2935      1161.9516      0             -296.84706      0              0              9.4724347      9.6200084      0.2            91.124902    
     12500   0.21511552     0.0017605536   0.0017605536   0              0              835.71231      2684.0894     -1012.815       0              333.80333      0              0              9.4714757      9.6447255      0.2            91.349783    
     12600   0.15297432     0.001745149    0.001745149    0              0              1123.3217      2235.1536      11.305156      0             -363.51126      0              0              9.4705168      9.6462818      0.2            91.355274    
     12700   0.20159097     0.0017543532   0.0017543532   0              0              1758.7923      2582.7146      934.68074      0             -112.70697      0              0              9.4695578      9.6335412      0.2            91.225376    
     12800   0.16333766     0.0017956957   0.0017956957   0              0              404.15902      1752.4437     -944.26442      0              241.59646      0              0              9.4685988      9.6478097      0.2            91.35124     
     12900   0.18947624     0.0019545136   0.0019545136   0              0              1369.0326      2648.7715      89.160524      0             -279.68919      0              0              9.4676399      9.6379241      0.2            91.248394    
     13000   0.21441086     0.0018779375   0.0018779375   0              0              1626.2988      2390.4512      861.98196      0              417.60772      0              0              9.4666809      9.6269947      0.2            91.135687    
     13100   0.17863172     0.001808821    0.001808821    0              0              1210.6594      3619.8224     -1198.6386      0              711.18998      0              0              9.4657219      9.6515764      0.2            91.359138    
     13200   0.1936928      0.0018591502   0.0018591502   0              0              2116.6559      3744.5964      488.54415      0              114.39827      0              0              9.464763       9.6457102      0.2            91.294361    
     13300   0.20316503     0.0019205329   0.0019205329   0              0              2160.4135      3655.2326      665.40683      0              132.97798      0              0              9.463804       9.6411293      0.2            91.241758    
     13400   0.19300429     0.0019645922   0.0019645922   0              0              796.74181      2584.7065     -991.37198      0             -202.8456       0              0              9.462845       9.6540215      0.2            91.35451     
     13500   0.21074474     0.0018942479   0.0018942479   0              0              1575.0107      2621.3559      528.48452      0             -368.72408      0              0              9.4618861      9.6459549      0.2            91.268926    
     13600   0.23045965     0.0019503356   0.0019503356   0              0              2254.2434      3862.9475      645.38205      0             -168.365        0              0              9.4609271      9.6568012      0.2            91.362292    
     13700   0.21148698     0.0021164799   0.0021164799   0              0              806.03646      2682.6491     -1070.7061      0              268.34582      0              0              9.4599681      9.6669093      0.2            91.448654    
     13800   0.15336961     0.0019970916   0.0019970916   0              0              2008.0432      3507.5063      508.43656      0              726.81289      0              0              9.4590092      9.6511239      0.2            91.290069    
     13900   0.1687051      0.0020342929   0.0020342929   0              0              1756.4497      3122.2066      390.52974      0              370.06175      0              0              9.4580502      9.64512        0.2            91.224029    
     14000   0.22289814     0.0019804427   0.0019804427   0              0              911.44802      2683.3775     -860.65894      0              159.93024      0              0              9.4570912      9.6513162      0.2            91.273377    
     14100   0.2171433      0.0020639561   0.0020639561   0              0              1826.0329      3284.1875      367.71748      0              379.01957      0              0              9.4561323      9.6429458      0.2            91.18497     
     14200   0.22652517     0.0022647277   0.0022647277   0              0              2023.8392      3564.6759      482.85664      0              526.39102      0              0              9.4551733      9.6409792      0.2            91.157129    
     14300   0.16658847     0.002093833    0.002093833    0              0              970.11653      2739.0412     -798.97449      0              172.55188      0              0              9.4542143      9.6450914      0.2            91.186761    
     14400   0.24613702     0.0018853189   0.0018853189   0              0              1873.4609      3561.005       185.76129      0              357.64404      0              0              9.4532554      9.6530847      0.2            91.253075    
     14500   0.21857132     0.0022633854   0.0022633854   0              0              2457.7519      4346.0489      569.30335      0             -94.613445      0              0              9.4522964      9.6513463      0.2            91.227386    
     14600   0.2083816      0.0025409642   0.0025409642   0              0              1469.9696      3563.1772     -623.40318      0              566.87698      0              0              9.4513374      9.6631989      0.2            91.330154    
     14700   0.2196338      0.0020181052   0.0020181052   0              0              1734.8833      3373.2793      96.347667      0              591.94111      0              0              9.4503785      9.6496064      0.2            91.192433    
     14800   0.19402331     0.0022786727   0.0022786727   0              0              2177.3268      3854.2676      500.22627      0              618.54518      0              0              9.4494195      9.6550112      0.2            91.234251    
     14900   0.23588184     0.0023127565   0.0023127565   0              0              1173.6175      2934.4214     -587.31573      0              618.14121      0              0              9.4484605      9.658156       0.2            91.254705    
     15000   0.21548902     0.0020548393   0.0020548393   0              0              1538.4068      2966.4441      110.23978      0              312.73653      0              0              9.4475016      9.6497751      0.2            91.166265    
     15100   0.19912649     0.0021454103   0.0021454103   0              0              1691.2003      2992.1245      390.12134      0              82.565061      0              0              9.4465426      9.6387189      0.2            91.052569    
     15200   0.2312807      0.0022752195   0.0022752195   0              0              1016.8347      2409.3352     -375.82503      0             -136.51425      0              0              9.4455836      9.6428926      0.2            91.082748    
     15300   0.17863608     0.0021867415   0.0021867415   0              0              1513.7412      3048.1093     -20.811157      0              70.448224      0              0              9.4446246      9.6432896      0.2            91.07725     
     15400   0.16387283     0.0020053251   0.0020053251   0              0              1885.2681      3370.5984      399.81615      0             -68.898222      0              0              9.4436657      9.6402724      0.2            91.03951     
     15500   0.19998164     0.0022834128   0.0022834128   0              0              1002.4552      2344.0056     -339.2675       0              172.30835      0              0              9.4427067      9.6399943      0.2            91.027639    
     15600   0.18822498     0.0021383721   0.0021383721   0              0              1179.4758      2381.254      -22.528079      0             -344.79499      0              0              9.4417477      9.6452182      0.2            91.067717    
     15700   0.20335273     0.0023589565   0.0023589565   0              0              1797.3944      3188.1221      406.47903      0             -50.165549      0              0              9.4407888      9.6337739      0.2            90.950425    
     15800   0.18797659     0.0024203344   0.0024203344   0              0              1288.1551      2858.5727     -282.43667      0             -435.71096      0              0              9.4398298      9.636259       0.2            90.964645    
     15900   0.23156642     0.0023197566   0.0023197566   0              0              1344.1222      2774.6251     -86.533732      0              282.71341      0              0              9.4388708      9.6501554      0.2            91.08657     
     16000   0.26944054     0.0022918047   0.0022918047   0              0              1848.3983      3369.2294      327.43686      0              374.19925      0              0              9.4379119      9.646111       0.2            91.039146    
     16100   0.23955731     0.0022193607   0.0022193607   0              0              1733.0244      3557.4498     -91.590987      0              85.618052      0              0              9.4369529      9.6339257      0.2            90.914903    
     16200   0.18673975     0.0024208332   0.0024208332   0              0              1136.0001      2598.6952     -326.87277      0             -144.93838      0              0              9.4359939      9.6364204      0.2            90.929204    
     16300   0.21559437     0.0022017045   0.0022017045   0              0              1961.5599      3669.5468      253.42704      0              936.72215      0              0              9.435035       9.645667       0.2            91.007206    
     16400   0.24453422     0.0024615073   0.0024615073   0              0              2195.6011      4235.0587      155.98865      0              716.64271      0              0              9.434076       9.6416044      0.2            90.959628    
     16500   0.23829488     0.0023899356   0.0023899356   0              0              1007.2922      2587.6404     -573.19403      0             -221.97276      0              0              9.433117       9.6549255      0.2            91.076042    
     16600   0.16962554     0.0025380735   0.0025380735   0              0              1654.8672      3091.126       218.41679      0             -126.36976      0              0              9.4321581      9.6484612      0.2            91.005811    
     16700   0.21686568     0.0023465426   0.0023465426   0              0              1805.6114      3238.0748      372.96836      0              319.65868      0              0              9.4311991      9.6412287      0.2            90.928347    
     16800   0.18313955     0.0025382355   0.0025382355   0              0              1569.7259      3577.8175     -438.50171      0              134.92654      0              0              9.4302401      9.6435341      0.2            90.940843    
     16900   0.18691847     0.0024054286   0.0024054286   0              0              1714.1451      3447.7405     -19.607316      0              57.179713      0              0              9.4292812      9.6513089      0.2            91.004905    
     17000   0.22771008     0.0028422498   0.0028422498   0              0              1808.6576      3175.5534      441.58778      0             -216.53788      0              0              9.4283222      9.6447295      0.2            90.933617    
     17100   0.27031897     0.0027117508   0.0027117508   0              0              1102.4119      2611.8251     -407.15923      0              225.05782      0              0              9.4273632      9.6450071      0.2            90.926985    
     17200   0.22017685     0.0025821502   0.0025821502   0              0              961.40594      2208.4489     -285.78785      0             -189.35801      0              0              9.4264043      9.6390166      0.2            90.861267    
     17300   0.13930342     0.0026026693   0.0026026693   0              0              1985.1641      3058.9031      911.3003       0              406.85145      0              0              9.4254453      9.6321195      0.2            90.787016    
     17400   0.20790344     0.0024297987   0.0024297987   0              0              1547.0459      3437.1578     -343.22313      0             -135.1574       0              0              9.4244863      9.6401114      0.2            90.853098    
     17500   0.20712851     0.0023712816   0.0023712816   0              0              1044.3802      2875.0852     -786.48601      0              344.75321      0              0              9.4235274      9.6466704      0.2            90.905662    
     17600   0.17501948     0.0024381743   0.0024381743   0              0              2458.3724      3941.8731      974.68166      0             -467.01755      0              0              9.4225684      9.6338313      0.2            90.775434    
     17700   0.22879003     0.0022251438   0.0022251438   0              0              2013.7646      3995.2512      32.127849      0              369.79295      0              0              9.4216094      9.6300214      0.2            90.7303      
     17800   0.28447565     0.0024739882   0.0024739882   0              0              881.40527      2887.1434     -1124.5295      0             -31.382278      0              0              9.4206505      9.6464014      0.2            90.875375    
     17900   0.19299823     0.0024645676   0.0024645676   0              0              2243.7373      3611.6594      875.64069      0              66.093668      0              0              9.4196915      9.6321681      0.2            90.732052    
     18000   0.18743604     0.002627583    0.002627583    0              0              2243.9657      3933.3151      554.42827      0              220.79731      0              0              9.4187325      9.6353514      0.2            90.752797    
     18100   0.1260904      0.0025306711   0.0025306711   0              0              692.18601      2727.3237     -1343.1079      0              517.16237      0              0              9.4177735      9.6455093      0.2            90.839222    
     18200   0.20955369     0.0026134427   0.0026134427   0              0              1966.1575      3478.0308      454.1009       0              139.88848      0              0              9.4168146      9.6331554      0.2            90.713638    
     18300   0.21300702     0.0024855688   0.0024855688   0              0              2681.453       4337.1567      1025.5982      0              409.15011      0              0              9.4158556      9.6277538      0.2            90.65354     
     18400   0.20793353     0.0026622131   0.0026622131   0              0              978.34348      3221.3399     -1264.8061      0              809.07692      0              0              9.4148966      9.6439984      0.2            90.797248    
     18500   0.21680881     0.0025901973   0.0025901973   0              0              1742.669       3584.4225     -99.245184      0              71.000909      0              0              9.4139377      9.6296272      0.2            90.65271     
     18600   0.1947406      0.0027506242   0.0027506242   0              0              2293.32        3355.0103      1231.4575      0              590.92815      0              0              9.4129787      9.6222756      0.2            90.574275    
     18700   0.22613239     0.002754073    0.002754073    0              0              1736.1561      4143.6811     -671.49958      0              73.858403      0              0              9.4120197      9.632604       0.2            90.662259    
     18800   0.18800472     0.0028635186   0.0028635186   0              0              1542.117       3807.6804     -723.59698      0              236.58508      0              0              9.4110608      9.626804       0.2            90.598437    
     18900   0.19286649     0.0027789898   0.0027789898   0              0              3102.8457      5145.524       1060.0024      0              380.7506       0              0              9.4101018      9.6210883      0.2            90.535421    
     19000   0.21099363     0.0027305829   0.0027305829   0              0              1687.8963      3569.2724     -193.64377      0              677.0654       0              0              9.4091428      9.6263951      0.2            90.576126    
     19100   0.14068332     0.00274002     0.00274002     0              0              1468.9118      3724.6956     -787.02322      0              756.89372      0              0              9.4081839      9.63678        0.2            90.664598    
     19200   0.26988972     0.0026901327   0.0026901327   0              0              2094.8308      3410.9477      778.52565      0              249.06741      0              0              9.4072249      9.6369094      0.2            90.656574    
     19300   0.26472733     0.0025226461   0.0025226461   0              0              2376.4967      4560.7335      192.08919      0              470.81347      0              0              9.4062659      9.6281593      0.2            90.565027    
     19400   0.19963303     0.0026724543   0.0026724543   0              0              1274.912       3367.5061     -817.86168      0              354.71812      0              0              9.405307       9.6409146      0.2            90.675761    
     19500   0.20182698     0.0026490854   0.0026490854   0              0              1713.1996      3159.4836      266.76909      0              463.42183      0              0              9.404348       9.6293073      0.2            90.557357    
     19600   0.16314001     0.0028407446   0.0028407446   0              0              2112.5315      3748.3726      476.55231      0             -167.97046      0              0              9.403389       9.629547       0.2            90.550376    
     19700   0.20684606     0.0028230657   0.0028230657   0              0              1873.5487      4289.7494     -542.80615      0              456.89785      0              0              9.4024301      9.6316965      0.2            90.561353    
     19800   0.21137544     0.0030659039   0.0030659039   0              0              2113.8674      4274.1901     -46.595328      0              4.9026006      0              0              9.4014711      9.6298459      0.2            90.534718    
     19900   0.2228132      0.0028397686   0.0028397686   0              0              2711.0301      4749.2823      672.596        0              289.40641      0              0              9.4005121      9.6228671      0.2            90.459879    
     20000   0.229523       0.002917956    0.002917956    0              0              1480.7434      3180.1763     -218.87373      0              425.78847      0              0              9.3995532      9.6258202      0.2            90.478409    
     20100   0.25285983     0.0030584611   0.0030584611   0              0              1630.1953      3857.7366     -597.53038      0              246.43543      0              0              9.3985942      9.6405817      0.2            90.607915    
     20200   0.22851886     0.002968703    0.002968703    0              0              2505.8911      4535.9826      475.64855      0             -660.83892      0              0              9.3976352      9.6307417      0.2            90.506198    
     20300   0.22502984     0.0029505776   0.0029505776   0              0              2232.9332      4080.8624      384.82451      0              297.56337      0              0              9.3966763      9.6335087      0.2            90.522963    
     20400   0.21075821     0.0029955299   0.0029955299   0              0              1519.3369      3766.9562     -728.39564      0              312.25906      0              0              9.3957173      9.6444291      0.2            90.616329    
     20500   0.19053039     0.0029584541   0.0029584541   0              0              1987.4605      3922.0087      52.766637      0              413.82047      0              0              9.3947583      9.6385484      0.2            90.551833    
     20600   0.20356479     0.0031875378   0.0031875378   0              0              2958.2692      5293.9455      622.43023      0             -130.07704      0              0              9.3937994      9.6264948      0.2            90.429361    
     20700   0.22793453     0.002933427    0.002933427    0              0              1425.5963      3232.3258     -381.30048      0              520.06853      0              0              9.3928404      9.6354699      0.2            90.504431    
     20800   0.22036538     0.0030022636   0.0030022636   0              0              1514.888       3481.5116     -451.92222      0              176.33456      0              0              9.3918814      9.6316588      0.2            90.459398    
     20900   0.22261815     0.0029480615   0.0029480615   0              0              1990.7929      3279.3014      702.11843      0              310.88771      0              0              9.3909225      9.6263904      0.2            90.400685    
     21000   0.23073452     0.0029604528   0.0029604528   0              0              1709.4333      3277.2201      141.49221      0              386.32356      0              0              9.3899635      9.6335353      0.2            90.458545    
     21100   0.21242872     0.0033013987   0.0033013987   0              0              1494.1091      3815.9482     -827.89151      0              522.59256      0              0              9.3890045      9.6528426      0.2            90.630583    
     21200   0.21432648     0.0031820033   0.0031820033   0              0              2078.0212      3944.7998      211.09374      0             -75.249267      0              0              9.3880455      9.6348254      0.2            90.45218     
     21300   0.17644585     0.0032417119   0.0032417119   0              0              2603.6693      4439.2025      767.97442      0              768.14662      0              0              9.3870866      9.6356503      0.2            90.450684    
     21400   0.22101004     0.0029583787   0.0029583787   0              0              2024.7249      4539.6969     -490.4207       0              663.91855      0              0              9.3861276      9.6386804      0.2            90.469884    
     21500   0.23284794     0.0031687536   0.0031687536   0              0              1925.4054      4396.4992     -545.8544       0              590.87234      0              0              9.3851686      9.6344335      0.2            90.420783    
     21600   0.21795566     0.0031881499   0.0031881499   0              0              2718.4685      4755.1799      681.63773      0              535.5199       0              0              9.3842097      9.6237984      0.2            90.311743    
     21700   0.25490915     0.0033093923   0.0033093923   0              0              2552.0517      4825.285       278.6581       0             -228.25698      0              0              9.3832507      9.6340424      0.2            90.398635    
     21800   0.28501864     0.0032711928   0.0032711928   0              0              1762.7407      4259.5381     -734.21492      0              1055.2801      0              0              9.3822917      9.6464208      0.2            90.505535    
     21900   0.2127219      0.003221027    0.003221027    0              0              2121.3905      4338.7019     -96.119226      0             -241.43015      0              0              9.3813328      9.635029       0.2            90.389413    
     22000   0.18328253     0.0031794653   0.0031794653   0              0              2175.4819      3744.8081      606.00662      0              417.01662      0              0              9.3803738      9.6209481      0.2            90.24809     
     22100   0.21347479     0.0033704504   0.0033704504   0              0              2629.01        5525.6841     -267.84458      0              610.68213      0              0              9.3794148      9.6266669      0.2            90.292502    
     22200   0.18844087     0.0035057057   0.0035057057   0              0              2283.275       4999.3745     -432.98752      0              319.47731      0              0              9.3784559      9.6340959      0.2            90.352943    
     22300   0.17918898     0.0033305916   0.0033305916   0              0              2309.2798      4331.1487      287.26517      0              293.10039      0              0              9.3774969      9.6225803      0.2            90.235717    
     22400   0.17558378     0.0034871445   0.0034871445   0              0              2511.7954      4740.6702      282.77388      0             -101.66346      0              0              9.3765379      9.6233082      0.2            90.233315    
     22500   0.16808441     0.0035880264   0.0035880264   0              0              2565.2469      5497.0545     -366.7153       0              103.13172      0              0              9.375579       9.6175041      0.2            90.16967     
     22600   0.20708417     0.0037404801   0.0037404801   0              0              2887.8042      5862.2488     -86.814274      0              780.01213      0              0              9.37462        9.621562       0.2            90.198487    
     22700   0.27218946     0.0038064552   0.0038064552   0              0              2495.7922      4650.986       340.44294      0              449.67566      0              0              9.373661       9.6139278      0.2            90.1177      
     22800   0.21212427     0.0034947682   0.0034947682   0              0              2763.0998      5625.4469     -99.418101      0              610.17076      0              0              9.3727021      9.6286187      0.2            90.246175    
     22900   0.28751835     0.0036573125   0.0036573125   0              0              2173.3485      4617.9672     -271.44249      0              1263.7416      0              0              9.3717431      9.6207796      0.2            90.163474    
     23000   0.23184175     0.0036887887   0.0036887887   0              0              2686.0843      5169.3118      202.69213      0              909.32237      0              0              9.3707841      9.6159347      0.2            90.108848    
     23100   0.19065451     0.0036443284   0.0036443284   0              0              3232.5563      6369.1754      95.801318      0              1224.8652      0              0              9.3698252      9.6096817      0.2            90.041038    
     23200   0.2454541      0.003794837    0.003794837    0              0              2794.7425      5865.6106     -276.30801      0              596.14003      0              0              9.3688662      9.6153377      0.2            90.084813    
     23300   0.2433324      0.0034704658   0.0034704658   0              0              2269.4665      4512.9437      25.848569      0              451.87838      0              0              9.3679072      9.6157116      0.2            90.079094    
     23400   0.20764513     0.0036109221   0.0036109221   0              0              2944.4561      5653.4851      235.2695       0              199.79985      0              0              9.3669483      9.5994367      0.2            89.917427    
     23500   0.28218702     0.0035599736   0.0035599736   0              0              2149.4004      4451.1252     -152.47852      0              328.50831      0              0              9.3659893      9.6107604      0.2            90.014279    
     23600   0.1721627      0.0036393246   0.0036393246   0              0              2890.8173      5900.381      -118.90225      0              427.24601      0              0              9.3650303      9.6152327      0.2            90.046946    
     23700   0.19914733     0.0036081681   0.0036081681   0              0              2727.0138      5313.1731      140.65928      0              773.9749       0              0              9.3640714      9.6185623      0.2            90.068904    
     23800   0.18744315     0.0034870643   0.0034870643   0              0              2394.3682      4924.4493     -135.90166      0              21.542487      0              0              9.3631124      9.6185926      0.2            90.059963    
     23900   0.18826127     0.0036487252   0.0036487252   0              0              2600.9368      5207.0345     -5.3314058      0              108.98759      0              0              9.3621534      9.6180828      0.2            90.045967    
     24000   0.17912964     0.0036088136   0.0036088136   0              0              2915.237       5652.702       177.63469      0              352.22471      0              0              9.3611944      9.6077835      0.2            89.94033     
     24100   0.23954285     0.0034569961   0.0034569961   0              0              2597.7931      5143.3989      52.037713      0              74.420642      0              0              9.3602355      9.6198461      0.2            90.044025    
     24200   0.21299504     0.0036964143   0.0036964143   0              0              2345.4722      4749.0534     -58.267915      0             -196.01636      0              0              9.3592765      9.621782       0.2            90.052918    
     24300   0.18517301     0.0038281835   0.0038281835   0              0              2556.0694      5132.0352     -20.085453      0             -144.12981      0              0              9.3583175      9.6113784      0.2            89.946331    
     24400   0.19621578     0.0036885976   0.0036885976   0              0              2028.0784      4035.7813      20.225559      0              159.90559      0              0              9.3573586      9.6159265      0.2            89.979672    
     24500   0.20104557     0.0038803995   0.0038803995   0              0              2372.9989      4922.859      -176.99759      0              906.41005      0              0              9.3563996      9.6221394      0.2            90.028581    
     24600   0.21275297     0.0037702254   0.0037702254   0              0              3051.9784      5998.9014      104.89491      0              267.60856      0              0              9.3554406      9.6142362      0.2            89.945416    
     24700   0.16918532     0.0036245548   0.0036245548   0              0              2430.2428      4811.0911      49.270387      0              748.35387      0              0              9.3544817      9.6248013      0.2            90.035027    
     24800   0.17058447     0.0038172769   0.0038172769   0              0              2296.4763      4625.5706     -32.753161      0              146.15661      0              0              9.3535227      9.6221653      0.2            90.001141    
     24900   0.20484124     0.0037132927   0.0037132927   0              0              2131.8476      4357.8099     -94.266725      0             -20.526935      0              0              9.3525637      9.6255273      0.2            90.023358    
     25000   0.17923689     0.0037972389   0.0037972389   0              0              2311.8399      4574.8852      48.646314      0              810.74011      0              0              9.3516048      9.6195512      0.2            89.958241    
     25100   0.20890699     0.0036255075   0.0036255075   0              0              2703.7519      5101.8914      305.44069      0              571.55477      0              0              9.3506458      9.6186899      0.2            89.940963    
     25200   0.24152386     0.0037028438   0.0037028438   0              0              2493.2848      5106.9517     -120.53868      0              898.34442      0              0              9.3496868      9.6163106      0.2            89.909492    
     25300   0.26497464     0.003809766    0.003809766    0              0              2292.5408      4782.9599     -198.02524      0              1031.1618      0              0              9.3487279      9.6315151      0.2            90.042414    
     25400   0.22196956     0.0037770571   0.0037770571   0              0              2190.7265      4243.6394      137.64729      0              689.5402       0              0              9.3477689      9.6279941      0.2            90.000264    
     25500   0.20650228     0.0038963612   0.0038963612   0              0              2806.1082      5316.3076      295.70535      0              896.85161      0              0              9.3468099      9.6262537      0.2            89.974764    
     25600   0.23038321     0.0039650954   0.0039650954   0              0              2102.698       4518.4216     -313.20807      0             -14.797867      0              0              9.345851       9.6317941      0.2            90.017312    
     25700   0.18175795     0.0038831933   0.0038831933   0              0              2498.9848      5293.9175     -296.12999      0              987.15223      0              0              9.344892       9.6263121      0.2            89.956847    
     25800   0.22386095     0.00389417     0.00389417     0              0              2419.1821      4542.3158      295.89558      0             -323.73269      0              0              9.343933       9.615395       0.2            89.845607    
     25900   0.21117988     0.0039226051   0.0039226051   0              0              1924.4978      3584.7581      264.10988      0             -25.169357      0              0              9.3429741      9.6179258      0.2            89.860031    
     26000   0.17182435     0.0040279921   0.0040279921   0              0              1823.9466      3916.143      -268.42656      0              756.14847      0              0              9.3420151      9.6153207      0.2            89.826472    
     26100   0.19250657     0.0040160106   0.0040160106   0              0              2337.0765      4934.4927     -260.51468      0              1260.4452      0              0              9.3410561      9.6121694      0.2            89.787814    
     26200   0.19712417     0.0039906163   0.0039906163   0              0              2863.583       5517.9319      209.04562      0              1102.9481      0              0              9.3400972      9.6193099      0.2            89.845289    
     26300   0.19824495     0.0038969579   0.0038969579   0              0              2712.6656      5067.126       358.01705      0             -130.11268      0              0              9.3391382      9.6135947      0.2            89.782689    
     26400   0.22037706     0.0039018633   0.0039018633   0              0              2267.4948      4777.1528     -242.30757      0              328.42324      0              0              9.3381792      9.6163644      0.2            89.799334    
     26500   0.16167229     0.0039253017   0.0039253017   0              0              2418.503       5188.4008     -351.56157      0              966.81139      0              0              9.3372203      9.6094269      0.2            89.725336    
     26600   0.18206182     0.0041120085   0.0041120085   0              0              2616.414       4990.3111      242.39436      0             -380.19408      0              0              9.3362613      9.6071889      0.2            89.695226    
     26700   0.19561973     0.0040628284   0.0040628284   0              0              2782.9982      5182.7652      383.05843      0              210.96381      0              0              9.3353023      9.6150529      0.2            89.759426    
     26800   0.21090961     0.0039436808   0.0039436808   0              0              2332.2146      4832.8175     -168.53285      0             -139.56931      0              0              9.3343433      9.6170736      0.2            89.769067    
     26900   0.26997622     0.0038860331   0.0038860331   0              0              2181.3686      4785.3288     -422.77017      0             -440.156        0              0              9.3333844      9.6141891      0.2            89.732923    
     27000   0.1801104      0.0038667856   0.0038667856   0              0              2743.0357      5212.3276      273.58501      0              667.45439      0              0              9.3324254      9.6031097      0.2            89.620305    
     27100   0.169934       0.0039921027   0.0039921027   0              0              2886.7907      5341.7028      431.68777      0              220.64049      0              0              9.3314664      9.5945662      0.2            89.531373    
     27200   0.25612483     0.0037756285   0.0037756285   0              0              2406.8142      5316.3834     -502.9643       0              244.96156      0              0              9.3305075      9.6002344      0.2            89.575059    
     27300   0.21203072     0.0038788556   0.0038788556   0              0              2161.7617      4755.044      -431.6876       0              152.73727      0              0              9.3295485      9.599195       0.2            89.556156    
     27400   0.18385582     0.004098971    0.004098971    0              0              2957.4802      5347.6579      567.11181      0              474.68615      0              0              9.3285895      9.6009617      0.2            89.563431    
     27500   0.19631245     0.0037817058   0.0037817058   0              0              3189.3271      5963.1318      415.36835      0              50.222841      0              0              9.3276306      9.6036869      0.2            89.579643    
     27600   0.2073119      0.003933404    0.003933404    0              0              2547.6471      5700.0508     -604.90314      0              547.95909      0              0              9.3266716      9.6093478      0.2            89.623231    
     27700   0.19602575     0.0041165618   0.0041165618   0              0              2743.6153      5969.2374     -482.17639      0              390.34791      0              0              9.3257126      9.6009755      0.2            89.535938    
     27800   0.26403646     0.0043884328   0.0043884328   0              0              3231.1389      5815.0364      647.10465      0              771.58279      0              0              9.3247537      9.5981981      0.2            89.500833    
     27900   0.28741864     0.0041740216   0.0041740216   0              0              2783.3564      4887.8708      678.67904      0              178.45131      0              0              9.3237947      9.5885403      0.2            89.401581    
[...]
     42900   0.22575965     0.0019652374   0.0019652374   0              0              744.28383      2526.6438     -1038.2477      0              781.93363      0              0              9.1799495      9.3653613      0.2            85.973544    
     43000   0.17953891     0.0020360906   0.0020360906   0              0              1177.3859      2818.5        -463.90618      0              1192.697       0              0              9.1789906      9.3590239      0.2            85.906392    
     43100   0.16587008     0.0020609682   0.0020609682   0              0              1967.5301      3216.9444      717.99366      0              882.38269      0              0              9.1780316      9.3553387      0.2            85.863594    
     43200   0.21027372     0.0021707592   0.0021707592   0              0              2172.1281      3082.9801      1261.1101      0              878.42408      0              0              9.1770726      9.3511781      0.2            85.81644     
     43300   0.19136422     0.0024004672   0.0024004672   0              0              1360.2113      2071.6489      648.62067      0             -341.00215      0              0              9.1761137      9.3567962      0.2            85.859026    
     43400   0.24682124     0.0021503356   0.0021503356   0              0              879.78826      2308.6303     -549.2053       0              892.13928      0              0              9.1751547      9.3623229      0.2            85.900761    
     43500   0.22755741     0.0023632804   0.0023632804   0              0              280.24296      1900.2638     -1339.9322      0              811.77025      0              0              9.1741957      9.359837       0.2            85.868977    
     43600   0.22424058     0.0020709107   0.0020709107   0              0              329.4356       1619.1131     -960.41644      0              1128.5169      0              0              9.1732368      9.368928       0.2            85.943395    
     43700   0.15299239     0.0020268449   0.0020268449   0              0              1697.353       3169.8712      224.67735      0              145.73625      0              0              9.1722778      9.3627757      0.2            85.877979    
     43800   0.2206243      0.0022001982   0.0022001982   0              0              1862.6417      2486.923       1238.2314      0              646.76796      0              0              9.1713188      9.3604916      0.2            85.848053    
     43900   0.25468416     0.0020714643   0.0020714643   0              0              1656.9735      2287.7698      1025.9856      0              825.71015      0              0              9.1703599      9.3453057      0.2            85.699816    
     44000   0.19540713     0.0021149627   0.0021149627   0              0              958.90441      1961.5038     -43.829873      0              362.12581      0              0              9.1694009      9.3516134      0.2            85.748693    
     44100   0.22844506     0.0020571372   0.0020571372   0              0              69.734277      1181.6859     -1042.3869      0              580.35324      0              0              9.1684419      9.3621308      0.2            85.836153    
     44200   0.19915686     0.0020744339   0.0020744339   0              0              509.10284      2042.5859     -1024.588       0              301.94527      0              0              9.167483       9.3701346      0.2            85.900549    
     44300   0.19955815     0.0020918996   0.0020918996   0              0              1005.9264      2164.5475     -152.84968      0              730.10884      0              0              9.166524       9.369523       0.2            85.885957    
     44400   0.23759752     0.0021585107   0.0021585107   0              0              1917.7485      3110.2095      725.14744      0              724.57906      0              0              9.165565       9.3651609      0.2            85.836991    
     44500   0.16251614     0.0019743005   0.0019743005   0              0              1820.97        2721.849       919.93289      0              690.85581      0              0              9.164606       9.3557552      0.2            85.741811    
     44600   0.19666549     0.0023063419   0.0023063419   0              0              1602.3675      2891.9499      312.61825      0              499.2444       0              0              9.1636471      9.3558212      0.2            85.733443    
     44700   0.22234381     0.0022224523   0.0022224523   0              0              1296.8557      3068.7392     -475.18159      0              924.95514      0              0              9.1626881      9.3630141      0.2            85.790378    
     44800   0.30899506     0.0020586121   0.0020586121   0              0              433.73265      1772.0738     -904.79547      0              628.00625      0              0              9.1617291      9.371576       0.2            85.859841    
     44900   0.19071611     0.0020827172   0.0020827172   0              0              414.1672       1431.4387     -603.27992      0              801.79079      0              0              9.1607702      9.3677974      0.2            85.816239    
     45000   0.26911103     0.0023083074   0.0023083074   0              0              1444.3613      2763.0833      125.48891      0              1056.899       0              0              9.1598112      9.3604104      0.2            85.739592    
     45100   0.27401102     0.0021761412   0.0021761412   0              0              1563.4096      2409.0758      717.60672      0              1017.1735      0              0              9.1588522      9.3588369      0.2            85.716205    
     45200   0.21171373     0.0022217733   0.0022217733   0              0              1195.4443      1722.7212      668.01502      0              358.3238       0              0              9.1578933      9.3431735      0.2            85.563786    
     45300   0.19889497     0.0023183034   0.0023183034   0              0              984.03452      1866.6051      101.22807      0              786.77979      0              0              9.1569343      9.3331903      0.2            85.463411    
     45400   0.24217017     0.0020754647   0.0020754647   0              0              624.88842      1819.6091     -570.02596      0              569.07455      0              0              9.1559753      9.3423891      0.2            85.538684    
     45500   0.19132444     0.0020076971   0.0020076971   0              0             -30.447087      631.00284     -692.0677       0              774.38872      0              0              9.1550164      9.3473949      0.2            85.575554    
     45600   0.17411712     0.0019235377   0.0019235377   0              0              923.7935       2154.4112     -306.95869      0              753.32209      0              0              9.1540574      9.3438081      0.2            85.533756    
     45700   0.19327754     0.0020717094   0.0020717094   0              0              1367.0502      2374.9652      358.94018      0              437.04881      0              0              9.1530984      9.346065       0.2            85.545453    
     45800   0.2360663      0.00193447     0.00193447     0              0              1755.8462      2641.7715      869.76737      0              996.95482      0              0              9.1521395      9.3418382      0.2            85.497806    
     45900   0.22655988     0.0021184005   0.0021184005   0              0              1405.0321      2179.7415      630.16282      0              901.8154       0              0              9.1511805      9.3342005      0.2            85.418953    
     46000   0.17118006     0.0022512994   0.0022512994   0              0              682.52336      1442.3513     -77.508552      0              1189.9999      0              0              9.1502215      9.3430414      0.2            85.490898    
     46100   0.24327516     0.0020434573   0.0020434573   0              0              546.02731      1808.2147     -716.31708      0              773.54265      0              0              9.1492626      9.3482062      0.2            85.529193    
     46200   0.1727945      0.0022317314   0.0022317314   0              0              257.55225      1368.9804     -854.06583      0              451.70865      0              0              9.1483036      9.3484973      0.2            85.522891    
     46300   0.16112516     0.0020211273   0.0020211273   0              0              649.21355      1504.6349     -206.35944      0              103.48604      0              0              9.1473446      9.3385739      0.2            85.423154    
     46400   0.20722499     0.0021285445   0.0021285445   0              0              1836.3132      3088.8296      583.64479      0              668.63638      0              0              9.1463857      9.3347179      0.2            85.37893     
     46500   0.17147295     0.0022369814   0.0022369814   0              0              1969.7191      3198.4452      740.83244      0              579.05618      0              0              9.1454267      9.3330399      0.2            85.354632    
     46600   0.27058341     0.0020057935   0.0020057935   0              0              1702.8144      3037.1666      368.2778       0              861.26362      0              0              9.1444677      9.3359735      0.2            85.372509    
     46700   0.26613317     0.0021077888   0.0021077888   0              0              1072.3885      2477.6336     -333.07424      0              307.11679      0              0              9.1435088      9.3367585      0.2            85.370733    
     46800   0.17213608     0.0019265919   0.0019265919   0              0              991.29771      2590.9549     -608.55329      0              593.98464      0              0              9.1425498      9.3304072      0.2            85.303713    
     46900   0.2385295      0.0021764352   0.0021764352   0              0              806.19206      1970.0028     -357.812        0              1379.4776      0              0              9.1415908      9.3341699      0.2            85.329162    
     47000   0.22534912     0.0022823387   0.0022823387   0              0              1006.0941      1886.6441      125.35351      0              818.53901      0              0              9.1406319      9.3376899      0.2            85.352386    
     47100   0.23455916     0.0019838375   0.0019838375   0              0              1732.0692      2983.2037      480.80472      0              94.786223      0              0              9.1396729      9.33426        0.2            85.312083    
     47200   0.15063101     0.0020251643   0.0020251643   0              0              1510.0607      2520.8361      499.10473      0              1448.4584      0              0              9.1387139      9.3449768      0.2            85.401069    
     47300   0.22862026     0.0021265577   0.0021265577   0              0              1487.7089      2756.094       219.17065      0              1122.7941      0              0              9.1377549      9.3343577      0.2            85.295074    
     47400   0.18881286     0.0023849908   0.0023849908   0              0              542.31805      1227.7238     -143.25008      0              748.18717      0              0              9.136796       9.3294665      0.2            85.241432    
     47500   0.20652152     0.0021100408   0.0021100408   0              0              470.26786      1270.3841     -329.98521      0              421.11603      0              0              9.135837       9.3439553      0.2            85.364852    
     47600   0.21382056     0.0019943677   0.0019943677   0              0              671.58263      1716.5798     -373.57744      0              522.55868      0              0              9.134878       9.3483645      0.2            85.39617     
     47700   0.22993418     0.0021205289   0.0021205289   0              0              883.27398      1871.4003     -105.04732      0              309.42891      0              0              9.1339191      9.3474909      0.2            85.379225    
     47800   0.21081388     0.001975279    0.001975279    0              0              1664.5405      3315.7321      13.209954      0              800.37457      0              0              9.1329601      9.3560335      0.2            85.448281    
     47900   0.20834292     0.0020978362   0.0020978362   0              0              1967.5949      3711.1223      223.88683      0              945.93575      0              0              9.1320011      9.3451997      0.2            85.340374    
     48000   0.17741675     0.0020657662   0.0020657662   0              0              1456.4323      2589.2709      323.38941      0             -275.35544      0              0              9.1310422      9.340956       0.2            85.292664    
     48100   0.22116189     0.0019214316   0.0019214316   0              0              1207.673       2275.9179      139.23778      0              272.72957      0              0              9.1300832      9.3406422      0.2            85.280841    
     48200   0.17270863     0.0022408654   0.0022408654   0              0              1169.2758      2393.1031     -54.704565      0             -216.57179      0              0              9.1291242      9.3427466      0.2            85.291094    
     48300   0.22988786     0.0020819723   0.0020819723   0              0              738.82473      1800.5841     -323.09444      0              679.98683      0              0              9.1281653      9.3440144      0.2            85.293707    
     48400   0.19723243     0.0024682776   0.0024682776   0              0              858.84778      2200.8077     -483.24768      0              518.39988      0              0              9.1272063      9.3445978      0.2            85.290072    
     48500   0.23573935     0.002040968    0.002040968    0              0              748.65601      1842.574      -345.44306      0              425.47132      0              0              9.1262473      9.3435863      0.2            85.27188     
     48600   0.20253782     0.0021896109   0.0021896109   0              0              1497.9796      2977.6166      18.200083      0              158.72928      0              0              9.1252884      9.3405064      0.2            85.234814    
     48700   0.20614454     0.0020160403   0.0020160403   0              0              1707.8985      2985.6151      429.97652      0              736.57995      0              0              9.1243294      9.3424326      0.2            85.243433    
     48800   0.20657974     0.0020278471   0.0020278471   0              0              1677.5229      2546.1204      808.7584       0              314.31719      0              0              9.1233704      9.3369799      0.2            85.184726    
     48900   0.20664009     0.0019538052   0.0019538052   0              0              1409.6275      2245.4095      573.68945      0              69.684252      0              0              9.1224115      9.33381        0.2            85.146855    
     49000   0.17391479     0.001911866    0.001911866    0              0              1044.9365      2277.0676     -187.37268      0              128.84488      0              0              9.1214525      9.340971       0.2            85.203223    
     49100   0.23703682     0.0020836245   0.0020836245   0              0              42.986873      963.71794     -877.92707      0              873.28886      0              0              9.1204935      9.3498264      0.2            85.275031    
     49200   0.23111142     0.0020599585   0.0020599585   0              0              198.22599      1512.9783     -1116.6682      0              518.82232      0              0              9.1195346      9.3522992      0.2            85.288616    
     49300   0.15182955     0.0020102289   0.0020102289   0              0              916.82586      2393.3333     -559.82209      0              174.4881       0              0              9.1185756      9.3377722      0.2            85.147182    
     49400   0.25764913     0.0018778814   0.0018778814   0              0              1379.5644      2364.389       394.55108      0              732.28341      0              0              9.1176166      9.331359       0.2            85.079754    
     49500   0.23578861     0.0020753094   0.0020753094   0              0              2340.1777      3513.3044      1166.8948      0              1624.8944      0              0              9.1166577      9.3284908      0.2            85.044657    
     49600   0.24589179     0.0019914598   0.0019914598   0              0              1615.1055      1873.7872      1356.2642      0              714.51681      0              0              9.1156987      9.3234923      0.2            84.990146    
     49700   0.25409491     0.0020613059   0.0020613059   0              0              1205.6157      1709.7909      701.23825      0              849.04209      0              0              9.1147397      9.3129922      0.2            84.8855      
     49800   0.28285136     0.0018900865   0.0018900865   0              0              247.65413      876.35799     -381.20451      0              44.986852      0              0              9.1137808      9.3242268      0.2            84.978959    
     49900   0.16828921     0.0019743634   0.0019743634   0              0             -75.989623      1069.9505     -1222.0813      0              234.75169      0              0              9.1128218      9.3273669      0.2            84.998633    
     50000   0.23620323     0.0019114668   0.0019114668   0              0             -41.412156      1251.8479     -1334.8176      0              233.94508      0              0              9.1118628      9.3269596      0.2            84.985976    
     50100   0.18903674     0.0017951827   0.0017951827   0              0             -126.33117      483.93709     -736.808        0              370.67793      0              0              9.1109038      9.3243291      0.2            84.953066    
     50174   0.23343076     0.001990925    0.001990925    0              0              34.187901      1284.3129     -1216.1138      0              335.31498      0              0              9.1101942      9.324222       0.2            84.945473    
Loop time of 0.99687 on 1 procs for 50000 steps with 53 atoms

Performance: 43335.639 ns/day, 0.001 hours/ns, 50156.989 timesteps/s
99.2% CPU use with 1 MPI tasks x 1 OpenMP threads

MPI task timing breakdown:
Section |  min time  |  avg time  |  max time  |%varavg| %total
---------------------------------------------------------------
Pair    | 0          | 0          | 0          |   0.0 |  0.00
Bond    | 0.13997    | 0.13997    | 0.13997    |   0.0 | 14.04
Neigh   | 0          | 0          | 0          |   0.0 |  0.00
Comm    | 0.32762    | 0.32762    | 0.32762    |   0.0 | 32.86
Output  | 0.0063372  | 0.0063372  | 0.0063372  |   0.0 |  0.64
Modify  | 0.4982     | 0.4982     | 0.4982     |   0.0 | 49.98
Other   |            | 0.02475    |            |       |  2.48

Nlocal:             53 ave          53 max          53 min
Histogram: 1 0 0 0 0 0 0 0 0 0
Nghost:            445 ave         445 max         445 min
Histogram: 1 0 0 0 0 0 0 0 0 0
Neighs:              0 ave           0 max           0 min
Histogram: 1 0 0 0 0 0 0 0 0 0

Total # of neighbors = 0
Ave neighs/atom = 0
Ave special neighs/atom = 21.320755
Neighbor list builds = 0
Dangerous builds = 0


Total wall time: 0:00:01
