LAMMPS data file.

     53 atoms
    109 bonds
      0 angles
      0 dihedrals
      0 impropers
      1 atom types
    109 bond types
      0 angle types
      0 dihedral types
      0 improper types
  -4.794840   4.794840 xlo xhi
  -4.794840   4.794840 ylo yhi
  -0.100000   0.100000 zlo zhi

Masses # ['atom_id', 'mass']

1 10000.0

Atoms # ['atomID', 'moleculeID', 'atomType', 'charge', 'x', 'y', 'z']

     24      1      1   0.000000  -2.384789   4.613977   0.000000
     33      1      1   0.000000  -1.999464  -3.665872   0.000000
     30      1      1   0.000000  -0.667681  -4.084818   0.000000
     19      1      1   0.000000   0.832259  -4.336365   0.000000
     40      1      1   0.000000  -2.970125  -2.509966   0.000000
     48      1      1   0.000000  -1.922629  -2.566853   0.000000
     21      1      1   0.000000  -0.977876  -3.017403   0.000000
     28      1      1   0.000000   0.184792  -3.308310   0.000000
     59      1      1   0.000000   1.273353  -3.326211   0.000000
     47      1      1   0.000000   1.761968  -2.542430   0.000000
     32      1      1   0.000000  -2.231260  -1.496176   0.000000
     17      1      1   0.000000  -0.996198  -1.599807   0.000000
     77      1      1   0.000000  -0.189496  -2.448223   0.000000
     44      1      1   0.000000   0.058737  -1.503775   0.000000
     36      1      1   0.000000   0.734955  -2.221210   0.000000
     67      1      1   0.000000   1.635195  -1.858828   0.000000
      1      1      1   0.000000  -3.548655  -1.212830   0.000000
     31      1      1   0.000000   1.018935  -0.852907   0.000000
      7      1      1   0.000000   2.382936  -1.041577   0.000000
     70      1      1   0.000000  -2.554882   0.359690   0.000000
     20      1      1   0.000000  -1.671410  -0.112085   0.000000
      4      1      1   0.000000  -0.144423  -0.251207   0.000000
     49      1      1   0.000000   1.639035  -0.144151   0.000000
     39      1      1   0.000000   2.521887   0.233830   0.000000
     13      1      1   0.000000  -4.746777  -0.534017   0.000000
      9      1      1   0.000000  -3.650804   0.440713   0.000000
     69      1      1   0.000000  -2.112505   0.825391   0.000000
      8      1      1   0.000000  -1.049564   1.078976   0.000000
     34      1      1   0.000000   0.252481   1.546614   0.000000
     14      1      1   0.000000   1.580732   1.075566   0.000000
     26      1      1   0.000000   2.906113   1.311081   0.000000
     27      1      1   0.000000   4.593883   0.871083   0.000000
     12      1      1   0.000000  -4.166688   1.780004   0.000000
     18      1      1   0.000000  -2.679730   1.720071   0.000000
     22      1      1   0.000000  -1.439533   2.237625   0.000000
     37      1      1   0.000000  -0.413149   2.534326   0.000000
      5      1      1   0.000000   1.143873   2.515019   0.000000
     68      1      1   0.000000   2.194262   1.869145   0.000000
     23      1      1   0.000000   2.835355   2.577930   0.000000
     15      1      1   0.000000   3.973554   2.042071   0.000000
     45      1      1   0.000000  -4.746255   2.768731   0.000000
      6      1      1   0.000000  -3.552703   3.046720   0.000000
     61      1      1   0.000000  -1.068410   3.256992   0.000000
     57      1      1   0.000000  -1.442017   4.160931   0.000000
     42      1      1   0.000000   0.400442   3.250278   0.000000
     51      1      1   0.000000  -0.526205   3.835124   0.000000
     58      1      1   0.000000   2.140128   3.310088   0.000000
     11      1      1   0.000000  -2.175735   3.294231   0.000000
     76      1      1   0.000000  -1.526267  -4.474641   0.000000
     78      1      1   0.000000  -0.676798   4.507690   0.000000
     80      1      1   0.000000  -0.104649   4.480186   0.000000
     71      1      1   0.000000   0.239573   3.988808   0.000000
     25      1      1   0.000000   1.235974   3.893045   0.000000

Bond Coeffs # ['bondID', 'bondCoeff', 'd']

      1   0.735963   1.165660
      2   1.172255   0.923610
      3   1.416828   0.840120
      4   1.591794   0.792605
      5   0.650991   1.239402
      6   2.778233   0.599951
      7   0.464845   1.466716
      8   1.061848   0.970440
      9   0.996916   1.001546
     10   0.553919   1.343622
     11   0.863603   1.076076
     12   0.510907   1.399036
     13   2.105157   0.689220
     14   0.828081   1.098914
     15   0.560088   1.336201
     16   1.222244   0.904526
     17   0.908690   1.049040
     18   0.621152   1.268823
     19   1.127574   0.941732
     20   2.423805   0.642320
     21   0.670641   1.221110
     22   0.551845   1.346144
     23   0.809327   1.111573
     24   0.914666   1.045608
     25   0.597452   1.293745
     26   0.393044   1.595068
     27   1.050845   0.975507
     28   0.764467   1.143722
     29   0.577238   1.316202
     30   1.136570   0.937998
     31   0.814627   1.107951
     32   3.047748   0.572810
     33   0.891110   1.059337
     34   0.460926   1.472938
     35   0.460926   1.472938
     36   0.899877   1.054164
     37   0.673644   1.218386
     38   0.823896   1.101701
     39   0.607544   1.282954
     40   1.684027   0.770594
     41   0.843679   1.088708
     42   1.103578   0.951916
     43   0.891179   1.059297
     44   0.775488   1.135566
     45   0.805411   1.114272
     46   0.485476   1.435212
     47   1.750377   0.755848
     48   0.761336   1.146072
     49   0.602987   1.287793
     50   1.084249   0.960363
     51   1.138924   0.937028
     52   1.028824   0.985892
     53   0.914019   1.045977
     54   0.503490   1.409303
     55   1.012021   0.994043
     56   1.012021   0.994043
     57   1.005597   0.997213
     58   1.005597   0.997213
     59   0.864057   1.075793
     60   0.669101   1.222515
     61   0.635449   1.254468
     62   0.569470   1.325149
     63   0.912781   1.046687
     64   0.876044   1.068408
     65   0.696173   1.198509
     66   0.851412   1.083752
     67   0.504656   1.407675
     68   0.495723   1.420301
     69   1.058355   0.972040
     70   1.639252   0.781047
     71   0.704902   1.191066
     72   0.665848   1.225498
     73   0.496692   1.418915
     74   0.496692   1.418915
     75   0.491083   1.426996
     76   0.491083   1.426996
     77   0.550717   1.347521
     78   0.823061   1.102260
     79   0.627237   1.262653
     80   0.615514   1.274621
     81   1.057631   0.972373
     82   0.682988   1.210022
     83   1.124692   0.942938
     84   0.451541   1.488166
     85   1.094839   0.955707
     86   0.527399   1.376988
     87   0.441917   1.504283
     88   0.425343   1.533312
     89   0.752063   1.153115
     90   0.396498   1.588106
     91   0.582939   1.309750
     92   0.631855   1.258031
     93   0.677456   1.214953
     94   0.980973   1.009651
     95   0.814986   1.107707
     96   0.497534   1.417714
     97   0.837417   1.092771
     98   0.522464   1.383476
     99   0.778386   1.133450
    100   0.931597   1.036063
    101   0.778386   1.133450
    102   0.660695   1.230267
    103   0.660695   1.230267
    104   2.068749   0.695258
    105   0.524263   1.381100
    106   0.993853   1.003088
    107   0.553725   1.343856
    108   0.621040   1.268937
    109   0.527347   1.377057

Bonds # ['ID', 'type', 'atom1', 'atom2']

         1         1         7        49
         2         2        59        47
         3         3        57        78
         4         4        61        51
         5         5        32        17
         6         6        80        71
         7         7        13         9
         8         8        36        67
         9         9        70        20
        10        10        20         8
        11        11        47        36
        12        12         6        11
        13        13        51        78
        14        14        70         9
        15        15        24        11
        16        16        26        68
        17        17        40        48
        18        18        26        23
        19        19        31        49
        20        20        70        69
        21        21        49        14
        22        22        14        26
        23        23        30        21
        24        24         5        42
        25        25        26        15
        26        26        17         4
        27        27        37        61
        28        28        39        26
        29        29        34         5
        30        30        28        77
        31        31        61        11
        32        32        78        80
        33        33        69        18
        34        34        12        15
        35        35        15        12
        36        36        42        25
        37        37        28        36
        38        38        33        48
        39        39         7        39
        40        40        51        80
        41        41        28        59
        42        42        77        36
        43        43        17        44
        44        44        57        11
        45        45        48        32
        46        46         9        12
        47        47        42        71
        48        48        12        45
        49        49        22        11
        50        50        49        39
        51        51        33        76
        52        52        44        36
        53        53        24        57
        54        54        34        14
        55        55        24        76
        56        56        76        24
        57        57        78        30
        58        58        30        78
        59        59        58        25
        60        60         8        22
        61        61        40        32
        62        62        27        15
        63        63        48        21
        64        64        22        37
        65        65        21        28
        66        66        37        42
        67        67        12         6
        68        68        40         1
        69        69        57        51
        70        70        51        71
        71        71        34        37
        72        72        45         6
        73        73        19        25
        74        74        25        19
        75        75        13        27
        76        76        27        13
        77        77        32         1
        78        78        19        59
        79        79        39        14
        80        80         5        58
        81        81        21        77
        82        82        33        21
        83        83        30        76
        84        84        12        18
        85        85        68        23
        86        86        31         7
        87        87        14         5
        88        88        20         4
        89        89        30        28
        90        90        18         6
        91        91        31         4
        92        92        23        15
        93        93        19        28
        94        94        23        58
        95        95        67         7
        96        96        21        17
        97        97        69         8
        98        98         8        34
        99        99        15        45
       100       100        20        69
       101       101        45        15
       102       102        27        12
       103       103        12        27
       104       104        47        67
       105       105         5        25
       106       106        14        68
       107       107        18        22
       108       108        44         4
       109       109         1        13
