LAMMPS data file via write_data, version 23 Jun 2022, timestep = 10000

80 atoms
4 atom types

-4.8316069530134484 4.8316069530134484 xlo xhi
-4.8316069530134484 4.8316069530134484 ylo yhi
-0.1 0.1 zlo zhi

Atoms # sphere

6 1 1.6 0.2441406249999999 -3.9476451743589704 -4.491593067926684 0 1 1 0
59 3 1 1 -2.7709614364755546 -4.34811004003448 0 1 0 0
79 4 0.7 2.915451895043732 0.4487560669715114 -4.001007081190169 0 0 1 0
42 3 1 1 0.9266520933727085 -4.5334198778324355 0 0 0 0
15 1 1.6 0.2441406249999999 1.980605766555179 -4.432700378278204 0 0 1 0
35 2 1.3 0.4551661356395083 3.2939331033613044 -4.038296582103272 0 -1 0 0
34 2 1.3 0.4551661356395083 4.372736979725179 -4.345761374039134 0 0 1 0
13 1 1.6 0.2441406249999999 -4.537482340949443 -3.083542203211736 0 0 1 0
27 2 1.3 0.4551661356395083 -3.285299727860573 -3.2880149876077596 0 0 1 0
4 1 1.6 0.2441406249999999 -2.049742926551955 -3.5890547777579553 0 0 0 0
61 4 0.7 2.915451895043732 -0.7188383472920572 -3.66820493261835 0 0 0 0
51 3 1 1 -0.8682425782520986 -2.8151175763517986 0 0 0 0
70 4 0.7 2.915451895043732 -0.06798561470592368 -3.6434981657444703 0 0 0 0
52 3 1 1 -0.037684784092862245 -2.7253277050767397 0 0 0 0
20 1 1.6 0.2441406249999999 1.1342178960582645 -3.2943988587287087 0 0 1 0
10 1 1.6 0.2441406249999999 2.5854043229995973 -2.8583073858339425 0 0 0 0
53 3 1 1 4.020204166281593 -3.3120062648497797 0 -1 0 0
36 2 1.3 0.4551661356395083 -4.07771177221131 -1.6824588738965693 0 0 0 0
58 3 1 1 -3.2510439281399908 -2.3298914812760314 0 1 0 0
18 1 1.6 0.2441406249999999 -2.100991273754237 -2.1285571148156803 0 0 0 0
65 4 0.7 2.915451895043732 -1.1239103158244057 -2.0416732231582833 0 0 0 0
38 2 1.3 0.4551661356395083 -0.49597041052385027 -1.6371751817459042 0 0 0 0
30 2 1.3 0.4551661356395083 0.5856241654009429 -1.799976143800178 0 1 1 0
76 4 0.7 2.915451895043732 1.3963368942257022 -2.2887967708962376 0 0 1 0
33 2 1.3 0.4551661356395083 2.0468454250227373 -1.6561416447540003 0 0 0 0
66 4 0.7 2.915451895043732 2.987774400969692 -1.670803383938245 0 -1 1 0
19 1 1.6 0.2441406249999999 4.003699650848306 -2.0605671523441464 0 0 0 0
74 4 0.7 2.915451895043732 -4.81714788330131 -1.1370490198176793 0 1 0 0
39 2 1.3 0.4551661356395083 -2.9868079325984622 -1.1088315016028631 0 0 0 0
32 2 1.3 0.4551661356395083 -1.3943174576795534 -0.9006177567812359 0 0 0 0
40 2 1.3 0.4551661356395083 0.2706575191512979 -0.693965091917649 0 0 0 0
69 4 0.7 2.915451895043732 1.2765084014087362 -1.2492629075339918 0 0 0 0
73 4 0.7 2.915451895043732 2.019253934785274 -0.6515779405254678 0 -1 0 0
46 3 1 1 2.6996089527072815 -0.7842406402950131 0 0 0 0
77 4 0.7 2.915451895043732 3.498712754814287 -0.9716833152247273 0 0 0 0
75 4 0.7 2.915451895043732 4.1299994845001855 -1.0535664461209224 0 0 0 0
11 1 1.6 0.2441406249999999 -4.106500665869779 -0.43942016536656414 0 0 0 0
63 4 0.7 2.915451895043732 -4.6340936512510025 0.5230105992880478 0 0 0 0
67 4 0.7 2.915451895043732 -3.094696306517701 -0.1176497498031619 0 0 0 0
9 1 1.6 0.2441406249999999 -2.1510884409336284 0.37686870212542534 0 0 0 0
16 1 1.6 0.2441406249999999 -0.6678298277249981 0.25942001627886757 0 0 0 0
41 3 1 1 1.2980095293105416 -0.4168023246537569 0 0 0 0
5 1 1.6 0.2441406249999999 2.2799768964271356 0.35437580436673777 0 0 0 0
56 3 1 1 3.3723531643735605 -0.15132264457229372 0 0 0 0
37 2 1.3 0.4551661356395083 4.273801202245499 -0.09934570460457781 0 -1 0 0
45 3 1 1 -4.056536630597184 1.0555711151732714 0 0 0 0
57 3 1 1 -3.214656844941444 0.7858304146372399 0 0 0 0
62 4 0.7 2.915451895043732 -1.1559165138199519 1.2202318568604102 0 0 0 0
64 4 0.7 2.915451895043732 -0.21863978622765678 1.179987944827543 0 0 0 0
3 1 1.6 0.2441406249999999 0.7560941964529206 0.5848791453490438 0 0 0 0
80 4 0.7 2.915451895043732 1.5326393344620062 1.2615231301369043 0 0 0 0
7 1 1.6 0.2441406249999999 3.6326362958380685 0.9988978752599031 0 -1 -1 0
31 2 1.3 0.4551661356395083 -3.792123484468923 2.1589825998458725 0 1 0 0
50 3 1 1 -2.9193174129374064 1.6427862775826814 0 1 -1 0
29 2 1.3 0.4551661356395083 -2.698389500848117 2.6535496942910726 0 0 -1 0
28 2 1.3 0.4551661356395083 -1.9194144387405485 1.6275668000396806 0 0 0 0
60 3 1 1 -0.8616122528808772 1.857500899243683 0 0 0 0
72 4 0.7 2.915451895043732 0.22414186778265943 1.7695924710542927 0 0 0 0
54 3 1 1 -0.08545437005544798 2.5017423837590833 0 0 -1 0
23 2 1.3 0.4551661356395083 0.9483128908216418 2.0531556791537175 0 0 0 0
68 4 0.7 2.915451895043732 1.8817920982887753 1.722244356790343 0 0 0 0
55 3 1 1 1.9688451447868731 2.480366739539826 0 -1 0 0
43 3 1 1 2.6837807472906547 1.8129312716744135 0 0 0 0
14 1 1.6 0.2441406249999999 3.743751919772885 2.5059538917349915 0 0 0 0
21 2 1.3 0.4551661356395083 4.633980397827077 1.6409933112888577 0 0 0 0
25 2 1.3 0.4551661356395083 -3.769658783934276 3.389136466876433 0 1 0 0
49 3 1 1 -4.65724976824698 2.6956146824707794 0 0 0 0
48 3 1 1 -2.0154428012168664 3.505193258742551 0 0 0 0
44 3 1 1 -1.586898008215253 2.727734940508854 0 0 0 0
8 1 1.6 0.2441406249999999 -0.7486826894885867 3.5029056338167415 0 0 0 0
1 1 1.6 0.2441406249999999 0.9623373552139816 3.3980148341121605 0 0 0 0
26 2 1.3 0.4551661356395083 2.694781102457217 3.343638917939149 0 0 0 0
71 4 0.7 2.915451895043732 3.5908826248804893 3.5265558387995313 0 0 0 0
24 2 1.3 0.4551661356395083 -2.843264436843394 4.276222700581485 0 1 -1 0
12 1 1.6 0.2441406249999999 -1.561660293683612 4.662687801666953 0 0 -1 0
17 1 1.6 0.2441406249999999 -0.040285898763834815 4.69915728665036 0 0 -1 0
78 4 0.7 2.915451895043732 1.2021707967619637 4.4587602315691335 0 0 -1 0
47 3 1 1 2.0114896308246673 4.028145719550004 0 0 0 0
22 2 1.3 0.4551661356395083 3.120996729062571 4.381981215533131 0 -1 0 0
2 1 1.6 0.2441406249999999 4.657998586458502 3.96932294803503 0 0 0 0

Velocities

6 -0.014491503197366681 0.06829261835274231 0 0 0 0
59 0.067201955295383 0.2371965005894402 0 0 0 0
79 -0.0003622347892676907 0.09994812582053378 0 0 0 0
42 0.03507899392114341 0.022258139727411252 0 0 0 0
15 -0.02076304378381843 0.0940080169502194 0 0 0 0
35 0.010193987800798443 -0.2703236795059817 0 0 0 0
34 0.14509007089377704 -0.08069126367479985 0 0 0 0
13 -0.040822853879503185 0.08288976325522192 0 0 0 0
27 -0.12067576008558505 -0.06629752931381629 0 0 0 0
4 -0.15629656580966675 0.048308895979425434 0 0 0 0
61 -0.06445726477386372 -0.2330884576332267 0 0 0 0
51 0.2410086599232846 -0.20782140578208871 0 0 0 0
70 0.041535573491349745 -0.09677708786843413 0 0 0 0
52 -0.10354529507126493 -0.010920207720594275 0 0 0 0
20 0.09666020246300276 -0.33926368215255936 0 0 0 0
10 -0.09638350590524199 -0.006565011676565481 0 0 0 0
53 -0.016654153986493753 0.0026067048875747733 0 0 0 0
36 -0.01668650284593023 -0.06442979366127302 0 0 0 0
58 -0.060871501091296985 -0.05463128701641778 0 0 0 0
18 -0.014149492054022527 0.2004100345058945 0 0 0 0
65 0.03516872405206349 -0.01145203237184178 0 0 0 0
38 0.0699153281578533 0.27718909048997664 0 0 0 0
30 -0.006675831928500872 0.12783611496726172 0 0 0 0
76 0.0716143098676874 -0.05627747444026738 0 0 0 0
33 -0.13186832612520288 0.11322477912247814 0 0 0 0
66 0.16672029350865963 0.07176000002608608 0 0 0 0
19 0.03499657096938966 0.053170731712818844 0 0 0 0
74 0.059621597416542715 0.09854855263371154 0 0 0 0
39 0.02252292554996931 0.10449113625867792 0 0 0 0
32 0.01141868355473533 -0.14183561686021554 0 0 0 0
40 -0.06993438474242564 0.05016945632712589 0 0 0 0
69 0.05050427378049781 0.1232755472351262 0 0 0 0
73 0.017743226041264132 0.22996487314937888 0 0 0 0
46 0.009771840531426353 -0.03715044430908931 0 0 0 0
77 -0.01332470369444688 0.13181611953599764 0 0 0 0
75 0.02526174112969187 -0.05279903284674862 0 0 0 0
11 -0.1250102526886878 -0.04426928373484325 0 0 0 0
63 -0.015302313058605322 -0.10163262711907209 0 0 0 0
67 0.09905439787526316 -0.0020670628815372457 0 0 0 0
9 -0.2718805034017396 0.043006173972038375 0 0 0 0
16 0.13601852789298535 0.12025322849541592 0 0 0 0
41 -0.042247217289901946 0.012988073122326289 0 0 0 0
5 -0.008054224912679956 -0.042419521809054415 0 0 0 0
56 -0.048936488053312924 0.034132617124006705 0 0 0 0
37 0.05317504148993466 0.04004558663333415 0 0 0 0
45 0.06271922134019872 -0.15071839592109806 0 0 0 0
57 0.018468187399496783 -0.10133347620230447 0 0 0 0
62 0.12107940505579241 -0.05870878631238874 0 0 0 0
64 -0.18690678260856428 0.16900233868071365 0 0 0 0
3 -0.0070338427447094575 0.04425699880962777 0 0 0 0
80 0.04559233481022091 0.1828785165849773 0 0 0 0
7 0.10740385616233983 -0.09877307344564298 0 0 0 0
31 -0.019401258550700372 -0.07929641131063664 0 0 0 0
50 -0.08587160784788583 -0.1166787081700267 0 0 0 0
29 0.03304046322198113 -0.028329893840496456 0 0 0 0
28 -0.15456530761286594 -0.03806588689941944 0 0 0 0
60 -0.0032542875371188596 -0.09792406389122914 0 0 0 0
72 0.1420747020091961 0.07387016585711216 0 0 0 0
54 0.22423052403018215 0.0693052806982929 0 0 0 0
23 0.005023340519850976 0.07460296001922981 0 0 0 0
68 -0.04810167938501847 -0.07754101866750894 0 0 0 0
55 -0.10804493614553212 -0.027954979197669812 0 0 0 0
43 -0.13979652611425952 0.0008337511715750705 0 0 0 0
14 -0.0371847694202864 -0.07643503072890827 0 0 0 0
21 0.032475898746746 -0.1865872838961012 0 0 0 0
25 0.0951931748054453 -0.1353936578494576 0 0 0 0
49 -0.05021138441334519 -0.031126392107528104 0 0 0 0
48 0.0273294023295831 0.12382378015525566 0 0 0 0
44 0.08629472577857537 0.04246423843936066 0 0 0 0
8 -0.10007450609952238 -0.1362307261107605 0 0 0 0
1 -0.025408897315156123 -0.1090999126244949 0 0 0 0
26 -0.0555010988342092 0.0010873577383008837 0 0 0 0
71 -0.004952019721950498 0.002656599811954692 0 0 0 0
24 0.09328586022539152 0.01719550334098439 0 0 0 0
12 -0.08804538382650795 0.09324586602036365 0 0 0 0
17 -0.07736447746806338 -0.1627382825047376 0 0 0 0
78 -0.11559664872030943 -0.09405750922979245 0 0 0 0
47 0.017984198432401097 0.12413413885052331 0 0 0 0
22 -0.06056091375778759 0.057945698780910035 0 0 0 0
2 0.2147980308185135 0.1626119154552233 0 0 0 0
