ITEM: TIMESTEP
0
ITEM: NUMBER OF ATOMS
80
ITEM: BOX BOUNDS pp pp pp
-1.0000000000000000e+01 1.0000000000000000e+01
-1.0000000000000000e+01 1.0000000000000000e+01
-1.0000000000000001e-01 1.0000000000000001e-01
ITEM: ATOMS id type xs ys zs
78 4 0.136374 0.0328414 0.5
49 3 0.17838 0.0369884 0.5
7 1 0.271733 0.0216271 0.5
54 3 0.287918 0.0348467 0.5
29 2 0.433867 0.00106089 0.5
38 2 0.487536 0.0123684 0.5
32 2 0.541205 0.0365973 0.5
10 1 0.674243 0.00474158 0.5
42 3 0.804367 0.00103946 0.5
17 1 0.345635 0.0802813 0.5
74 4 0.73208 0.0651141 0.5
19 1 0.577623 0.109052 0.5
4 1 0.322734 0.195063 0.5
65 4 0.481357 0.172297 0.5
75 4 0.75202 0.206932 0.5
9 1 0.149595 0.246842 0.5
53 3 0.134958 0.246799 0.5
12 1 0.543001 0.221847 0.5
26 2 0.546394 0.250064 0.5
70 4 0.703889 0.266901 0.5
33 2 0.608041 0.349664 0.5
51 3 0.794331 0.316657 0.5
35 2 0.084274 0.392736 0.5
61 4 0.256823 0.418505 0.5
18 1 0.352497 0.416217 0.5
59 3 0.649454 0.374102 0.5
80 4 0.776841 0.370915 0.5
5 1 0.795168 0.393885 0.5
50 3 0.907858 0.369642 0.5
36 2 0.327627 0.421308 0.5
39 2 0.534746 0.471793 0.5
52 3 0.588354 0.461588 0.5
77 4 0.778513 0.463401 0.5
3 1 0.572052 0.475434 0.5
41 3 0.657553 0.493627 0.5
56 3 0.658982 0.504591 0.5
46 3 0.706402 0.497559 0.5
24 2 0.746565 0.523755 0.5
69 4 0.750431 0.485508 0.5
55 3 0.0764876 0.526512 0.5
11 1 0.107785 0.547513 0.5
73 4 0.133788 0.578601 0.5
40 2 0.683913 0.532815 0.5
22 2 0.0291895 0.587598 0.5
16 1 0.153483 0.580942 0.5
1 1 0.601333 0.602793 0.5
28 2 0.580983 0.579656 0.5
62 4 0.642151 0.624247 0.5
8 1 0.298725 0.669232 0.5
64 4 0.609131 0.660738 0.5
23 2 0.635312 0.681281 0.5
68 4 0.823327 0.64966 0.5
58 3 0.860632 0.638306 0.5
15 1 0.616571 0.708838 0.5
76 4 0.598959 0.697975 0.5
2 1 0.749134 0.703298 0.5
14 1 0.932986 0.703756 0.5
43 3 0.492222 0.778678 0.5
44 3 0.486093 0.76115 0.5
79 4 0.584029 0.771491 0.5
67 4 0.673692 0.740997 0.5
6 1 0.836543 0.784677 0.5
31 2 0.958634 0.766252 0.5
47 3 0.349129 0.810209 0.5
72 4 0.324557 0.837396 0.5
30 2 0.965837 0.825291 0.5
57 3 0.441833 0.883825 0.5
37 2 0.0365886 0.944114 0.5
63 4 0.272859 0.934815 0.5
45 3 0.325099 0.947258 0.5
60 3 0.4197 0.897621 0.5
27 2 0.49574 0.899408 0.5
71 4 0.588857 0.924108 0.5
21 2 0.71077 0.905772 0.5
25 2 0.711307 0.930038 0.5
48 3 0.0512286 0.999035 0.5
66 4 0.0099951 0.987686 0.5
13 1 0.329029 0.990725 0.5
20 1 0.635152 0.996977 0.5
34 2 0.910809 0.97004 0.5
ITEM: TIMESTEP
10
ITEM: NUMBER OF ATOMS
80
ITEM: BOX BOUNDS pp pp pp
-9.2763877194635658e+00 9.2763877194635658e+00
-9.2763877194635658e+00 9.2763877194635658e+00
-1.0000000000000001e-01 1.0000000000000001e-01
ITEM: ATOMS id type xs ys zs
78 4 0.136371 0.0328411 0.5
49 3 0.178383 0.0369887 0.5
7 1 0.271556 0.0215516 0.5
54 3 0.28803 0.0349644 0.5
29 2 0.433828 0.00105265 0.5
38 2 0.487552 0.0123662 0.5
32 2 0.541228 0.0366077 0.5
10 1 0.67439 0.00477066 0.5
42 3 0.804367 0.00103946 0.5
17 1 0.345635 0.0802813 0.5
74 4 0.73208 0.0651141 0.5
19 1 0.577623 0.109052 0.5
4 1 0.322734 0.195063 0.5
65 4 0.481357 0.172297 0.5
75 4 0.75202 0.206932 0.5
9 1 0.149781 0.246843 0.5
53 3 0.134773 0.246799 0.5
12 1 0.542982 0.221685 0.5
26 2 0.546414 0.250226 0.5
70 4 0.703889 0.266901 0.5
33 2 0.608009 0.349645 0.5
51 3 0.794331 0.316657 0.5
35 2 0.084274 0.392736 0.5
61 4 0.256823 0.418505 0.5
18 1 0.352668 0.416182 0.5
59 3 0.649486 0.374121 0.5
80 4 0.776776 0.370833 0.5
5 1 0.795234 0.393967 0.5
50 3 0.907858 0.369642 0.5
36 2 0.327456 0.421343 0.5
39 2 0.534603 0.471783 0.5
52 3 0.58849 0.461481 0.5
77 4 0.778513 0.463401 0.5
3 1 0.572059 0.475551 0.5
41 3 0.657506 0.493451 0.5
56 3 0.658941 0.504679 0.5
46 3 0.706418 0.497488 0.5
24 2 0.746601 0.523818 0.5
69 4 0.750435 0.485464 0.5
55 3 0.0764027 0.526456 0.5
11 1 0.107757 0.547468 0.5
73 4 0.133691 0.578634 0.5
40 2 0.683944 0.532956 0.5
22 2 0.0291895 0.587598 0.5
16 1 0.153692 0.581011 0.5
1 1 0.601396 0.602887 0.5
28 2 0.580881 0.57954 0.5
62 4 0.64219 0.624267 0.5
8 1 0.298725 0.669232 0.5
64 4 0.609076 0.660666 0.5
23 2 0.635478 0.681183 0.5
68 4 0.823312 0.649665 0.5
58 3 0.860646 0.638302 0.5
15 1 0.61661 0.709064 0.5
76 4 0.598808 0.697919 0.5
2 1 0.749134 0.703298 0.5
14 1 0.932978 0.703736 0.5
43 3 0.492261 0.778788 0.5
44 3 0.486054 0.76104 0.5
79 4 0.584029 0.771491 0.5
67 4 0.673692 0.740997 0.5
6 1 0.836543 0.784677 0.5
31 2 0.95864 0.766249 0.5
47 3 0.349145 0.810192 0.5
72 4 0.324542 0.837413 0.5
30 2 0.96584 0.825314 0.5
57 3 0.441901 0.883776 0.5
37 2 0.0365876 0.944108 0.5
63 4 0.272859 0.934815 0.5
45 3 0.325092 0.947178 0.5
60 3 0.419624 0.897668 0.5
27 2 0.495747 0.89941 0.5
71 4 0.588857 0.924108 0.5
21 2 0.710766 0.905622 0.5
25 2 0.71131 0.930189 0.5
48 3 0.0512313 0.999041 0.5
66 4 0.00999333 0.987687 0.5
13 1 0.329101 0.990763 0.5
20 1 0.635005 0.996948 0.5
34 2 0.910809 0.97004 0.5
ITEM: TIMESTEP
20
ITEM: NUMBER OF ATOMS
80
ITEM: BOX BOUNDS pp pp pp
-8.3638243900291638e+00 8.3638243900291638e+00
-8.3638243900291638e+00 8.3638243900291638e+00
-1.0000000000000001e-01 1.0000000000000001e-01
ITEM: ATOMS id type xs ys zs
78 4 0.136339 0.032838 0.5
49 3 0.178415 0.0369918 0.5
7 1 0.270904 0.0212971 0.5
54 3 0.288408 0.0354004 0.5
29 2 0.433665 0.00101842 0.5
38 2 0.487607 0.0123521 0.5
32 2 0.541334 0.036653 0.5
10 1 0.674918 0.00487662 0.5
42 3 0.804367 0.00103946 0.5
17 1 0.345637 0.0802844 0.5
74 4 0.73208 0.0651141 0.5
19 1 0.577624 0.109055 0.5
4 1 0.322734 0.195063 0.5
65 4 0.481357 0.172297 0.5
75 4 0.75202 0.206932 0.5
9 1 0.150434 0.246845 0.5
53 3 0.13412 0.246797 0.5
12 1 0.542912 0.221107 0.5
26 2 0.546483 0.250803 0.5
70 4 0.703889 0.266901 0.5
33 2 0.607879 0.349568 0.5
51 3 0.794331 0.316657 0.5
35 2 0.084274 0.392736 0.5
61 4 0.256823 0.418505 0.5
18 1 0.353273 0.416058 0.5
59 3 0.649617 0.374198 0.5
80 4 0.77654 0.370537 0.5
5 1 0.79547 0.394263 0.5
50 3 0.907858 0.369642 0.5
36 2 0.32685 0.421467 0.5
39 2 0.534063 0.471749 0.5
52 3 0.588994 0.461096 0.5
77 4 0.778526 0.46339 0.5
3 1 0.572095 0.47597 0.5
41 3 0.657309 0.492813 0.5
56 3 0.658764 0.504979 0.5
46 3 0.706506 0.497209 0.5
24 2 0.746775 0.524065 0.5
69 4 0.750446 0.4853 0.5
55 3 0.0760911 0.526247 0.5
11 1 0.107642 0.547291 0.5
73 4 0.133357 0.578764 0.5
40 2 0.684033 0.533499 0.5
22 2 0.0291895 0.587598 0.5
16 1 0.154453 0.581267 0.5
1 1 0.6016 0.60319 0.5
28 2 0.580516 0.579124 0.5
62 4 0.642347 0.624349 0.5
8 1 0.298725 0.669232 0.5
64 4 0.608873 0.660409 0.5
23 2 0.636094 0.680833 0.5
68 4 0.823245 0.649685 0.5
58 3 0.860713 0.638281 0.5
15 1 0.616748 0.709893 0.5
76 4 0.598259 0.697729 0.5
2 1 0.749134 0.703298 0.5
14 1 0.932937 0.703636 0.5
43 3 0.492397 0.779178 0.5
44 3 0.485918 0.76065 0.5
79 4 0.584029 0.771491 0.5
67 4 0.673693 0.740998 0.5
6 1 0.836543 0.784677 0.5
31 2 0.958667 0.76624 0.5
47 3 0.349211 0.810119 0.5
72 4 0.324475 0.837486 0.5
30 2 0.965853 0.825423 0.5
57 3 0.442122 0.883589 0.5
37 2 0.0365879 0.944044 0.5
63 4 0.272859 0.934815 0.5
45 3 0.325065 0.946877 0.5
60 3 0.419351 0.897839 0.5
27 2 0.495801 0.899426 0.5
71 4 0.588857 0.924108 0.5
21 2 0.710754 0.905086 0.5
25 2 0.711322 0.930724 0.5
48 3 0.0512675 0.999092 0.5
66 4 0.00995689 0.9877 0.5
13 1 0.329401 0.990879 0.5
20 1 0.634477 0.996843 0.5
34 2 0.910809 0.97004 0.5
ITEM: TIMESTEP
30
ITEM: NUMBER OF ATOMS
80
ITEM: BOX BOUNDS pp pp pp
-7.6904317566159772e+00 7.6904317566159772e+00
-7.6904317566159772e+00 7.6904317566159772e+00
-1.0000000000000001e-01 1.0000000000000001e-01
ITEM: ATOMS id type xs ys zs
78 4 0.136238 0.0328281 0.5
49 3 0.178515 0.0370017 0.5
7 1 0.269594 0.0208279 0.5
54 3 0.289067 0.0362542 0.5
29 2 0.433305 0.000942701 0.5
38 2 0.487712 0.0123123 0.5
32 2 0.541569 0.0367275 0.5
10 1 0.675937 0.00511136 0.5
42 3 0.804367 0.00103946 0.5
17 1 0.345683 0.0803527 0.5
74 4 0.73208 0.0651141 0.5
19 1 0.577645 0.109096 0.5
4 1 0.322734 0.195063 0.5
65 4 0.481357 0.172297 0.5
75 4 0.75202 0.206932 0.5
9 1 0.151677 0.246848 0.5
53 3 0.132877 0.246793 0.5
12 1 0.542778 0.219992 0.5
26 2 0.546617 0.251918 0.5
70 4 0.703889 0.266901 0.5
33 2 0.607591 0.349398 0.5
51 3 0.794331 0.31665 0.5
35 2 0.084274 0.392736 0.5
61 4 0.256823 0.418505 0.5
18 1 0.354438 0.41582 0.5
59 3 0.649904 0.374368 0.5
80 4 0.776078 0.369958 0.5
5 1 0.795933 0.394849 0.5
50 3 0.907858 0.369642 0.5
36 2 0.325685 0.421706 0.5
39 2 0.532962 0.471687 0.5
52 3 0.590002 0.460342 0.5
77 4 0.778578 0.463352 0.5
3 1 0.572188 0.476786 0.5
41 3 0.656871 0.491563 0.5
56 3 0.658358 0.505536 0.5
46 3 0.706709 0.496627 0.5
24 2 0.7472 0.524585 0.5
69 4 0.750475 0.484967 0.5
55 3 0.0754694 0.525831 0.5
11 1 0.107394 0.546913 0.5
73 4 0.132736 0.57904 0.5
40 2 0.684167 0.534629 0.5
22 2 0.0291853 0.587601 0.5
16 1 0.155948 0.581782 0.5
1 1 0.601946 0.603685 0.5
28 2 0.579808 0.578317 0.5
62 4 0.642689 0.624502 0.5
8 1 0.298725 0.669232 0.5
64 4 0.60847 0.659908 0.5
23 2 0.637332 0.680189 0.5
68 4 0.823081 0.649735 0.5
58 3 0.860877 0.638231 0.5
15 1 0.61699 0.711519 0.5
76 4 0.597179 0.697385 0.5
2 1 0.749134 0.703298 0.5
14 1 0.932834 0.703386 0.5
43 3 0.49266 0.779931 0.5
44 3 0.485655 0.759898 0.5
79 4 0.584026 0.771496 0.5
67 4 0.67372 0.741012 0.5
6 1 0.836543 0.784677 0.5
31 2 0.958738 0.766225 0.5
47 3 0.34936 0.809953 0.5
72 4 0.324326 0.837651 0.5
30 2 0.965885 0.825688 0.5
57 3 0.442504 0.883208 0.5
37 2 0.0365991 0.943828 0.5
63 4 0.272858 0.934815 0.5
45 3 0.325007 0.946267 0.5
60 3 0.418813 0.898175 0.5
27 2 0.495955 0.899471 0.5
71 4 0.588857 0.924108 0.5
21 2 0.710732 0.904053 0.5
25 2 0.711359 0.931727 0.5
48 3 0.0513902 0.999253 0.5
66 4 0.00982302 0.987755 0.5
13 1 0.330064 0.991036 0.5
20 1 0.633443 0.996637 0.5
34 2 0.910809 0.97004 0.5
ITEM: TIMESTEP
40
ITEM: NUMBER OF ATOMS
80
ITEM: BOX BOUNDS pp pp pp
-7.2116599031574173e+00 7.2116599031574173e+00
-7.2116599031574173e+00 7.2116599031574173e+00
-1.0000000000000001e-01 1.0000000000000001e-01
ITEM: ATOMS id type xs ys zs
78 4 0.136029 0.0328073 0.5
49 3 0.178725 0.0370224 0.5
7 1 0.267446 0.0200961 0.5
54 3 0.289988 0.037589 0.5
29 2 0.432679 0.000811359 0.5
38 2 0.487871 0.0122327 0.5
32 2 0.541968 0.0368038 0.5
10 1 0.677519 0.00555509 0.5
42 3 0.804367 0.00103946 0.5
17 1 0.345868 0.0806166 0.5
74 4 0.73208 0.0651141 0.5
19 1 0.577712 0.10923 0.5
4 1 0.322734 0.195063 0.5
65 4 0.481356 0.172296 0.5
75 4 0.75202 0.206932 0.5
9 1 0.153605 0.246854 0.5
53 3 0.130949 0.246787 0.5
12 1 0.542569 0.218244 0.5
26 2 0.546828 0.253667 0.5
70 4 0.703889 0.266901 0.5
33 2 0.607096 0.349106 0.5
51 3 0.79433 0.316593 0.5
35 2 0.084274 0.392736 0.5
61 4 0.256822 0.418505 0.5
18 1 0.35626 0.415447 0.5
59 3 0.6504 0.37466 0.5
80 4 0.775343 0.36904 0.5
5 1 0.796675 0.395792 0.5
50 3 0.907858 0.369642 0.5
36 2 0.323864 0.422079 0.5
39 2 0.531165 0.471585 0.5
52 3 0.591617 0.459142 0.5
77 4 0.778689 0.46329 0.5
3 1 0.572365 0.478087 0.5
41 3 0.656126 0.48958 0.5
56 3 0.657637 0.506379 0.5
46 3 0.707058 0.495661 0.5
24 2 0.747982 0.525456 0.5
69 4 0.750536 0.484422 0.5
55 3 0.0744636 0.52516 0.5
11 1 0.107011 0.546257 0.5
73 4 0.131793 0.579512 0.5
40 2 0.684327 0.536502 0.5
22 2 0.0291414 0.587624 0.5
16 1 0.158324 0.582613 0.5
1 1 0.602406 0.604302 0.5
28 2 0.578692 0.577045 0.5
62 4 0.643283 0.624712 0.5
8 1 0.298725 0.669232 0.5
64 4 0.607825 0.659128 0.5
23 2 0.639344 0.679284 0.5
68 4 0.82278 0.649827 0.5
58 3 0.861178 0.63814 0.5
15 1 0.617323 0.714062 0.5
76 4 0.595465 0.696875 0.5
2 1 0.749134 0.703298 0.5
14 1 0.932641 0.702917 0.5
43 3 0.493072 0.781109 0.5
44 3 0.485243 0.75872 0.5
79 4 0.584001 0.771541 0.5
67 4 0.673822 0.741065 0.5
6 1 0.836543 0.784677 0.5
31 2 0.958872 0.766208 0.5
47 3 0.349622 0.809664 0.5
72 4 0.324065 0.837941 0.5
30 2 0.965944 0.826175 0.5
57 3 0.443046 0.88258 0.5
37 2 0.0366307 0.943369 0.5
63 4 0.272844 0.934812 0.5
45 3 0.324921 0.945274 0.5
60 3 0.417959 0.89871 0.5
27 2 0.496268 0.899564 0.5
71 4 0.588857 0.924108 0.5
21 2 0.710695 0.902435 0.5
25 2 0.711453 0.933227 0.5
48 3 0.0516508 0.999587 0.5
66 4 0.00953077 0.987879 0.5
13 1 0.331205 0.991166 0.5
20 1 0.631805 0.996311 0.5
34 2 0.910809 0.97004 0.5
ITEM: TIMESTEP
50
ITEM: NUMBER OF ATOMS
80
ITEM: BOX BOUNDS pp pp pp
-6.8961171559367918e+00 6.8961171559367918e+00
-6.8961171559367918e+00 6.8961171559367918e+00
-1.0000000000000001e-01 1.0000000000000001e-01
ITEM: ATOMS id type xs ys zs
78 4 0.135681 0.032773 0.5
49 3 0.179066 0.0370583 0.5
7 1 0.264376 0.0190772 0.5
54 3 0.291121 0.0394131 0.5
29 2 0.431749 0.000616304 0.5
38 2 0.488086 0.0121018 0.5
32 2 0.542535 0.0368605 0.5
10 1 0.679669 0.0062724 0.5
42 3 0.804367 0.00103946 0.5
17 1 0.346275 0.0811901 0.5
74 4 0.732082 0.0651168 0.5
19 1 0.57785 0.109506 0.5
4 1 0.322734 0.195063 0.5
65 4 0.481337 0.172282 0.5
75 4 0.75202 0.206932 0.5
9 1 0.156239 0.246862 0.5
53 3 0.128314 0.24678 0.5
12 1 0.542298 0.215847 0.5
26 2 0.547118 0.25608 0.5
70 4 0.703889 0.266901 0.5
33 2 0.606361 0.348673 0.5
51 3 0.794335 0.316433 0.5
35 2 0.084274 0.392736 0.5
61 4 0.256805 0.418504 0.5
18 1 0.358765 0.414934 0.5
59 3 0.651134 0.375093 0.5
80 4 0.774313 0.367782 0.5
5 1 0.797728 0.397108 0.5
50 3 0.907858 0.369642 0.5
36 2 0.321376 0.422593 0.5
39 2 0.528619 0.471432 0.5
52 3 0.593864 0.45746 0.5
77 4 0.778872 0.46323 0.5
3 1 0.572609 0.479899 0.5
41 3 0.655083 0.486832 0.5
56 3 0.656556 0.507514 0.5
46 3 0.707554 0.494266 0.5
24 2 0.749189 0.526723 0.5
69 4 0.750637 0.483644 0.5
55 3 0.0730431 0.524196 0.5
11 1 0.106526 0.545265 0.5
73 4 0.130527 0.580215 0.5
40 2 0.68449 0.539193 0.5
22 2 0.0290045 0.587706 0.5
16 1 0.161632 0.583784 0.5
1 1 0.602932 0.604943 0.5
28 2 0.577145 0.575292 0.5
62 4 0.64417 0.624951 0.5
8 1 0.298725 0.669232 0.5
64 4 0.606921 0.658081 0.5
23 2 0.6422 0.678192 0.5
68 4 0.822317 0.649968 0.5
58 3 0.861642 0.637998 0.5
15 1 0.617726 0.717525 0.5
76 4 0.593095 0.696195 0.5
2 1 0.749134 0.703298 0.5
14 1 0.932338 0.702182 0.5
43 3 0.49364 0.782731 0.5
44 3 0.484675 0.757097 0.5
79 4 0.583925 0.771674 0.5
67 4 0.674046 0.741178 0.5
6 1 0.836543 0.784677 0.5
31 2 0.959085 0.766188 0.5
47 3 0.350013 0.809231 0.5
72 4 0.323673 0.838374 0.5
30 2 0.966035 0.826929 0.5
57 3 0.443726 0.881674 0.5
37 2 0.0366903 0.942605 0.5
63 4 0.272788 0.934801 0.5
45 3 0.324823 0.943862 0.5
60 3 0.416758 0.89946 0.5
27 2 0.496789 0.899721 0.5
71 4 0.588857 0.924108 0.5
21 2 0.710645 0.900205 0.5
25 2 0.711631 0.935191 0.5
48 3 0.0520858 0.000136762 0.5
66 4 0.00903615 0.988094 0.5
13 1 0.332894 0.991208 0.5
20 1 0.629539 0.995851 0.5
34 2 0.910809 0.97004 0.5
ITEM: TIMESTEP
60
ITEM: NUMBER OF ATOMS
80
ITEM: BOX BOUNDS pp pp pp
-6.6948073835501862e+00 6.6948073835501862e+00
-6.6948073835501862e+00 6.6948073835501862e+00
-1.0000000000000001e-01 1.0000000000000001e-01
ITEM: ATOMS id type xs ys zs
78 4 0.135179 0.0327234 0.5
49 3 0.17951 0.03712 0.5
7 1 0.260427 0.0177661 0.5
54 3 0.2924 0.0416943 0.5
29 2 0.430532 0.000358093 0.5
38 2 0.48835 0.0119118 0.5
32 2 0.543236 0.0368948 0.5
10 1 0.682336 0.00729013 0.5
42 3 0.804367 0.00103946 0.5
17 1 0.346955 0.0821407 0.5
74 4 0.732106 0.0651437 0.5
19 1 0.578083 0.109932 0.5
4 1 0.322733 0.195067 0.5
65 4 0.481268 0.172232 0.5
75 4 0.75202 0.206932 0.5
9 1 0.159547 0.246871 0.5
53 3 0.125006 0.24677 0.5
12 1 0.541991 0.212872 0.5
26 2 0.547485 0.259133 0.5
70 4 0.703889 0.266901 0.5
33 2 0.605379 0.348093 0.5
51 3 0.794353 0.316122 0.5
35 2 0.084274 0.392736 0.5
61 4 0.256731 0.418499 0.5
18 1 0.361929 0.414286 0.5
59 3 0.652116 0.375673 0.5
80 4 0.772983 0.366215 0.5
5 1 0.799097 0.398776 0.5
50 3 0.907858 0.369642 0.5
36 2 0.318286 0.423245 0.5
39 2 0.525343 0.47121 0.5
52 3 0.596679 0.455282 0.5
77 4 0.779139 0.463183 0.5
3 1 0.572861 0.48217 0.5
41 3 0.653826 0.483363 0.5
56 3 0.655129 0.508931 0.5
46 3 0.708178 0.492438 0.5
24 2 0.750842 0.528406 0.5
69 4 0.75078 0.482635 0.5
55 3 0.0712085 0.522917 0.5
11 1 0.105989 0.543909 0.5
73 4 0.128961 0.58117 0.5
40 2 0.684643 0.542693 0.5
22 2 0.0287296 0.587886 0.5
16 1 0.165845 0.585285 0.5
1 1 0.603469 0.605508 0.5
28 2 0.575176 0.573119 0.5
62 4 0.645375 0.625184 0.5
8 1 0.298725 0.669232 0.5
64 4 0.605757 0.656832 0.5
23 2 0.645889 0.676985 0.5
68 4 0.821678 0.650162 0.5
58 3 0.862279 0.637803 0.5
15 1 0.618171 0.721841 0.5
76 4 0.590112 0.695344 0.5
2 1 0.749136 0.703297 0.5
14 1 0.931916 0.701158 0.5
43 3 0.494357 0.784783 0.5
44 3 0.483958 0.755046 0.5
79 4 0.58377 0.771934 0.5
67 4 0.674437 0.741372 0.5
6 1 0.836543 0.784677 0.5
31 2 0.959384 0.766168 0.5
47 3 0.350541 0.808647 0.5
72 4 0.323146 0.838958 0.5
30 2 0.966159 0.827975 0.5
57 3 0.444514 0.880478 0.5
37 2 0.0367816 0.941502 0.5
63 4 0.272661 0.934772 0.5
45 3 0.324723 0.942029 0.5
60 3 0.415203 0.900425 0.5
27 2 0.497555 0.899951 0.5
71 4 0.588853 0.9241 0.5
21 2 0.710578 0.897383 0.5
25 2 0.711931 0.937539 0.5
48 3 0.0527131 0.000924005 0.5
66 4 0.00831759 0.988409 0.5
13 1 0.335122 0.991128 0.5
20 1 0.626694 0.995254 0.5
34 2 0.910809 0.97004 0.5
ITEM: TIMESTEP
70
ITEM: NUMBER OF ATOMS
80
ITEM: BOX BOUNDS pp pp pp
-6.5901812408924707e+00 6.5901812408924707e+00
-6.5901812408924707e+00 6.5901812408924707e+00
-1.0000000000000001e-01 1.0000000000000001e-01
ITEM: ATOMS id type xs ys zs
78 4 0.134522 0.0326585 0.5
49 3 0.180013 0.0372204 0.5
7 1 0.255739 0.0161914 0.5
54 3 0.293757 0.0443646 0.5
29 2 0.429084 4.40472e-05 0.5
38 2 0.488654 0.0116588 0.5
32 2 0.544029 0.0369117 0.5
10 1 0.685422 0.00860616 0.5
42 3 0.804367 0.00103946 0.5
17 1 0.347924 0.0834693 0.5
74 4 0.732174 0.0652223 0.5
19 1 0.578432 0.110481 0.5
4 1 0.322727 0.195098 0.5
65 4 0.481121 0.17213 0.5
75 4 0.75202 0.206932 0.5
9 1 0.163447 0.246883 0.5
53 3 0.121107 0.246758 0.5
12 1 0.541669 0.209446 0.5
26 2 0.547919 0.262757 0.5
70 4 0.703889 0.266901 0.5
33 2 0.604161 0.347374 0.5
51 3 0.794391 0.315641 0.5
35 2 0.084274 0.392736 0.5
61 4 0.256564 0.418488 0.5
18 1 0.365676 0.413519 0.5
59 3 0.653334 0.376392 0.5
80 4 0.771374 0.364393 0.5
5 1 0.800767 0.400738 0.5
50 3 0.907858 0.369642 0.5
36 2 0.314705 0.424024 0.5
39 2 0.521422 0.470904 0.5
52 3 0.599926 0.452631 0.5
77 4 0.779494 0.463164 0.5
3 1 0.573061 0.484816 0.5
41 3 0.652477 0.479285 0.5
56 3 0.653407 0.510604 0.5
46 3 0.708888 0.490211 0.5
24 2 0.752923 0.530483 0.5
69 4 0.750961 0.481417 0.5
55 3 0.0689817 0.521327 0.5
11 1 0.105459 0.542191 0.5
73 4 0.127138 0.582381 0.5
40 2 0.684793 0.546902 0.5
22 2 0.0282938 0.588188 0.5
16 1 0.170861 0.587079 0.5
1 1 0.603949 0.605945 0.5
28 2 0.572816 0.570621 0.5
62 4 0.646893 0.62538 0.5
8 1 0.298725 0.669232 0.5
64 4 0.604359 0.655474 0.5
23 2 0.650311 0.67573 0.5
68 4 0.820869 0.650408 0.5
58 3 0.863072 0.637542 0.5
15 1 0.618628 0.726861 0.5
76 4 0.586616 0.69433 0.5
2 1 0.749162 0.703292 0.5
14 1 0.931386 0.699857 0.5
43 3 0.495207 0.787215 0.5
44 3 0.483108 0.752614 0.5
79 4 0.583507 0.772351 0.5
67 4 0.67502 0.741668 0.5
6 1 0.836546 0.784679 0.5
31 2 0.959774 0.766147 0.5
47 3 0.351199 0.807919 0.5
72 4 0.322488 0.839686 0.5
30 2 0.966316 0.829311 0.5
57 3 0.445372 0.879002 0.5
37 2 0.0369048 0.940066 0.5
63 4 0.272448 0.934712 0.5
45 3 0.324625 0.939801 0.5
60 3 0.413326 0.901589 0.5
27 2 0.498574 0.900263 0.5
71 4 0.588831 0.924059 0.5
21 2 0.710495 0.894031 0.5
25 2 0.712377 0.940164 0.5
48 3 0.0535298 0.00194466 0.5
66 4 0.00737764 0.988824 0.5
13 1 0.337822 0.990913 0.5
20 1 0.623369 0.994543 0.5
34 2 0.910809 0.97004 0.5
ITEM: TIMESTEP
80
ITEM: NUMBER OF ATOMS
80
ITEM: BOX BOUNDS pp pp pp
-6.5692523761506179e+00 6.5692523761506179e+00
-6.5692523761506179e+00 6.5692523761506179e+00
-1.0000000000000001e-01 1.0000000000000001e-01
ITEM: ATOMS id type xs ys zs
78 4 0.133725 0.0325795 0.5
49 3 0.180522 0.0373728 0.5
7 1 0.250531 0.0144089 0.5
54 3 0.295117 0.0473239 0.5
29 2 0.427476 -0.000313426 0.5
38 2 0.488983 0.0113429 0.5
32 2 0.544867 0.0369226 0.5
10 1 0.688803 0.0101955 0.5
42 3 0.804367 0.00103946 0.5
17 1 0.349161 0.0851274 0.5
74 4 0.732304 0.0653757 0.5
19 1 0.57891 0.111119 0.5
4 1 0.322709 0.195176 0.5
65 4 0.480878 0.171969 0.5
75 4 0.75202 0.206932 0.5
9 1 0.167808 0.246896 0.5
53 3 0.116746 0.246746 0.5
12 1 0.541352 0.205729 0.5
26 2 0.548407 0.266835 0.5
70 4 0.703889 0.266901 0.5
33 2 0.602741 0.346537 0.5
51 3 0.794453 0.314995 0.5
35 2 0.084274 0.392736 0.5
61 4 0.256275 0.418464 0.5
18 1 0.369887 0.412656 0.5
59 3 0.654754 0.37723 0.5
80 4 0.769528 0.362384 0.5
5 1 0.802698 0.402906 0.5
50 3 0.907858 0.369642 0.5
36 2 0.310785 0.424911 0.5
39 2 0.517006 0.470501 0.5
52 3 0.603426 0.449566 0.5
77 4 0.779928 0.46319 0.5
3 1 0.573169 0.487725 0.5
41 3 0.651167 0.474767 0.5
56 3 0.651469 0.51248 0.5
46 3 0.709627 0.487666 0.5
24 2 0.755373 0.532888 0.5
69 4 0.751171 0.480033 0.5
55 3 0.0664053 0.51946 0.5
11 1 0.105002 0.540148 0.5
73 4 0.125119 0.583836 0.5
40 2 0.684954 0.551638 0.5
22 2 0.0276989 0.58862 0.5
16 1 0.176508 0.589103 0.5
1 1 0.604316 0.60623 0.5
28 2 0.570125 0.567917 0.5
62 4 0.648684 0.625515 0.5
8 1 0.298725 0.669232 0.5
64 4 0.60278 0.654121 0.5
23 2 0.655271 0.674488 0.5
68 4 0.819911 0.6507 0.5
58 3 0.863982 0.637207 0.5
15 1 0.619066 0.732359 0.5
76 4 0.58276 0.693177 0.5
2 1 0.749249 0.70328 0.5
14 1 0.930774 0.69832 0.5
43 3 0.496163 0.789948 0.5
44 3 0.482152 0.749881 0.5
79 4 0.583115 0.772937 0.5
67 4 0.675796 0.742066 0.5
6 1 0.836557 0.78469 0.5
31 2 0.960249 0.766125 0.5
47 3 0.351969 0.807067 0.5
72 4 0.321717 0.840538 0.5
30 2 0.9665 0.830914 0.5
57 3 0.446262 0.877276 0.5
37 2 0.0370561 0.938338 0.5
63 4 0.272148 0.934611 0.5
45 3 0.32453 0.937232 0.5
60 3 0.411194 0.902921 0.5
27 2 0.499817 0.900657 0.5
71 4 0.588783 0.923964 0.5
21 2 0.710396 0.890255 0.5
25 2 0.71297 0.942947 0.5
48 3 0.0545126 0.00316961 0.5
66 4 0.00624353 0.989327 0.5
13 1 0.340873 0.990571 0.5
20 1 0.619708 0.993739 0.5
34 2 0.910809 0.97004 0.5
ITEM: TIMESTEP
90
ITEM: NUMBER OF ATOMS
80
ITEM: BOX BOUNDS pp pp pp
-6.6138556257578154e+00 6.6138556257578154e+00
-6.6138556257578154e+00 6.6138556257578154e+00
-1.0000000000000001e-01 1.0000000000000001e-01
ITEM: ATOMS id type xs ys zs
78 4 0.132811 0.0324886 0.5
49 3 0.180984 0.037591 0.5
7 1 0.245067 0.0124785 0.5
54 3 0.296415 0.0504566 0.5
29 2 0.42579 -0.000698926 0.5
38 2 0.489322 0.010968 0.5
32 2 0.545712 0.0369438 0.5
10 1 0.692345 0.0120156 0.5
42 3 0.804367 0.00103946 0.5
17 1 0.350615 0.0870388 0.5
74 4 0.732506 0.065621 0.5
19 1 0.579518 0.111805 0.5
4 1 0.322679 0.19531 0.5
65 4 0.480526 0.171748 0.5
75 4 0.75202 0.206932 0.5
9 1 0.172478 0.246909 0.5
53 3 0.112076 0.246732 0.5
12 1 0.541056 0.201884 0.5
26 2 0.548922 0.271212 0.5
70 4 0.703889 0.266901 0.5
33 2 0.601178 0.345623 0.5
51 3 0.794544 0.314212 0.5
35 2 0.084274 0.392736 0.5
61 4 0.255842 0.418423 0.5
18 1 0.374413 0.411728 0.5
59 3 0.656328 0.378158 0.5
80 4 0.767502 0.360265 0.5
5 1 0.804835 0.405175 0.5
50 3 0.907858 0.369642 0.5
36 2 0.30669 0.42588 0.5
39 2 0.512266 0.469999 0.5
52 3 0.606997 0.446174 0.5
77 4 0.780427 0.463281 0.5
3 1 0.573165 0.490776 0.5
41 3 0.650007 0.470006 0.5
56 3 0.64941 0.514492 0.5
46 3 0.710336 0.484919 0.5
24 2 0.758104 0.535518 0.5
69 4 0.751402 0.478539 0.5
55 3 0.0635352 0.517375 0.5
11 1 0.104679 0.537842 0.5
73 4 0.122979 0.585504 0.5
40 2 0.685139 0.556683 0.5
22 2 0.0269692 0.589167 0.5
16 1 0.182572 0.591279 0.5
1 1 0.604538 0.60635 0.5
28 2 0.567167 0.565129 0.5
62 4 0.650689 0.625576 0.5
8 1 0.298725 0.669232 0.5
64 4 0.601092 0.652887 0.5
23 2 0.660541 0.673311 0.5
68 4 0.818835 0.651028 0.5
58 3 0.864968 0.636797 0.5
15 1 0.619468 0.738095 0.5
76 4 0.578719 0.691919 0.5
2 1 0.74943 0.703267 0.5
14 1 0.930108 0.6966 0.5
43 3 0.497191 0.792886 0.5
44 3 0.481124 0.746942 0.5
79 4 0.582572 0.773691 0.5
67 4 0.676755 0.742546 0.5
6 1 0.83658 0.784711 0.5
31 2 0.960799 0.766101 0.5
47 3 0.352826 0.806118 0.5
72 4 0.32086 0.841486 0.5
30 2 0.966706 0.832739 0.5
57 3 0.447146 0.875346 0.5
37 2 0.037229 0.936388 0.5
63 4 0.271775 0.934474 0.5
45 3 0.324431 0.934397 0.5
60 3 0.408889 0.904379 0.5
27 2 0.501237 0.901129 0.5
71 4 0.588704 0.923799 0.5
21 2 0.710281 0.88618 0.5
25 2 0.71369 0.94577 0.5
48 3 0.0556221 0.0045506 0.5
66 4 0.00496124 0.989897 0.5
13 1 0.344121 0.990126 0.5
20 1 0.615873 0.992859 0.5
34 2 0.910809 0.97004 0.5
ITEM: TIMESTEP
100
ITEM: NUMBER OF ATOMS
80
ITEM: BOX BOUNDS pp pp pp
-6.6981322600161226e+00 6.6981322600161226e+00
-6.6981322600161226e+00 6.6981322600161226e+00
-1.0000000000000001e-01 1.0000000000000001e-01
ITEM: ATOMS id type xs ys zs
78 4 0.131809 0.0323881 0.5
49 3 0.181358 0.0378892 0.5
7 1 0.239574 0.010433 0.5
54 3 0.2976 0.0536532 0.5
29 2 0.424098 0.998903 0.5
38 2 0.489655 0.0105392 0.5
32 2 0.546532 0.0369941 0.5
10 1 0.695927 0.014018 0.5
42 3 0.804367 0.00103946 0.5
17 1 0.35225 0.0891371 0.5
74 4 0.732785 0.0659696 0.5
19 1 0.580251 0.112504 0.5
4 1 0.322633 0.195501 0.5
65 4 0.480065 0.171473 0.5
75 4 0.75202 0.206932 0.5
9 1 0.17731 0.246923 0.5
53 3 0.107244 0.246718 0.5
12 1 0.540792 0.19805 0.5
26 2 0.549427 0.275729 0.5
70 4 0.703889 0.266901 0.5
33 2 0.599542 0.34469 0.5
51 3 0.794666 0.313337 0.5
35 2 0.084274 0.392736 0.5
61 4 0.255257 0.418359 0.5
18 1 0.379117 0.410762 0.5
59 3 0.658003 0.379147 0.5
80 4 0.765357 0.358104 0.5
5 1 0.807121 0.407443 0.5
50 3 0.907858 0.369642 0.5
36 2 0.302573 0.42691 0.5
39 2 0.507332 0.469407 0.5
52 3 0.610512 0.442535 0.5
77 4 0.780974 0.463453 0.5
3 1 0.573056 0.493844 0.5
41 3 0.649062 0.465162 0.5
56 3 0.647324 0.51657 0.5
46 3 0.710959 0.482095 0.5
24 2 0.76102 0.538263 0.5
69 4 0.751645 0.476992 0.5
55 3 0.0604252 0.515135 0.5
11 1 0.104537 0.535352 0.5
73 4 0.120786 0.587348 0.5
40 2 0.685377 0.561846 0.5
22 2 0.0261418 0.589803 0.5
16 1 0.188843 0.593529 0.5
1 1 0.604611 0.606315 0.5
28 2 0.564005 0.562363 0.5
62 4 0.652847 0.625555 0.5
8 1 0.298725 0.669232 0.5
64 4 0.599362 0.651867 0.5
23 2 0.665929 0.672227 0.5
68 4 0.817679 0.65138 0.5
58 3 0.865988 0.636319 0.5
15 1 0.619834 0.743857 0.5
76 4 0.574619 0.690604 0.5
2 1 0.749726 0.703268 0.5
14 1 0.929412 0.694752 0.5
43 3 0.498258 0.795937 0.5
44 3 0.480057 0.743891 0.5
79 4 0.581867 0.774597 0.5
67 4 0.677874 0.743075 0.5
6 1 0.836611 0.78474 0.5
31 2 0.961411 0.766074 0.5
47 3 0.353741 0.805106 0.5
72 4 0.319945 0.842499 0.5
30 2 0.966927 0.83474 0.5
57 3 0.447997 0.873264 0.5
37 2 0.0374153 0.934294 0.5
63 4 0.27134 0.934312 0.5
45 3 0.324325 0.931368 0.5
60 3 0.406482 0.90592 0.5
27 2 0.502794 0.90167 0.5
71 4 0.588596 0.923558 0.5
21 2 0.710154 0.881925 0.5
25 2 0.714501 0.948535 0.5
48 3 0.0568126 0.00603189 0.5
66 4 0.00358434 0.99051 0.5
13 1 0.347413 0.989616 0.5
20 1 0.612016 0.991915 0.5
34 2 0.910809 0.97004 0.5
ITEM: TIMESTEP
110
ITEM: NUMBER OF ATOMS
80
ITEM: BOX BOUNDS pp pp pp
-6.7855987055197566e+00 6.7855987055197566e+00
-6.7855987055197566e+00 6.7855987055197566e+00
-1.0000000000000001e-01 1.0000000000000001e-01
ITEM: ATOMS id type xs ys zs
78 4 0.130742 0.0322802 0.5
49 3 0.181614 0.0382843 0.5
7 1 0.234221 0.00828121 0.5
54 3 0.29864 0.0568317 0.5
29 2 0.422456 0.998505 0.5
38 2 0.489973 0.0100599 0.5
32 2 0.547311 0.0370937 0.5
10 1 0.699467 0.0161624 0.5
42 3 0.804367 0.00103946 0.5
17 1 0.354046 0.091372 0.5
74 4 0.733144 0.0664314 0.5
19 1 0.581108 0.113188 0.5
4 1 0.322572 0.195746 0.5
65 4 0.479495 0.171152 0.5
75 4 0.75202 0.206932 0.5
9 1 0.182195 0.246938 0.5
53 3 0.102358 0.246703 0.5
12 1 0.540562 0.194324 0.5
26 2 0.549895 0.280262 0.5
70 4 0.703889 0.266901 0.5
33 2 0.597892 0.343785 0.5
51 3 0.794818 0.312414 0.5
35 2 0.084274 0.392736 0.5
61 4 0.254509 0.418265 0.5
18 1 0.383893 0.40978 0.5
59 3 0.659738 0.380171 0.5
80 4 0.76314 0.355947 0.5
5 1 0.809509 0.409628 0.5
50 3 0.907858 0.369642 0.5
36 2 0.298544 0.427986 0.5
39 2 0.502287 0.468742 0.5
52 3 0.613892 0.438707 0.5
77 4 0.781561 0.463711 0.5
3 1 0.572863 0.496821 0.5
41 3 0.648353 0.460339 0.5
56 3 0.645282 0.518657 0.5
46 3 0.711456 0.479306 0.5
24 2 0.764033 0.541037 0.5
69 4 0.751897 0.47544 0.5
55 3 0.0571102 0.512796 0.5
11 1 0.104611 0.532748 0.5
73 4 0.118598 0.589333 0.5
40 2 0.685709 0.566992 0.5
22 2 0.025255 0.590493 0.5
16 1 0.195159 0.595796 0.5
1 1 0.604548 0.606147 0.5
28 2 0.560669 0.559692 0.5
62 4 0.655102 0.625469 0.5
8 1 0.298725 0.669232 0.5
64 4 0.597637 0.651097 0.5
23 2 0.671298 0.67125 0.5
68 4 0.816472 0.651748 0.5
58 3 0.86701 0.635778 0.5
15 1 0.620183 0.749523 0.5
76 4 0.570536 0.689278 0.5
2 1 0.750151 0.703301 0.5
14 1 0.928706 0.692817 0.5
43 3 0.49934 0.799031 0.5
44 3 0.478975 0.740797 0.5
79 4 0.580986 0.775636 0.5
67 4 0.679132 0.743618 0.5
6 1 0.836643 0.78477 0.5
31 2 0.962075 0.766044 0.5
47 3 0.354691 0.804056 0.5
72 4 0.318996 0.843549 0.5
30 2 0.967156 0.836877 0.5
57 3 0.448795 0.871071 0.5
37 2 0.0376078 0.932128 0.5
63 4 0.270856 0.934137 0.5
45 3 0.324207 0.9282 0.5
60 3 0.404024 0.907512 0.5
27 2 0.504454 0.902272 0.5
71 4 0.58846 0.923236 0.5
21 2 0.710018 0.87758 0.5
25 2 0.715378 0.951169 0.5
48 3 0.0580437 0.00756402 0.5
66 4 0.00216074 0.991143 0.5
13 1 0.350618 0.989079 0.5
20 1 0.608238 0.990917 0.5
34 2 0.910809 0.97004 0.5
ITEM: TIMESTEP
120
ITEM: NUMBER OF ATOMS
80
ITEM: BOX BOUNDS pp pp pp
-6.8392663514225553e+00 6.8392663514225553e+00
-6.8392663514225553e+00 6.8392663514225553e+00
-1.0000000000000001e-01 1.0000000000000001e-01
ITEM: ATOMS id type xs ys zs
78 4 0.129621 0.0321656 0.5
49 3 0.181734 0.038799 0.5
7 1 0.229096 0.00601004 0.5
54 3 0.29952 0.0599486 0.5
29 2 0.4209 0.998114 0.5
38 2 0.490267 0.00952842 0.5
32 2 0.548042 0.0372635 0.5
10 1 0.702925 0.0184286 0.5
42 3 0.804367 0.00103946 0.5
17 1 0.355999 0.0937153 0.5
74 4 0.733586 0.0670203 0.5
19 1 0.582094 0.113837 0.5
4 1 0.322495 0.196043 0.5
65 4 0.478813 0.170792 0.5
75 4 0.75202 0.206932 0.5
9 1 0.187082 0.246952 0.5
53 3 0.0974719 0.246689 0.5
12 1 0.540362 0.190754 0.5
26 2 0.5503 0.284746 0.5
70 4 0.703889 0.266901 0.5
33 2 0.596268 0.342942 0.5
51 3 0.795003 0.311462 0.5
35 2 0.084274 0.392736 0.5
61 4 0.253589 0.418131 0.5
18 1 0.388694 0.408792 0.5
59 3 0.661513 0.381215 0.5
80 4 0.760874 0.353815 0.5
5 1 0.81198 0.411691 0.5
50 3 0.907858 0.369642 0.5
36 2 0.294663 0.429108 0.5
39 2 0.497158 0.468013 0.5
52 3 0.617103 0.434709 0.5
77 4 0.782185 0.464059 0.5
3 1 0.572616 0.49963 0.5
41 3 0.647878 0.455586 0.5
56 3 0.643317 0.520729 0.5
46 3 0.711827 0.476589 0.5