ITEM: TIMESTEP
500
ITEM: NUMBER OF ATOMS
68
ITEM: BOX BOUNDS pp pp pp
-4.8222443933410686e+00 4.8222443933410686e+00
-4.8230027032722580e+00 4.8230027032722580e+00
-1.0000000000000001e-01 1.0000000000000001e-01
ITEM: ATOMS id type xs ys zs
44 1 0.0247897 0.0400341 0.501906
36 1 0.127377 0.0250655 0.500275
28 1 0.24896 0.0351293 0.499533
1 1 0.381746 0.0769448 0.499794
63 1 0.486175 0.0249348 0.500815
7 1 0.645899 0.0539415 0.499378
55 1 0.76879 0.998065 0.500255
60 1 0.858735 0.0355586 0.49822
22 1 0.0892812 0.132897 0.500341
69 1 0.178559 0.104469 0.501205
16 1 0.263478 0.173307 0.499955
77 1 0.451432 0.164278 0.499632
40 1 0.524426 0.108607 0.500818
70 1 0.584705 0.186109 0.500737
8 1 0.776117 0.151372 0.500636
52 1 0.858877 0.252842 0.500182
11 1 0.934779 0.127093 0.499798
3 1 0.984088 0.279295 0.499427
13 1 0.13546 0.256969 0.498921
48 1 0.299449 0.290521 0.500608
80 1 0.380679 0.18335 0.498361
74 1 0.374523 0.320209 0.500188
23 1 0.445063 0.251514 0.499544
68 1 0.524863 0.200834 0.500832
46 1 0.586709 0.259299 0.501126
49 1 0.756843 0.275271 0.500049
4 1 0.856275 0.368876 0.500532
19 1 0.0786408 0.409045 0.50068
33 1 0.219449 0.368987 0.501012
71 1 0.318939 0.35905 0.500243
30 1 0.396825 0.411005 0.499545
6 1 0.536741 0.37828 0.499105
32 1 0.667182 0.343976 0.500802
76 1 0.754952 0.360086 0.499999
5 1 0.0162199 0.543058 0.499931
9 1 0.186118 0.52904 0.499507
42 1 0.28884 0.452354 0.500342
12 1 0.70877 0.473884 0.499915
79 1 0.767456 0.586889 0.498669
10 1 0.866925 0.513026 0.498915
29 1 0.0341204 0.662657 0.49936
31 1 0.594781 0.659954 0.499654
47 1 0.694919 0.600929 0.500202
75 1 0.830246 0.599355 0.500953
58 1 0.921504 0.632985 0.500544
37 1 0.224728 0.760872 0.501037
38 1 0.268953 0.641273 0.499602
50 1 0.327921 0.800298 0.501788
51 1 0.356155 0.714667 0.501523
64 1 0.519433 0.709647 0.499591
35 1 0.585213 0.781974 0.500726
45 1 0.689698 0.704155 0.501682
20 1 0.819077 0.686656 0.499698
25 1 0.952327 0.742738 0.499689
15 1 0.0836454 0.794828 0.499596
17 1 0.337029 0.920663 0.500411
2 1 0.446072 0.796021 0.499692
34 1 0.75997 0.797148 0.502695
39 1 0.947493 0.851542 0.500634
26 1 0.0613155 0.934275 0.498577
18 1 0.20254 0.904414 0.499691
53 1 0.420634 0.976567 0.499976
61 1 0.451144 0.888995 0.500719
14 1 0.553128 0.927595 0.498472
66 1 0.73045 0.921155 0.499674
67 1 0.664647 0.940513 0.500412
27 1 0.826809 0.911127 0.501666
21 1 0.936719 0.970322 0.499242
ITEM: TIMESTEP
750
ITEM: NUMBER OF ATOMS
68
ITEM: BOX BOUNDS pp pp pp
-4.8210386127906730e+00 4.8210386127906730e+00
-4.8223384594764660e+00 4.8223384594764660e+00
-1.0000000000000001e-01 1.0000000000000001e-01
ITEM: ATOMS id type xs ys zs
44 1 0.0251011 0.0401789 0.501514
36 1 0.127726 0.025058 0.500642
28 1 0.249583 0.0347936 0.499284
1 1 0.381779 0.0774467 0.50266
63 1 0.486324 0.0255531 0.499945
7 1 0.646739 0.0548239 0.499602
55 1 0.768727 0.997987 0.498655
60 1 0.858741 0.035069 0.497201
22 1 0.0901936 0.132833 0.500502
69 1 0.179006 0.104626 0.500662
16 1 0.263664 0.17346 0.500535
77 1 0.451888 0.164711 0.501341
40 1 0.524969 0.108995 0.500025
70 1 0.585488 0.185754 0.500848
8 1 0.775911 0.151807 0.500369
52 1 0.858474 0.252588 0.502344
11 1 0.934757 0.126705 0.499502
3 1 0.983593 0.278969 0.49867
13 1 0.13648 0.256754 0.49853
48 1 0.299879 0.290732 0.502686
80 1 0.38104 0.183704 0.496349
74 1 0.375078 0.32081 0.501181
23 1 0.445332 0.251813 0.501426
68 1 0.525669 0.201618 0.499542
46 1 0.587953 0.259258 0.502381
49 1 0.756575 0.275083 0.499647
4 1 0.856824 0.369407 0.499541
19 1 0.0789381 0.408646 0.502864
33 1 0.219568 0.369149 0.501147
71 1 0.319114 0.359451 0.499636
30 1 0.397075 0.411708 0.498607
6 1 0.536433 0.378449 0.498567
32 1 0.667568 0.344017 0.49992
76 1 0.755036 0.359995 0.498628
5 1 0.0151948 0.542614 0.497343
9 1 0.185032 0.529226 0.498194
42 1 0.28794 0.452648 0.502228
12 1 0.709752 0.473915 0.500205
79 1 0.767892 0.58724 0.499494
10 1 0.867862 0.512812 0.49965
29 1 0.0337175 0.661818 0.50069
31 1 0.594838 0.660208 0.500148
47 1 0.69463 0.601107 0.498589
75 1 0.831089 0.599402 0.500853
58 1 0.92083 0.6326 0.500295
37 1 0.225485 0.760929 0.501889
38 1 0.269343 0.6408 0.499137
50 1 0.327981 0.800338 0.501757
51 1 0.356358 0.71472 0.501309
64 1 0.520173 0.710625 0.500384
35 1 0.586288 0.781963 0.502573
45 1 0.689676 0.704671 0.500813
20 1 0.81966 0.686774 0.500777
25 1 0.952339 0.742726 0.501429
15 1 0.0839139 0.793757 0.49971
17 1 0.337224 0.920525 0.498355
2 1 0.446299 0.796069 0.498706
34 1 0.760353 0.797207 0.502898
39 1 0.948092 0.852293 0.500051
26 1 0.0618602 0.934516 0.50086
18 1 0.202252 0.904244 0.498849
53 1 0.42079 0.977543 0.498726
61 1 0.451166 0.889333 0.501026
14 1 0.553901 0.92847 0.499474
66 1 0.729569 0.920796 0.499699
67 1 0.664317 0.94126 0.500252
27 1 0.826528 0.911664 0.50136
21 1 0.937106 0.970251 0.498452
ITEM: TIMESTEP
1000
ITEM: NUMBER OF ATOMS
68
ITEM: BOX BOUNDS pp pp pp
-4.8198328322402775e+00 4.8198328322402775e+00
-4.8234278151627326e+00 4.8234278151627326e+00
-1.0000000000000001e-01 1.0000000000000001e-01
ITEM: ATOMS id type xs ys zs
44 1 0.0249079 0.0401419 0.500706
36 1 0.12754 0.0250899 0.499918
28 1 0.24911 0.0346607 0.497549
1 1 0.381557 0.0771341 0.503094
63 1 0.48687 0.025586 0.500754
7 1 0.646205 0.0546152 0.500065
55 1 0.768701 0.9981 0.497288
60 1 0.858826 0.0353785 0.497803
22 1 0.0892405 0.133188 0.501023
69 1 0.178171 0.10437 0.504501
16 1 0.263254 0.173625 0.500138
77 1 0.451319 0.164489 0.502402
40 1 0.524226 0.109854 0.499739
70 1 0.585583 0.186465 0.49981
8 1 0.776577 0.152028 0.500942
52 1 0.859375 0.252582 0.503624
11 1 0.934994 0.12719 0.501129
3 1 0.984852 0.278719 0.499864
13 1 0.135392 0.256875 0.498951
48 1 0.300696 0.289984 0.502683
80 1 0.380805 0.183607 0.497203
74 1 0.375481 0.319761 0.50077
23 1 0.445957 0.251465 0.501206
68 1 0.526218 0.202304 0.499489
46 1 0.588426 0.259803 0.502798
49 1 0.756851 0.274972 0.498733
4 1 0.857823 0.368566 0.499129
19 1 0.0794353 0.409262 0.502026
33 1 0.220165 0.368422 0.500329
71 1 0.319751 0.35878 0.499229
30 1 0.397253 0.411017 0.498805
6 1 0.53667 0.378257 0.497989
32 1 0.668119 0.344529 0.499746
76 1 0.755784 0.359888 0.498217
5 1 0.0154769 0.542541 0.498168
9 1 0.185924 0.529805 0.499997
42 1 0.288663 0.452214 0.501528
12 1 0.710583 0.474615 0.499542
79 1 0.767631 0.586947 0.495505
10 1 0.868922 0.512567 0.498639
29 1 0.0337455 0.662112 0.501368
31 1 0.594965 0.659797 0.498665
47 1 0.69503 0.602101 0.498904
75 1 0.830903 0.598662 0.500543
58 1 0.921185 0.632644 0.499874
37 1 0.225403 0.760417 0.502545
38 1 0.269976 0.641223 0.500869
50 1 0.328463 0.799726 0.502162
51 1 0.357483 0.714082 0.501738
64 1 0.520885 0.710204 0.500037
35 1 0.585933 0.782209 0.502111
45 1 0.689426 0.705303 0.502651
20 1 0.819275 0.686497 0.499114
25 1 0.952728 0.743075 0.501294
15 1 0.0839032 0.794269 0.499067
17 1 0.337713 0.920133 0.497502
2 1 0.446868 0.796187 0.499333
34 1 0.762144 0.797369 0.503477
39 1 0.948565 0.851986 0.500873
26 1 0.0617179 0.934648 0.502478
18 1 0.203 0.904401 0.498336
53 1 0.421483 0.977336 0.497765
61 1 0.451352 0.888822 0.500893
14 1 0.553664 0.927853 0.500213
66 1 0.7296 0.921121 0.501671
67 1 0.664179 0.941508 0.501174
27 1 0.826564 0.911584 0.501484
21 1 0.936986 0.970161 0.497536
ITEM: TIMESTEP
1250
ITEM: NUMBER OF ATOMS
68
ITEM: BOX BOUNDS pp pp pp
-4.8186270516898819e+00 4.8186270516898819e+00
-4.8215374638441455e+00 4.8215374638441455e+00
-1.0000000000000001e-01 1.0000000000000001e-01
ITEM: ATOMS id type xs ys zs
44 1 0.0246213 0.0403758 0.501576
36 1 0.127301 0.0255348 0.498909
28 1 0.248616 0.0355058 0.498796
1 1 0.381313 0.0770163 0.502732
63 1 0.486005 0.0252908 0.501699
7 1 0.646691 0.0538816 0.501205
55 1 0.768254 0.997646 0.497187
60 1 0.858083 0.0357322 0.498438
22 1 0.0889812 0.133105 0.501546
69 1 0.177956 0.104992 0.505094
16 1 0.263151 0.173881 0.500094
77 1 0.451226 0.163738 0.50343
40 1 0.524604 0.108853 0.500817
70 1 0.586275 0.185292 0.500678
8 1 0.775642 0.151096 0.501475
52 1 0.858514 0.253332 0.504096
11 1 0.93445 0.126806 0.50138
3 1 0.984483 0.278393 0.501074
13 1 0.135952 0.256674 0.49839
48 1 0.300642 0.289988 0.502131
80 1 0.380997 0.183583 0.497373
74 1 0.37576 0.320306 0.50046
23 1 0.445889 0.251366 0.499404
68 1 0.526267 0.20142 0.499907
46 1 0.588178 0.258864 0.502894
49 1 0.756677 0.274882 0.497475
4 1 0.857189 0.368753 0.500162
19 1 0.0795262 0.409149 0.500533
33 1 0.220224 0.369082 0.499994
71 1 0.32019 0.3589 0.499161
30 1 0.397477 0.411761 0.497529
6 1 0.536781 0.378172 0.4956
32 1 0.667747 0.344629 0.501136
76 1 0.75548 0.359606 0.499277
5 1 0.0161086 0.543361 0.499388
9 1 0.186808 0.529458 0.499741
42 1 0.288833 0.452384 0.499933
12 1 0.711204 0.473924 0.50029
79 1 0.767144 0.586886 0.495237
10 1 0.869513 0.512587 0.500198
29 1 0.0344355 0.662526 0.502205
31 1 0.594963 0.660427 0.499281
47 1 0.694418 0.601636 0.498935
75 1 0.83048 0.598171 0.502273
58 1 0.922214 0.633059 0.500022
37 1 0.225608 0.761968 0.502442
38 1 0.269764 0.641938 0.500422
50 1 0.328221 0.800403 0.501958
51 1 0.357341 0.714557 0.501585
64 1 0.519736 0.710178 0.498078
35 1 0.585959 0.782033 0.502748
45 1 0.689602 0.704752 0.50276
20 1 0.819498 0.685352 0.498255
25 1 0.952802 0.742961 0.502251
15 1 0.0841358 0.794377 0.499007
17 1 0.336437 0.920766 0.497264
2 1 0.446547 0.797141 0.500543
34 1 0.762697 0.795919 0.502525
39 1 0.947897 0.852389 0.497902
26 1 0.0615613 0.934637 0.501644
18 1 0.202355 0.904783 0.499003
53 1 0.420799 0.976398 0.497779
61 1 0.450393 0.890429 0.499998
14 1 0.553269 0.927704 0.499285
66 1 0.72984 0.920376 0.501608
67 1 0.664199 0.940199 0.501397
27 1 0.827222 0.911443 0.49978
21 1 0.936749 0.970687 0.49932
ITEM: TIMESTEP
1500
ITEM: NUMBER OF ATOMS
68
ITEM: BOX BOUNDS pp pp pp
-4.8174212711394864e+00 4.8174212711394864e+00
-4.8220383348944011e+00 4.8220383348944011e+00
-1.0000000000000001e-01 1.0000000000000001e-01
ITEM: ATOMS id type xs ys zs
44 1 0.0235181 0.0410284 0.499664
36 1 0.126598 0.0258203 0.499906
28 1 0.248557 0.0353859 0.499353
1 1 0.381297 0.0770689 0.503902
63 1 0.486436 0.0246145 0.50189
7 1 0.64611 0.0534584 0.502633
55 1 0.768232 0.99661 0.498661
60 1 0.857488 0.0358064 0.497268
22 1 0.0889162 0.133635 0.501856
69 1 0.178297 0.105114 0.506519
16 1 0.263126 0.173806 0.501205
77 1 0.451736 0.164056 0.505035
40 1 0.524272 0.108255 0.499339
70 1 0.585629 0.184742 0.500139
8 1 0.774725 0.15103 0.503137
52 1 0.85947 0.251793 0.504471
11 1 0.933223 0.127537 0.503267
3 1 0.985121 0.278605 0.501808
13 1 0.135521 0.257056 0.498667
48 1 0.30108 0.290786 0.502396
80 1 0.380816 0.183582 0.49642
74 1 0.376081 0.320837 0.501004
23 1 0.445529 0.251404 0.500193
68 1 0.525689 0.200827 0.501159
46 1 0.588005 0.258611 0.50441
49 1 0.756499 0.274493 0.497376
4 1 0.857023 0.36798 0.499925
19 1 0.0796536 0.408773 0.501322
33 1 0.220383 0.368492 0.501532
71 1 0.319928 0.359369 0.498874
30 1 0.397936 0.411518 0.496951
6 1 0.536923 0.377489 0.49587
32 1 0.667695 0.343727 0.501127
76 1 0.755729 0.359452 0.500912
5 1 0.0179332 0.543726 0.499317
9 1 0.186716 0.530287 0.499972
42 1 0.288592 0.452506 0.500721
12 1 0.71071 0.474166 0.498463
79 1 0.767314 0.586808 0.494547
10 1 0.868685 0.511873 0.499216
29 1 0.0338433 0.662926 0.499209
31 1 0.593668 0.65982 0.499913
47 1 0.694356 0.601094 0.500286
75 1 0.830668 0.598107 0.502587
58 1 0.921756 0.632243 0.499842
37 1 0.22585 0.760855 0.502722
38 1 0.270133 0.641283 0.500632
50 1 0.328562 0.80027 0.499756
51 1 0.357083 0.715153 0.501285
64 1 0.519314 0.709384 0.49771
35 1 0.585104 0.781603 0.503639
45 1 0.688843 0.70415 0.502424
20 1 0.8193 0.686001 0.499992
25 1 0.951957 0.743298 0.502989
15 1 0.0835495 0.794785 0.50031
17 1 0.335972 0.920184 0.497632
2 1 0.446347 0.7966 0.500774
34 1 0.760952 0.796425 0.501234
39 1 0.947292 0.852542 0.499436
26 1 0.0608724 0.935815 0.501505
18 1 0.201504 0.904715 0.498799
53 1 0.420302 0.976884 0.499448
61 1 0.450453 0.889964 0.500193
14 1 0.553317 0.927336 0.499493
66 1 0.729504 0.919737 0.502516
67 1 0.664188 0.939853 0.500522
27 1 0.826875 0.910661 0.501377
21 1 0.935826 0.971239 0.498996
ITEM: TIMESTEP
1750
ITEM: NUMBER OF ATOMS
68
ITEM: BOX BOUNDS pp pp pp
-4.8162154905890908e+00 4.8162154905890908e+00
-4.8222559354969814e+00 4.8222559354969814e+00
-1.0000000000000001e-01 1.0000000000000001e-01
ITEM: ATOMS id type xs ys zs
44 1 0.0241472 0.0412944 0.500521
36 1 0.126949 0.0260058 0.500855
28 1 0.248888 0.0347129 0.501454
1 1 0.381176 0.0769299 0.503069
63 1 0.4867 0.024766 0.500044
7 1 0.646275 0.0537645 0.502044
55 1 0.767862 0.996859 0.497589
60 1 0.857307 0.0365823 0.497456
22 1 0.0897239 0.134043 0.502142
69 1 0.178632 0.1041 0.508414
16 1 0.263165 0.173761 0.50154
77 1 0.451759 0.163831 0.506447
40 1 0.524956 0.108508 0.4989
70 1 0.585052 0.185725 0.497949
8 1 0.775519 0.151825 0.503883
52 1 0.859715 0.251891 0.505571
11 1 0.93344 0.127296 0.50393
3 1 0.984749 0.279952 0.501074
13 1 0.135556 0.257449 0.500236
48 1 0.301064 0.290383 0.504526
80 1 0.380411 0.183634 0.497331
74 1 0.376333 0.320747 0.499407
23 1 0.445821 0.251534 0.500398
68 1 0.52545 0.200717 0.50184
46 1 0.587243 0.259147 0.503127
49 1 0.756187 0.275063 0.496107
4 1 0.856308 0.368535 0.49886
19 1 0.0804128 0.409397 0.498883
33 1 0.220785 0.368983 0.500225
71 1 0.320511 0.359056 0.500547
30 1 0.397747 0.41215 0.497499
6 1 0.536652 0.378164 0.494595
32 1 0.66701 0.344241 0.500689
76 1 0.754314 0.359561 0.500424
5 1 0.0166861 0.544144 0.498727
9 1 0.186631 0.529851 0.500043
42 1 0.289351 0.452544 0.501017
12 1 0.710655 0.474112 0.500545
79 1 0.768314 0.585863 0.494334
10 1 0.868438 0.511668 0.498566
29 1 0.0338425 0.663397 0.498095
31 1 0.594212 0.658843 0.499346
47 1 0.695378 0.601269 0.498684
75 1 0.831415 0.597579 0.504823
58 1 0.921289 0.633573 0.501211
37 1 0.225444 0.761838 0.501473
38 1 0.269205 0.642096 0.49971
50 1 0.328339 0.799544 0.499244
51 1 0.358133 0.714752 0.504271
64 1 0.520159 0.70951 0.498776
35 1 0.586747 0.781011 0.504694
45 1 0.688708 0.70428 0.50262
20 1 0.819057 0.685113 0.498331
25 1 0.951965 0.743707 0.502987
15 1 0.0835729 0.795552 0.49924
17 1 0.336553 0.920096 0.49654
2 1 0.446993 0.796553 0.499601
34 1 0.761673 0.796164 0.499699
39 1 0.947233 0.852659 0.499492
26 1 0.0606453 0.935758 0.500471
18 1 0.201653 0.904831 0.496896
53 1 0.420837 0.976875 0.498704
61 1 0.450429 0.889489 0.498639
14 1 0.553505 0.927016 0.49885
66 1 0.7298 0.919101 0.501549
67 1 0.664687 0.939901 0.501435
27 1 0.826832 0.911054 0.500792
21 1 0.935692 0.971397 0.49948
ITEM: TIMESTEP
2000
ITEM: NUMBER OF ATOMS
68
ITEM: BOX BOUNDS pp pp pp
-4.8150097100386962e+00 4.8150097100386962e+00
-4.8267502184764099e+00 4.8267502184764099e+00
-1.0000000000000001e-01 1.0000000000000001e-01
ITEM: ATOMS id type xs ys zs
44 1 0.0240394 0.0415665 0.501421
36 1 0.127011 0.0262809 0.499594
28 1 0.248752 0.0355424 0.50263
1 1 0.381285 0.0760743 0.5028
63 1 0.486367 0.0246791 0.498836
7 1 0.64602 0.0530589 0.501775
55 1 0.768279 0.997179 0.497502
60 1 0.85794 0.0360816 0.498263
22 1 0.0896188 0.134077 0.502482
69 1 0.178515 0.105534 0.508234
16 1 0.262943 0.174054 0.50148
77 1 0.451007 0.163685 0.506033
40 1 0.524508 0.108496 0.498727
70 1 0.585573 0.185622 0.495889
8 1 0.77468 0.15154 0.505605
52 1 0.858907 0.252313 0.505189
11 1 0.933772 0.127958 0.503632
3 1 0.984913 0.278714 0.500771
13 1 0.135316 0.257384 0.500874
48 1 0.300273 0.290168 0.504573
80 1 0.381128 0.182684 0.498365
74 1 0.374974 0.320762 0.498235
23 1 0.44592 0.251416 0.500265
68 1 0.525554 0.201028 0.501548
46 1 0.587419 0.259393 0.501986
49 1 0.755672 0.273855 0.49648
4 1 0.857166 0.368945 0.497545
19 1 0.0790038 0.409154 0.498175
33 1 0.220047 0.368642 0.499012
71 1 0.318755 0.358857 0.501595
30 1 0.396909 0.411713 0.498626
6 1 0.535501 0.377076 0.493528
32 1 0.667098 0.344348 0.50192
76 1 0.755268 0.359026 0.502551
5 1 0.0173262 0.544415 0.498082
9 1 0.186221 0.530642 0.501025
42 1 0.288301 0.452728 0.502216
12 1 0.710237 0.474584 0.502116
79 1 0.767429 0.587173 0.493782
10 1 0.868785 0.512986 0.497501
29 1 0.033815 0.664074 0.496794
31 1 0.594433 0.659637 0.496993
47 1 0.694672 0.602036 0.498154
75 1 0.83061 0.598601 0.505706
58 1 0.921618 0.633494 0.499944
37 1 0.225275 0.761246 0.501618
38 1 0.270127 0.642369 0.497936
50 1 0.327987 0.799856 0.49733
51 1 0.357272 0.714628 0.502012
64 1 0.520211 0.710106 0.498523
35 1 0.586528 0.781102 0.504281
45 1 0.689194 0.704989 0.502992
20 1 0.819248 0.685848 0.499043
25 1 0.951644 0.743764 0.504332
15 1 0.0836634 0.795484 0.496475
17 1 0.336276 0.920167 0.494507
2 1 0.447144 0.796616 0.501561
34 1 0.762174 0.796625 0.501096
39 1 0.947392 0.853087 0.498962
26 1 0.0611434 0.936037 0.500867
18 1 0.201875 0.905446 0.496482
53 1 0.420966 0.976384 0.499112
61 1 0.450226 0.88914 0.498117
14 1 0.552944 0.926833 0.498558
66 1 0.729418 0.92031 0.50282
67 1 0.663919 0.93961 0.500547
27 1 0.826563 0.911232 0.500836
21 1 0.936296 0.970986 0.500534
ITEM: TIMESTEP
2250
ITEM: NUMBER OF ATOMS
68
ITEM: BOX BOUNDS pp pp pp
-4.8138039294883006e+00 4.8138039294883006e+00
-4.8246832092232701e+00 4.8246832092232701e+00
-1.0000000000000001e-01 1.0000000000000001e-01
ITEM: ATOMS id type xs ys zs
44 1 0.0243523 0.040124 0.500416
36 1 0.126728 0.0257417 0.500705
28 1 0.248992 0.0347893 0.502257
1 1 0.381514 0.0759476 0.503716
63 1 0.486711 0.0248839 0.49998
7 1 0.646147 0.0532102 0.501216
55 1 0.769041 0.997028 0.497077
60 1 0.858442 0.0358934 0.50015
22 1 0.089242 0.134219 0.502591
69 1 0.178057 0.104767 0.5083
16 1 0.263085 0.173166 0.500796
77 1 0.450971 0.163893 0.505333
40 1 0.524506 0.108647 0.498017
70 1 0.585836 0.185361 0.4955
8 1 0.775484 0.151832 0.505391
52 1 0.858725 0.252143 0.503083
11 1 0.934635 0.127363 0.50272
3 1 0.984637 0.278945 0.502304
13 1 0.135685 0.257387 0.501662
48 1 0.298903 0.290459 0.504751
80 1 0.380029 0.182735 0.499796
74 1 0.374276 0.320034 0.497009
23 1 0.444807 0.250912 0.499907
68 1 0.525755 0.200838 0.505013
46 1 0.587751 0.258363 0.503064
49 1 0.75689 0.274729 0.496562
4 1 0.856884 0.368236 0.496372
19 1 0.0782635 0.409468 0.498128
33 1 0.219291 0.369931 0.499162
71 1 0.318567 0.359064 0.500677
30 1 0.396839 0.411273 0.499124
6 1 0.534965 0.375931 0.49324
32 1 0.667162 0.343777 0.500079
76 1 0.755057 0.359733 0.501162
5 1 0.0169613 0.544177 0.497793
9 1 0.184751 0.529725 0.499438
42 1 0.288122 0.452956 0.501493
12 1 0.710893 0.473962 0.503217
79 1 0.76814 0.587299 0.491946
10 1 0.869197 0.512145 0.498714
29 1 0.0343374 0.663035 0.496409
31 1 0.594618 0.659801 0.49833
47 1 0.695283 0.601184 0.497726
75 1 0.831258 0.598168 0.506515
58 1 0.921787 0.632725 0.50052
37 1 0.224888 0.760919 0.500761
38 1 0.26898 0.641352 0.496961
50 1 0.327639 0.799522 0.499537
51 1 0.356416 0.713846 0.501083
64 1 0.519114 0.708925 0.497769
35 1 0.584807 0.780682 0.504849
45 1 0.689731 0.704238 0.502759
20 1 0.81952 0.685992 0.49659
25 1 0.95201 0.743267 0.505482
15 1 0.0836032 0.795022 0.498243
17 1 0.336544 0.920005 0.495913
2 1 0.446111 0.79641 0.502168
34 1 0.761122 0.797026 0.500983
39 1 0.947391 0.852069 0.499203
26 1 0.0613562 0.934655 0.50366
18 1 0.201683 0.904745 0.496481
53 1 0.421418 0.976272 0.498331
61 1 0.45079 0.889794 0.496975
14 1 0.553636 0.927221 0.496198
66 1 0.730191 0.919192 0.505362
67 1 0.664711 0.940028 0.502358
27 1 0.827317 0.910937 0.498537
21 1 0.93665 0.970238 0.49914
ITEM: TIMESTEP
2500
ITEM: NUMBER OF ATOMS
68
ITEM: BOX BOUNDS pp pp pp
-4.8125981489379051e+00 4.8125981489379051e+00
-4.8275953144352899e+00 4.8275953144352899e+00
-1.0000000000000001e-01 1.0000000000000001e-01
ITEM: ATOMS id type xs ys zs
44 1 0.0238372 0.0404863 0.497616
36 1 0.126691 0.0248437 0.5016
28 1 0.248873 0.034735 0.502722
1 1 0.38134 0.0760855 0.503363
63 1 0.486012 0.0247509 0.499073
7 1 0.645637 0.0540258 0.500376
55 1 0.767843 0.997343 0.496658
60 1 0.857492 0.0361256 0.501455
22 1 0.0895363 0.13274 0.501992
69 1 0.178526 0.104001 0.509037
16 1 0.26282 0.17349 0.49931
77 1 0.449866 0.164068 0.506478
40 1 0.523545 0.108842 0.49833
70 1 0.584421 0.186153 0.495535
8 1 0.775591 0.151326 0.502143
52 1 0.858784 0.252301 0.501798
11 1 0.934284 0.127415 0.503266
3 1 0.984418 0.278278 0.501615
13 1 0.134692 0.257156 0.504354
48 1 0.297665 0.289671 0.504473
80 1 0.380295 0.183009 0.500322
74 1 0.372983 0.318769 0.494104
23 1 0.444302 0.25144 0.499128
68 1 0.524297 0.201059 0.504183
46 1 0.586668 0.259205 0.503362
49 1 0.756894 0.274422 0.496971
4 1 0.857171 0.368414 0.495542
19 1 0.0778254 0.409583 0.498322
33 1 0.218921 0.369724 0.498557
71 1 0.318083 0.358181 0.500656
30 1 0.396034 0.410102 0.500042
6 1 0.535639 0.376937 0.490903
32 1 0.667496 0.344187 0.501356
76 1 0.75547 0.359524 0.502518
5 1 0.0170867 0.544313 0.498005
9 1 0.186227 0.529105 0.498963
42 1 0.288101 0.452417 0.502905
12 1 0.710591 0.473637 0.50382
79 1 0.767859 0.585556 0.490555
10 1 0.86906 0.51207 0.501726
29 1 0.0341911 0.66313 0.495283
31 1 0.594479 0.659566 0.499258
47 1 0.695391 0.600786 0.499322
75 1 0.830979 0.597943 0.509183
58 1 0.921573 0.632885 0.501735
37 1 0.22504 0.760623 0.498642
38 1 0.269507 0.640887 0.496477
50 1 0.32721 0.799151 0.498879
51 1 0.356993 0.713932 0.499737
64 1 0.519216 0.709687 0.497267
35 1 0.584967 0.781708 0.505236
45 1 0.689872 0.703882 0.503224
20 1 0.819125 0.685267 0.497869
25 1 0.951997 0.743229 0.505661
15 1 0.083922 0.794995 0.498794
17 1 0.336065 0.919416 0.496731
2 1 0.445949 0.795981 0.501431
34 1 0.761351 0.795844 0.500314
39 1 0.947861 0.852531 0.498291
26 1 0.0603574 0.935104 0.504158
18 1 0.201374 0.904216 0.497379
53 1 0.420835 0.975856 0.498285
61 1 0.449954 0.889198 0.496265
14 1 0.552774 0.927903 0.495554
66 1 0.729327 0.919707 0.504864
67 1 0.66424 0.940686 0.501387
27 1 0.826112 0.911193 0.500394
21 1 0.935604 0.970788 0.497722
ITEM: TIMESTEP
2750
ITEM: NUMBER OF ATOMS
68
ITEM: BOX BOUNDS pp pp pp
-4.8113923683875095e+00 4.8113923683875095e+00
-4.8259945550178154e+00 4.8259945550178154e+00
-1.0000000000000001e-01 1.0000000000000001e-01
ITEM: ATOMS id type xs ys zs
44 1 0.0230375 0.0404022 0.496536
36 1 0.12583 0.0253103 0.500124
28 1 0.247881 0.0342231 0.502468
1 1 0.380407 0.0761415 0.503877
63 1 0.485467 0.0248619 0.498862
7 1 0.645165 0.0548933 0.500589
55 1 0.766627 0.99624 0.495078
60 1 0.856113 0.0357211 0.503477
22 1 0.0892593 0.133284 0.502119
69 1 0.178108 0.103908 0.506885
16 1 0.26237 0.173541 0.500243
77 1 0.449979 0.164421 0.507715
40 1 0.523263 0.10898 0.498623
70 1 0.584883 0.185373 0.497178
8 1 0.774794 0.151251 0.501876
52 1 0.85844 0.252955 0.501309
11 1 0.933197 0.1274 0.501276
3 1 0.983754 0.277949 0.50287
13 1 0.134981 0.25746 0.503781
48 1 0.297513 0.290299 0.506207
80 1 0.380114 0.182733 0.50171
74 1 0.373257 0.319463 0.494245
23 1 0.444445 0.251147 0.498991
68 1 0.524806 0.20114 0.504098
46 1 0.586873 0.25884 0.505906
49 1 0.754869 0.273638 0.49645
4 1 0.85717 0.369281 0.495605
19 1 0.0775836 0.409052 0.497798
33 1 0.218702 0.369825 0.498887
71 1 0.318324 0.358783 0.501299
30 1 0.396933 0.409884 0.497557
6 1 0.536419 0.378046 0.491839
32 1 0.667189 0.343611 0.503251
76 1 0.755017 0.358747 0.500553
5 1 0.0177555 0.544365 0.497266
9 1 0.185514 0.529888 0.499088
42 1 0.288376 0.452475 0.50377
12 1 0.711309 0.473245 0.503416
79 1 0.767124 0.586636 0.491004
10 1 0.869068 0.512949 0.502087
29 1 0.0335339 0.663577 0.494386
31 1 0.594287 0.659069 0.497131
47 1 0.694199 0.59991 0.49847
75 1 0.830019 0.598691 0.508989
58 1 0.921298 0.632544 0.501918
37 1 0.224687 0.760295 0.496851
38 1 0.269148 0.641029 0.49713
50 1 0.327545 0.800008 0.500263
51 1 0.356143 0.71461 0.498467
64 1 0.519023 0.709312 0.497988
35 1 0.585278 0.781096 0.505437
45 1 0.689328 0.70323 0.503607
20 1 0.819225 0.686046 0.499269
25 1 0.95144 0.743598 0.504536
15 1 0.0833816 0.795199 0.497908
17 1 0.336218 0.919588 0.498639
2 1 0.44595 0.795448 0.501744
34 1 0.760086 0.796434 0.501063
39 1 0.946397 0.852157 0.497237
26 1 0.0598432 0.935145 0.50342
18 1 0.201496 0.904059 0.499097
53 1 0.419869 0.976298 0.499199
61 1 0.450469 0.888729 0.497878
14 1 0.553128 0.927512 0.495519
66 1 0.728542 0.918797 0.504655
67 1 0.664047 0.942053 0.500865
27 1 0.825675 0.910438 0.500324
21 1 0.934795 0.970809 0.497068
ITEM: TIMESTEP
3000
ITEM: NUMBER OF ATOMS
68
ITEM: BOX BOUNDS pp pp pp
-4.8101865878371139e+00 4.8101865878371139e+00
-4.8330937919482713e+00 4.8330937919482713e+00
-1.0000000000000001e-01 1.0000000000000001e-01
ITEM: ATOMS id type xs ys zs
44 1 0.0229329 0.0400261 0.497301
36 1 0.126015 0.0252042 0.499366
28 1 0.248041 0.034984 0.503394
1 1 0.38014 0.0762182 0.505802
63 1 0.485707 0.0258545 0.497879
7 1 0.645253 0.0539972 0.500265
55 1 0.767327 0.996361 0.496274
60 1 0.85675 0.0356183 0.504058
22 1 0.0889559 0.132747 0.502047
69 1 0.177443 0.103774 0.506331
16 1 0.260839 0.173536 0.502419
77 1 0.449529 0.162785 0.506087
40 1 0.523631 0.10931 0.498036
70 1 0.584688 0.18609 0.496247
8 1 0.77491 0.151365 0.502444
52 1 0.856838 0.253639 0.503462
11 1 0.933106 0.126973 0.503196
3 1 0.983585 0.2781 0.50351
13 1 0.133591 0.257303 0.502227
48 1 0.298629 0.290048 0.504289
80 1 0.378115 0.182817 0.501344
74 1 0.37361 0.319554 0.494661
23 1 0.443513 0.250269 0.498444
68 1 0.524889 0.20168 0.50377
46 1 0.58732 0.259487 0.507668
49 1 0.755502 0.273698 0.495942
4 1 0.857094 0.369809 0.494601
19 1 0.0772356 0.409316 0.496921
33 1 0.21865 0.36876 0.500468
71 1 0.317859 0.358395 0.498688
30 1 0.396284 0.410355 0.497877
6 1 0.536184 0.377921 0.491504
32 1 0.667627 0.343971 0.501844
76 1 0.755753 0.358603 0.499103
5 1 0.0170472 0.545179 0.495428
9 1 0.185514 0.52877 0.498993
42 1 0.287895 0.451413 0.503092
12 1 0.710853 0.473774 0.504233
79 1 0.766721 0.586751 0.491124
10 1 0.869629 0.513287 0.502081
29 1 0.0340525 0.663847 0.4925
31 1 0.593415 0.659257 0.498006
47 1 0.693659 0.600299 0.49904
75 1 0.830087 0.597939 0.507688
58 1 0.922072 0.633672 0.502791
37 1 0.224844 0.761066 0.496207
38 1 0.267465 0.641503 0.499157
50 1 0.327272 0.800236 0.498875
51 1 0.355778 0.714275 0.498952
64 1 0.518985 0.709736 0.497316
35 1 0.584735 0.781685 0.505854
45 1 0.688907 0.703218 0.504016
20 1 0.819366 0.68555 0.499255
25 1 0.951532 0.74362 0.505756
15 1 0.083538 0.795391 0.498949
17 1 0.336151 0.920298 0.498223
2 1 0.445403 0.796131 0.500932
34 1 0.761077 0.795373 0.500494
39 1 0.947349 0.85261 0.496876
26 1 0.0603947 0.935118 0.504076
18 1 0.201236 0.904978 0.499335
53 1 0.420772 0.976792 0.499947
61 1 0.450246 0.888653 0.499493
14 1 0.552506 0.927864 0.495435
66 1 0.729245 0.919044 0.504064
67 1 0.664041 0.940936 0.503153
27 1 0.826224 0.910594 0.500306
21 1 0.934848 0.97069 0.496197
ITEM: TIMESTEP
3250
ITEM: NUMBER OF ATOMS
68
ITEM: BOX BOUNDS pp pp pp
-4.8089808072867184e+00 4.8089808072867184e+00
-4.8361700459424624e+00 4.8361700459424624e+00
-1.0000000000000001e-01 1.0000000000000001e-01
ITEM: ATOMS id type xs ys zs
44 1 0.0233931 0.039736 0.497108
36 1 0.126237 0.024722 0.499978
28 1 0.248236 0.0342924 0.503629
1 1 0.38121 0.076627 0.507408
63 1 0.486445 0.0252683 0.497105
7 1 0.646208 0.0536177 0.500192
55 1 0.7678 0.996513 0.497147
60 1 0.857389 0.0353148 0.503789
22 1 0.0886692 0.132363 0.501765
69 1 0.177565 0.103613 0.507318
16 1 0.261928 0.172821 0.502684
77 1 0.450701 0.163988 0.504249
40 1 0.52428 0.108792 0.498227
70 1 0.584661 0.18584 0.495201
8 1 0.775151 0.151927 0.502219
52 1 0.856998 0.253696 0.503568
11 1 0.933582 0.126824 0.502812
3 1 0.983689 0.278284 0.503503
13 1 0.133873 0.25664 0.503907
48 1 0.299716 0.28942 0.502072
80 1 0.380124 0.183177 0.503717
74 1 0.37422 0.319782 0.494197
23 1 0.444636 0.251276 0.49716
68 1 0.524823 0.201145 0.504804
46 1 0.587592 0.258926 0.509455
49 1 0.754969 0.273749 0.496718
4 1 0.857348 0.369804 0.494917
19 1 0.0782922 0.408516 0.496233
33 1 0.218834 0.367654 0.501557
71 1 0.31871 0.358518 0.499254
30 1 0.396472 0.410924 0.498456
6 1 0.535556 0.377623 0.492156
32 1 0.666889 0.343966 0.504111
76 1 0.755094 0.358428 0.499279
5 1 0.0181676 0.544588 0.496364
9 1 0.184719 0.529449 0.500217
42 1 0.286904 0.451247 0.502381
12 1 0.710704 0.473462 0.505329
79 1 0.766223 0.586986 0.490158
10 1 0.869657 0.512622 0.501454
29 1 0.0345191 0.663298 0.491169
31 1 0.593488 0.660402 0.497386
47 1 0.692948 0.60013 0.499415
75 1 0.829692 0.597638 0.507217
58 1 0.921982 0.632874 0.502562
37 1 0.224126 0.760633 0.495222
38 1 0.26859 0.640922 0.498959
50 1 0.326269 0.800883 0.500425
51 1 0.355141 0.715178 0.499061
64 1 0.518788 0.710815 0.496731
35 1 0.584948 0.781969 0.504647
45 1 0.688971 0.703279 0.504679
20 1 0.819235 0.684921 0.499473
25 1 0.9519 0.742997 0.507417
15 1 0.083481 0.795485 0.498616
17 1 0.336204 0.920098 0.496611
2 1 0.445459 0.796736 0.499465
34 1 0.760775 0.795546 0.49877
39 1 0.94635 0.851753 0.495653
26 1 0.0604482 0.934673 0.503947
18 1 0.201883 0.904178 0.497637
53 1 0.420834 0.976808 0.498564
61 1 0.449964 0.889649 0.499176
14 1 0.553101 0.927713 0.495431
66 1 0.728883 0.91906 0.504089
67 1 0.664283 0.940627 0.502929
27 1 0.825862 0.91016 0.500489
21 1 0.935051 0.969876 0.496063
ITEM: TIMESTEP
3500
ITEM: NUMBER OF ATOMS
68
ITEM: BOX BOUNDS pp pp pp
-4.8077750267363228e+00 4.8077750267363228e+00
-4.8311311091026772e+00 4.8311311091026772e+00
-1.0000000000000001e-01 1.0000000000000001e-01
ITEM: ATOMS id type xs ys zs
44 1 0.0234907 0.0396792 0.495755
36 1 0.12651 0.0248625 0.497761
28 1 0.248126 0.0352201 0.501577
1 1 0.381393 0.0771076 0.508474
63 1 0.486751 0.0251885 0.495814
7 1 0.646602 0.0539056 0.501542
55 1 0.768964 0.996433 0.494788
60 1 0.858006 0.0360494 0.504272
22 1 0.0875619 0.132583 0.500013
69 1 0.177353 0.104136 0.507128
16 1 0.262458 0.173675 0.501846
77 1 0.451013 0.164183 0.50421
40 1 0.524103 0.108796 0.498445
70 1 0.585176 0.185691 0.494607
8 1 0.775577 0.151142 0.501514
52 1 0.857594 0.252489 0.501046
11 1 0.933776 0.126817 0.504349
3 1 0.983867 0.278041 0.50252
13 1 0.134291 0.256318 0.503314
48 1 0.299777 0.290027 0.501387
80 1 0.379492 0.183578 0.502223
74 1 0.374866 0.320328 0.492701
23 1 0.444762 0.25063 0.498805
68 1 0.525192 0.201512 0.503702
46 1 0.587355 0.259235 0.508826
49 1 0.755539 0.274136 0.495248
4 1 0.857373 0.368456 0.495492
19 1 0.0777209 0.408774 0.498829
33 1 0.218842 0.368105 0.500513