LAMMPS (23 Jun 2022 - Update 4)
  using 1 OpenMP thread(s) per MPI task
# Compute elastic constant tensor for a crystal
#
# Written by Aidan Thompson (Sandia, athomps@sandia.gov)
#
#  This script uses the following three include files.
#
#   init.mod      (must be modified for different crystal structures)
# 	       	  Define units, deformation parameters and initial
#		  configuration of the atoms and simulation cell.
#
#
#   potential.mod    (must be modified for different pair styles)
# 		     Define pair style and other attributes
#		     not stored in restart file
#
#
#   displace.mod    (displace.mod should not need to be modified)
# 		    Perform positive and negative box displacements
# 		    in direction ${dir} and size ${up}.
# 		    It uses the resultant changes
#		    in stress to compute one
# 		    row of the elastic stiffness tensor
#
#		    Inputs variables:
#		    	   dir = the Voigt deformation component
#		    		    (1,2,3,4,5,6)
#		    Global constants:
#       	    	   up = the deformation magnitude (strain units)
#       		   cfac = conversion from LAMMPS pressure units to
#               	   output units for elastic constants
#
#
#  To run this on a different system, it should only be necessary to
#  modify the files init.mod and potential.mod. In order to calculate
#  the elastic constants correctly, care must be taken to specify
#  the correct units in init.mod (units, cfac and cunits). It is also
#  important to verify that the minimization of energy w.r.t atom
#  positions in the deformed cell is fully converged.
#  One indication of this is that the elastic constants are insensitive
#  to the choice of the variable ${up} in init.mod. Another is to check
#  the final max and two-norm forces reported in the log file. If you know
#  that minimization is not required, you can set maxiter = 0.0 in
#  init.mod.
#



variable dt equal 0.01
variable strain equal 0.05
variable srate equal 1e-4
variable M equal 1000 # averaging time for properties
variable strainsteps equal ${strain}/${dt}/${srate}
variable strainsteps equal 0.05/${dt}/${srate}
variable strainsteps equal 0.05/0.01/${srate}
variable strainsteps equal 0.05/0.01/0.0001


dimension 2
include init.mod
# NOTE: This script can be modified for different atomic structures,
# units, etc. See in.elastic for more info.
#

# Define the finite deformation size. Try several values of this
# variable to verify that results do not depend on it.
variable up equal 1.0e-1

# Define the amount of random jiggle for atoms
# This prevents atoms from staying on saddle points
variable atomjiggle equal 1.0e-6

# Uncomment one of these blocks, depending on what units
# you are using in LAMMPS and for output

# metal units, elastic constants in eV/A^3
#units		metal
#variable cfac equal 6.2414e-7
#variable cunits string eV/A^3

# Choose potential
# metal units, elastic constants in GPa
units		metal
atom_style	full
#pair_style      lj/cut 1.0
#pair_style      yukawa 1.0 2.0
#pair_modify     mix arithmetic
bond_style      harmonic
angle_style     harmonic
dihedral_style  zero
special_bonds   amber
variable cfac equal 1.0e-4
variable cunits string GPa
boundary	p p p

# Need to set mass to something, just to satisfy LAMMPS
#mass 1 1.0e-20
read_data network.lmp
Reading data file ...
  orthogonal box = (-4.823122 -4.823122 -0.1) to (4.823122 4.823122 0.1)
  1 by 1 by 1 MPI processor grid
WARNING: Atom style in data file differs from currently defined atom style (src/read_data.cpp:538)
  reading atoms ...
  68 atoms
WARNING: Bond style in data file differs from currently defined bond style (src/read_data.cpp:630)
  scanning bonds ...
  7 = max bonds/atom
  reading bonds ...
  164 bonds
Finding 1-2 1-3 1-4 neighbors ...
  special bond factors lj:    0        0        0.5     
  special bond factors coul:  0        0        0.8333333333333334
    10 = max # of 1-2 neighbors
    56 = max # of 1-3 neighbors
   369 = max # of 1-4 neighbors
    39 = max # of special neighbors
  special bonds CPU = 0.000 seconds
  read_data CPU = 0.003 seconds

# real units, elastic constants in GPa
#units		real
#variable cfac equal 1.01325e-4
#variable cunits string GPa

# Define minimization parameters
variable etol equal 0.0
variable ftol equal 5.0e-10
variable maxiter equal 100000
variable maxeval equal 20000
variable dmax equal 1.0e-2


include potential.mod
# NOTE: This script can be modified for different pair styles
# See in.elastic for more info.

# Setup neighbor style
neighbor 3.0 nsq
neigh_modify once no every 1 delay 0 check yes
comm_modify cutoff 2.0

# Setup minimization style
min_style	     cg
min_modify	     dmax ${dmax} line quadratic
min_modify	     dmax 0.01 line quadratic

timestep	0.001


# Setup output
thermo		500
thermo_style custom step temp pe ebond eangle edihed press pxx pyy pzz pxy pxz pyz lx ly lz vol
thermo_modify norm no


#change_box all triclinic
comm_modify mode single cutoff 10.0 vel yes
atom_modify sort 0 0



# Compute initial state

#dump rela all atom 1 traj_relax.lmpstrj
fix 3 all box/relax x 0 y 0 # xy 0  #MS comment: relax if the network is periodic
minimize ${etol} ${ftol} ${maxiter} ${maxeval}
minimize 0 ${ftol} ${maxiter} ${maxeval}
minimize 0 5e-10 ${maxiter} ${maxeval}
minimize 0 5e-10 100000 ${maxeval}
minimize 0 5e-10 100000 20000
Neighbor list info ...
  update every 1 steps, delay 0 steps, check yes
  max neighbors/atom: 2000, page size: 100000
  master list distance cutoff = 0
  ghost atom cutoff = 10
  0 neighbor lists, perpetual/occasional/extra = 0 0 0
WARNING: Inconsistent image flags (src/domain.cpp:819)
Per MPI rank memory allocation (min/avg/max) = 9.66 | 9.66 | 9.66 Mbytes
   Step          Temp          PotEng         E_bond        E_angle        E_dihed         Press           Pxx            Pyy            Pzz            Pxy            Pxz            Pyz             Lx             Ly             Lz           Volume    
         0   0              3.8000456e-11  3.8000456e-11  0              0              0.13934598     0.18323835     0.095453604    0              0.10570046     0              0              9.646244       9.646244       0.2            93.050023    
       318   0              1.6120352e-13  1.6120352e-13  0              0              6.4541446e-07  7.1593859e-07  5.7489033e-07  0             -0.011653663    0              0              9.6462444      9.6462422      0.2            93.050009    
Loop time of 0.0193141 on 1 procs for 318 steps with 68 atoms

99.0% CPU use with 1 MPI tasks x 1 OpenMP threads

Minimization stats:
  Stopping criterion = force tolerance
  Energy initial, next-to-last, final = 
    3.80004564861868e-11 1.61203533661489e-13 1.61203516164272e-13
  Force two-norm initial, final = 2.5000534e-05 4.6824444e-10
  Force max component initial, final = 1.0641982e-05 1.5099546e-10
  Final line search alpha, max atom move = 1 1.5099546e-10
  Iterations, force evaluations = 318 636

MPI task timing breakdown:
Section |  min time  |  avg time  |  max time  |%varavg| %total
---------------------------------------------------------------
Pair    | 0          | 0          | 0          |   0.0 |  0.00
Bond    | 0.0029056  | 0.0029056  | 0.0029056  |   0.0 | 15.04
Neigh   | 0          | 0          | 0          |   0.0 |  0.00
Comm    | 0.0058313  | 0.0058313  | 0.0058313  |   0.0 | 30.19
Output  | 0          | 0          | 0          |   0.0 |  0.00
Modify  | 0          | 0          | 0          |   0.0 |  0.00
Other   |            | 0.01058    |            |       | 54.76

Nlocal:             68 ave          68 max          68 min
Histogram: 1 0 0 0 0 0 0 0 0 0
Nghost:            577 ave         577 max         577 min
Histogram: 1 0 0 0 0 0 0 0 0 0
Neighs:              0 ave           0 max           0 min
Histogram: 1 0 0 0 0 0 0 0 0 0

Total # of neighbors = 0
Ave neighs/atom = 0
Ave special neighs/atom = 26.911765
Neighbor list builds = 0
Dangerous builds = 0
#dump rela all atom 1 traj_relax.lmpstrj
thermo 100
unfix 3

fix 2d all enforce2d



#dump dump0 all xyz 1000000 cfg0.xyz
#dump_modify dump0 format line "%d %20.10g %20.10g %20.10g"
#minimize ${etol} ${ftol} ${maxiter} ${maxeval}

#undump rela

#write_restart restart.equil

# These formulas define the derivatives w.r.t. strain components
# Constants uses $, variables use v_


timestep        ${dt}
timestep        0.01
variable nsteps equal round(${strainsteps})
variable nsteps equal round(50000)

fix             4 all nve
fix             5 all langevin 0.1 0.1 1 904297
#fix		6 all press/berendsen y  0.0 0.0 1 x 0.0 0.0 10
fix             6 all nph y 0.0 0.0 10 ptemp 0.1 # x 0.0 0.0 10

# For PLUMED2
# fix 22 all plumed plumedfile plumed.dat outfile plumed.out

#fix             6 all nph x 0.0 0.0 10
fix     	9 all deform 1 x erate -${srate} units box remap x
fix     	9 all deform 1 x erate -0.0001 units box remap x

#fix     8 all deform 1 xy erate ${srate} units box remap x



#fix    10 all ave/time

dump 1 all atom 250 deform_dump.lammpstrj


#To avoid flying ice cube phenomenon:
#fix 21 all momentum 100 linear 1 1 1 angular


run  ${nsteps}
run  50000
WARNING: One or more atoms are time integrated more than once (src/modify.cpp:292)
WARNING: Inconsistent image flags (src/domain.cpp:819)
Per MPI rank memory allocation (min/avg/max) = 8.535 | 8.535 | 8.535 Mbytes
   Step          Temp          PotEng         E_bond        E_angle        E_dihed         Press           Pxx            Pyy            Pzz            Pxy            Pxz            Pyz             Lx             Ly             Lz           Volume    
       318   0              1.6120352e-13  1.6120352e-13  0              0              6.4541446e-07  7.1593859e-07  5.7489033e-07  0             -0.011653663    0              0              9.6462444      9.6462422      0.2            93.050009    
       400   0.16004328     0.0010112619   0.0010112619   0              0             -81.338421     -57.022572     -105.87511      0              371.56021      0              0              9.6454534      9.6452594      0.2            93.0329      
       500   0.20554134     0.0010177957   0.0010177957   0              0              104.38726      91.861586      116.66727      0              15.165685      0              0              9.6444888      9.6460054      0.2            93.030791    
       600   0.16630962     0.0011256277   0.0011256277   0              0             -469.94359     -930.25436     -9.8180968      0             -402.05711      0              0              9.6435242      9.6505938      0.2            93.065735    
       700   0.1759713      0.0009241722   0.0009241722   0              0              282.9239       522.30496      43.33204       0             -106.60882      0              0              9.6425595      9.6464662      0.2            93.016625    
       800   0.21319822     0.0010323334   0.0010323334   0              0              676.6367       1500.8819     -147.81735      0              340.47103      0              0              9.6415949      9.6411948      0.2            92.956494    
       900   0.20036042     0.00094362538  0.00094362538  0              0              603.91173      1193.8768      13.770023      0              371.29734      0              0              9.6406303      9.6413966      0.2            92.94914     
      1000   0.16292016     0.00093246285  0.00093246285  0              0              440.89713      779.02303      102.60366      0             -22.268788      0              0              9.6396657      9.6468556      0.2            92.992463    
      1100   0.21371675     0.00091997317  0.00091997317  0              0              626.40636      1440.2308     -187.5849       0             -85.765169      0              0              9.638701       9.646935       0.2            92.983923    
      1200   0.14185023     0.0010191456   0.0010191456   0              0              519.65041      878.09574      161.03146      0             -260.24936      0              0              9.6377364      9.650908       0.2            93.012907    
      1300   0.2266433      0.0010936254   0.0010936254   0              0              469.3782       1065.3263     -126.84315      0             -120.875        0              0              9.6367718      9.6494274      0.2            92.98933     
      1400   0.17667947     0.0010540111   0.0010540111   0              0              256.77169      661.08652     -147.77071      0             -648.00621      0              0              9.6358072      9.6512899      0.2            92.997969    
      1500   0.22227144     0.0011582278   0.0011582278   0              0              267.50127      498.7441       35.987804      0              442.79866      0              0              9.6348425      9.6440767      0.2            92.91916     
      1600   0.21160844     0.0012069012   0.0012069012   0              0              523.34306      1094.3049     -47.807243      0              155.66094      0              0              9.6338779      9.6407964      0.2            92.878256    
      1700   0.21650282     0.0011092998   0.0011092998   0              0              427.08317      932.58603     -78.604926      0             -263.8174       0              0              9.6329133      9.6438895      0.2            92.898752    
      1800   0.19919949     0.0010854197   0.0010854197   0              0              863.91167      1547.4746      180.13532      0             -309.51145      0              0              9.6319487      9.6470849      0.2            92.920226    
      1900   0.20498742     0.0011897516   0.0011897516   0              0              461.99899      1022.541      -98.74174       0              46.302927      0              0              9.630984       9.6521928      0.2            92.960114    
      2000   0.19698748     0.0012412402   0.0012412402   0              0              122.19787      337.10824     -92.867269      0             -30.28447       0              0              9.6300194      9.6535004      0.2            92.963397    
      2100   0.1870731      0.0012513858   0.0012513858   0              0              1010.4869      1671.1904      349.60555      0              276.36553      0              0              9.6290548      9.6545971      0.2            92.964644    
      2200   0.20770354     0.0012584616   0.0012584616   0              0              444.59814      1223.9824     -335.04201      0              1030.635       0              0              9.6280902      9.6476717      0.2            92.888653    
      2300   0.27379044     0.0012056133   0.0012056133   0              0              711.55404      1423.9795     -1.0929914      0              168.52573      0              0              9.6271255      9.6534769      0.2            92.935234    
      2400   0.18609228     0.0013811502   0.0013811502   0              0              861.7556       1426.013       297.29953      0              598.06185      0              0              9.6261609      9.6543172      0.2            92.934011    
      2500   0.17206197     0.0013418797   0.0013418797   0              0              695.07431      1858.3558     -468.36366      0             -744.75252      0              0              9.6251963      9.6551906      0.2            92.933105    
      2600   0.19600013     0.0013330082   0.0013330082   0              0              963.58689      1738.1208      188.8275       0              92.128665      0              0              9.6242317      9.6528365      0.2            92.901135    
      2700   0.24170367     0.0012362412   0.0012362412   0              0              1069.1619      1754.4101      383.70466      0             -513.19782      0              0              9.623267       9.6559034      0.2            92.921337    
      2800   0.26259553     0.0013975965   0.0013975965   0              0              34.601013      818.82217     -749.78052      0              241.17897      0              0              9.6223024      9.6562431      0.2            92.915292    
      2900   0.17106926     0.001199602    0.001199602    0              0              1084.5595      1789.3888      379.56397      0             -158.44719      0              0              9.6213378      9.6648613      0.2            92.988895    
      3000   0.25073819     0.0013535792   0.0013535792   0              0              1098.3791      1845.1401      351.42646      0              199.48429      0              0              9.6203732      9.6661876      0.2            92.992332    
      3100   0.25023722     0.0014996403   0.0014996403   0              0             -377.37083      13.025691     -767.95893      0              340.41302      0              0              9.6194086      9.6725491      0.2            93.044202    
      3200   0.24001514     0.0011477033   0.0011477033   0              0              953.04449      1336.945       568.95524      0             -73.060245      0              0              9.6184439      9.6671764      0.2            92.983194    
      3300   0.2559451      0.0011092005   0.0011092005   0              0              579.65476      991.8278       167.25811      0             -156.16575      0              0              9.6174793      9.6709359      0.2            93.010025    
      3400   0.2135369      0.0012764664   0.0012764664   0              0              729.26573      2152.7958     -694.51378      0              74.587883      0              0              9.6165147      9.6679625      0.2            92.972103    
      3500   0.20408153     0.0013800465   0.0013800465   0              0              1203.9001      1711.7674      695.81124      0              875.90542      0              0              9.6155501      9.6622622      0.2            92.907966    
      3600   0.18721406     0.0012471981   0.0012471981   0              0              604.17179      1409.9116     -201.81502      0              301.03667      0              0              9.6145854      9.6674347      0.2            92.948377    
      3700   0.21876999     0.0011122225   0.0011122225   0              0              249.52063      808.8744      -310.00679      0             -166.85966      0              0              9.6136208      9.6739204      0.2            93.001403    
      3800   0.19668979     0.0010487225   0.0010487225   0              0              1263.45        1947.8157      578.87846      0             -520.28729      0              0              9.6126562      9.6714861      0.2            92.968671    
      3900   0.20023681     0.0012044311   0.0012044311   0              0              145.68561      837.94542     -546.74746      0              249.77742      0              0              9.6116916      9.683424       0.2            93.074084    
      4000   0.18489836     0.0010565425   0.0010565425   0              0              698.84399      1385.3239      12.150992      0              457.41019      0              0              9.6107269      9.6740348      0.2            92.974506    
      4100   0.20504566     0.0011607915   0.0011607915   0              0              1073.4738      1736.6854      410.06958      0              317.24207      0              0              9.6097623      9.6768793      0.2            92.99251     
      4200   0.22382131     0.0013671051   0.0013671051   0              0              84.33274       724.12745     -555.6385       0             -59.373044      0              0              9.6087977      9.6929726      0.2            93.137813    
      4300   0.21716582     0.0012504453   0.0012504453   0              0              759.20551      1077.902       440.30297      0              342.57457      0              0              9.6078331      9.6854634      0.2            93.056315    
      4400   0.23654182     0.0012821735   0.0012821735   0              0              439.55898      864.03825      14.855415      0              200.72212      0              0              9.6068684      9.6824393      0.2            93.017921    
      4500   0.22120138     0.0014901005   0.0014901005   0              0              264.0285       1042.4507     -514.64946      0             -290.8592       0              0              9.6059038      9.6840483      0.2            93.024037    
      4600   0.17972891     0.0012874022   0.0012874022   0              0              1063.9561      1573.1333      554.56612      0              13.460947      0              0              9.6049392      9.6848233      0.2            93.022138    
      4700   0.21640813     0.0012741306   0.0012741306   0              0             -15.698869      196.02218     -227.58823      0             -110.92155      0              0              9.6039746      9.6853105      0.2            93.017476    
      4800   0.25447979     0.0012257129   0.0012257129   0              0              747.4873       1747.288      -252.52829      0             -84.317188      0              0              9.6030099      9.6878765      0.2            93.032774    
      4900   0.23022175     0.0011886149   0.0011886149   0              0              1354.7119      1986.2814      722.95821      0              260.64339      0              0              9.6020453      9.6885737      0.2            93.030124    
      5000   0.19173572     0.0012460567   0.0012460567   0              0              82.934298      914.50201     -748.8331       0              499.19443      0              0              9.6010807      9.6879684      0.2            93.014966    
      5100   0.20025315     0.0011849076   0.0011849076   0              0              848.87172      1622.8729      74.671203      0             -262.77906      0              0              9.6001161      9.6886076      0.2            93.011758    
      5200   0.20688673     0.0015542859   0.0015542859   0              0              1444.4021      2151.2663      737.37305      0              1086.2301      0              0              9.5991514      9.6828775      0.2            92.947408    
      5300   0.20825996     0.0016058948   0.0016058948   0              0             -640.65588     -222.25818     -1059.2751      0              626.40618      0              0              9.5981868      9.6959394      0.2            93.063437    
      5400   0.22499688     0.0013241728   0.0013241728   0              0              1319.4673      1921.5236      717.25728      0              406.97268      0              0              9.5972222      9.6865884      0.2            92.964341    
      5500   0.21854469     0.0015261516   0.0015261516   0              0              425.79017      646.0835       205.28271      0              943.14481      0              0              9.5962576      9.6971524      0.2            93.056372    
      5600   0.24092725     0.0014348536   0.0014348536   0              0             -22.439544      1030.7696     -1075.7938      0              606.50853      0              0              9.5952929      9.6945301      0.2            93.021856    
      5700   0.21996344     0.0012613151   0.0012613151   0              0              1991.3999      2687.6086      1294.9975      0              984.94271      0              0              9.5943283      9.6816375      0.2            92.888809    
      5800   0.21076967     0.00138713     0.00138713     0              0              436.00342      1560.9679     -689.15992      0              792.0751       0              0              9.5933637      9.6888496      0.2            92.948658    
      5900   0.22519633     0.0013913745   0.0013913745   0              0              980.48473      2468.1459     -507.37458      0              898.73652      0              0              9.5923991      9.6919299      0.2            92.968859    
      6000   0.29237537     0.0015070203   0.0015070203   0              0              1995.1666      2628.5359      1361.6274      0             -251.28629      0              0              9.5914344      9.6839641      0.2            92.883106    
      6100   0.19373506     0.0015462891   0.0015462891   0              0             -341.80445      794.28238     -1478.0856      0             -207.5661       0              0              9.5904698      9.7012931      0.2            93.039959    
      6200   0.1881515      0.001425367    0.001425367    0              0              1665.218       2774.8911      555.33231      0              155.69927      0              0              9.5895052      9.6874337      0.2            92.897696    
      6300   0.26075635     0.0013685611   0.0013685611   0              0              1315.037       2084.5194      545.33403      0             -12.650942      0              0              9.5885406      9.6900957      0.2            92.913875    
      6400   0.17186704     0.0017052021   0.0017052021   0              0              150.97318      1528.2673     -1226.5214      0              645.30578      0              0              9.5875759      9.6983732      0.2            92.98389     
      6500   0.20259667     0.0014385686   0.0014385686   0              0              1835.8845      2442.6177      1228.932       0              1001.1435      0              0              9.5866113      9.6799596      0.2            92.79801     
      6600   0.20705507     0.001454622    0.001454622    0              0              970.69169      2421.9075     -480.69763      0              821.60108      0              0              9.5856467      9.6902074      0.2            92.886905    
      6700   0.2053309      0.0014446764   0.0014446764   0              0              892.43357      2288.2431     -503.58584      0              1107.56        0              0              9.5846821      9.6942518      0.2            92.916321    
      6800   0.25378238     0.0014302792   0.0014302792   0              0              1551.4462      2091.8594      1010.8791      0              665.04518      0              0              9.5837174      9.6840568      0.2            92.809264    
      6900   0.20671614     0.0014434837   0.0014434837   0              0              881.3996       2497.7763     -735.20572      0             -299.08996      0              0              9.5827528      9.6927301      0.2            92.883036    
      7000   0.22252009     0.0014945878   0.0014945878   0              0              1633.6707      3153.3035      113.8258       0              603.66964      0              0              9.5817882      9.6803095      0.2            92.754675    
      7100   0.19816552     0.0014510471   0.0014510471   0              0              1453.6225      2427.4076      479.59923      0             -431.16024      0              0              9.5808236      9.6819959      0.2            92.761495    
      7200   0.21370748     0.0015969187   0.0015969187   0              0              706.68943      1987.2871     -574.08145      0              60.69929       0              0              9.5798589      9.6897621      0.2            92.826554    
      7300   0.20280987     0.0014636665   0.0014636665   0              0              1575.3384      2872.0091      278.50016      0              801.44579      0              0              9.5788943      9.6820775      0.2            92.743597    
      7400   0.22928531     0.0013631669   0.0013631669   0              0              1582.7931      3258.3928     -93.007801      0             -113.67022      0              0              9.5779297      9.6868738      0.2            92.780196    
      7500   0.22309294     0.0016295124   0.0016295124   0              0              1611.5569      3435.1771     -212.2329       0              181.33993      0              0              9.5769651      9.6884615      0.2            92.786057    
      7600   0.17637656     0.0017430026   0.0017430026   0              0              914.29886      1549.7946      278.59573      0             -239.93869      0              0              9.5760005      9.6880025      0.2            92.772316    
      7700   0.20901804     0.0015859336   0.0015859336   0              0              572.65579      1454.1332     -309.0199       0             -56.559304      0              0              9.5750358      9.6981923      0.2            92.860539    
      7800   0.1775998      0.0017026594   0.0017026594   0              0              1256.3509      2288.16        224.3458       0              97.483969      0              0              9.5740712      9.7022087      0.2            92.889637    
      7900   0.22522035     0.0017305873   0.0017305873   0              0              1147.3017      2236.8901      57.484959      0              543.65096      0              0              9.5731066      9.6981564      0.2            92.841485    
      8000   0.17421955     0.0016456694   0.0016456694   0              0              585.68486      1663.2269     -492.02618      0              713.60384      0              0              9.572142       9.6954973      0.2            92.806677    
      8100   0.20734013     0.0015474016   0.0015474016   0              0              1604.91        2441.595       768.02048      0             -170.03228      0              0              9.5711773      9.6937431      0.2            92.780534    
      8200   0.21780511     0.001750773    0.001750773    0              0              388.65426      1317.6661     -540.54418      0              346.04074      0              0              9.5702127      9.7050852      0.2            92.87973     
      8300   0.24906152     0.0016627743   0.0016627743   0              0              1638.9273      3155.4337      122.23515      0              800.23293      0              0              9.5692481      9.6926483      0.2            92.751356    
      8400   0.18968208     0.0015576643   0.0015576643   0              0              1488.6401      2592.9338      384.15964      0              1275.1259      0              0              9.5682835      9.6972671      0.2            92.786201    
      8500   0.22278673     0.0017744907   0.0017744907   0              0              654.00974      2008.571      -700.77949      0             -21.380234      0              0              9.5673188      9.7030747      0.2            92.832409    
      8600   0.20798011     0.0016576103   0.0016576103   0              0              1407.9087      2217.6941      597.93066      0              503.29779      0              0              9.5663542      9.6954254      0.2            92.749874    
      8700   0.15894624     0.0015502548   0.0015502548   0              0              809.18148      1872.3063     -254.17439      0              571.97221      0              0              9.5653896      9.6967855      0.2            92.753531    
      8800   0.15389394     0.0014230204   0.0014230204   0              0              730.14839      1740.0519     -279.95364      0              1008.4317      0              0              9.564425       9.6985372      0.2            92.760931    
      8900   0.20027513     0.0013458362   0.0013458362   0              0              1428.451       2302.7577      553.93516      0              718.30456      0              0              9.5634603      9.6924772      0.2            92.693621    
      9000   0.23675944     0.0015721121   0.0015721121   0              0              885.58013      2254.342      -483.40124      0              666.21228      0              0              9.5624957      9.6968467      0.2            92.726055    
      9100   0.23927865     0.001625207    0.001625207    0              0              1342.9295      2445.5928      240.08265      0              869.31854      0              0              9.5615311      9.6947233      0.2            92.696398    
      9200   0.19419984     0.0015999228   0.0015999228   0              0              1435.5679      2545.1268      325.81689      0              430.02031      0              0              9.5605665      9.7002274      0.2            92.739669    
      9300   0.20008163     0.0015402124   0.0015402124   0              0              1133.8336      3011.0329     -743.57169      0              484.53083      0              0              9.5596018      9.7109922      0.2            92.833219    
      9400   0.16357716     0.0015288639   0.0015288639   0              0              1213.8827      1720.238       707.29385      0              72.505177      0              0              9.5586372      9.6988746      0.2            92.708024    
      9500   0.2021765      0.0017735901   0.0017735901   0              0              682.063        1703.3807     -339.46957      0              470.81983      0              0              9.5576726      9.6918223      0.2            92.631264    
      9600   0.15013606     0.0013610901   0.0013610901   0              0              1044.8468      2320.6777     -231.14957      0              1004.0542      0              0              9.556708       9.6900097      0.2            92.604593    
      9700   0.18622291     0.0016101903   0.0016101903   0              0              1798.5998      2890.3763      706.63156      0              1755.2638      0              0              9.5557433      9.6907104      0.2            92.601941    
      9800   0.22022419     0.0016611366   0.0016611366   0              0              762.67426      2323.9214     -798.76695      0              352.4535       0              0              9.5547787      9.6990314      0.2            92.672099    
      9900   0.22309194     0.0020293161   0.0020293161   0              0              1907.1752      3202.934       611.24374      0              986.61095      0              0              9.5538141      9.6933191      0.2            92.608168    
     10000   0.19941628     0.0016271986   0.0016271986   0              0              1015.9269      2194.7616     -163.08093      0              504.69448      0              0              9.5528495      9.6974671      0.2            92.638443    
     10100   0.19156437     0.0016961426   0.0016961426   0              0              1348.3186      3135.2586     -438.83703      0              572.62931      0              0              9.5518848      9.7024329      0.2            92.676522    
     10200   0.230887       0.0015121508   0.0015121508   0              0              1521.3742      2183.3651      859.14498      0              1240.7908      0              0              9.5509202      9.6988541      0.2            92.632981    
     10300   0.24557405     0.0018255174   0.0018255174   0              0              1361.8306      3420.1706     -696.68817      0              353.92417      0              0              9.5499556      9.7062608      0.2            92.694359    
     10400   0.23233939     0.0017407549   0.0017407549   0              0              1255.3099      2216.9482      293.45857      0              105.69969      0              0              9.548991       9.7003809      0.2            92.62885     
     10500   0.17457844     0.0016572252   0.0016572252   0              0              1724.8096      3225.1542      224.24621      0              511.46692      0              0              9.5480263      9.6994693      0.2            92.610788    
     10600   0.19859032     0.0018217786   0.0018217786   0              0              665.31109      2106.5236     -776.111        0              1079.1225      0              0              9.5470617      9.7027342      0.2            92.632603    
     10700   0.22294349     0.0018525141   0.0018525141   0              0              1798.1782      2632.7902      963.36905      0              916.73818      0              0              9.5460971      9.6973865      0.2            92.572193    
     10800   0.20968639     0.0016257423   0.0016257423   0              0              340.027        1452.3253     -772.43913      0              862.78325      0              0              9.5451325      9.701608       0.2            92.603133    
     10900   0.18861282     0.0018891642   0.0018891642   0              0              1397.1195      2660.6453      133.37054      0              878.02628      0              0              9.5441678      9.6946026      0.2            92.526915    
     11000   0.20163912     0.0018324644   0.0018324644   0              0              1252.4257      1809.7031      694.93163      0              1626.9294      0              0              9.5432032      9.6923091      0.2            92.495675    
     11100   0.17202644     0.0017413581   0.0017413581   0              0              103.21078      1427.5171     -1221.3079      0              85.265292      0              0              9.5422386      9.7000769      0.2            92.560448    
     11200   0.1668452      0.0019759989   0.0019759989   0              0              2144.9521      3142.7519      1146.9418      0              586.9212       0              0              9.541274       9.6896441      0.2            92.451549    
     11300   0.1877444      0.0018343007   0.0018343007   0              0              841.95339      2139.8085     -456.07106      0              37.138708      0              0              9.5403093      9.6981091      0.2            92.522961    
     11400   0.20185538     0.0017651467   0.0017651467   0              0              1026.9492      2427.4528     -373.7601       0              432.71455      0              0              9.5393447      9.6966112      0.2            92.499317    
     11500   0.21211444     0.0018924912   0.0018924912   0              0              1983.6183      2808.7838      1158.2604      0              1498.978       0              0              9.5383801      9.6897442      0.2            92.424463    
     11600   0.24527987     0.0018746371   0.0018746371   0              0              165.27169      1698.9033     -1368.608       0              891.67487      0              0              9.5374155      9.6985117      0.2            92.498735    
     11700   0.20293958     0.0020214653   0.0020214653   0              0              1976.0505      3154.5761      797.29028      0              781.80124      0              0              9.5364508      9.6942751      0.2            92.448978    
     11800   0.21437254     0.0023020034   0.0023020034   0              0              1042.1431      1828.9342      255.16797      0              225.22879      0              0              9.5354862      9.6873117      0.2            92.373227    
     11900   0.22732961     0.001763679    0.001763679    0              0              665.55739      2553.3903     -1222.4636      0              925.31079      0              0              9.5345216      9.6997923      0.2            92.482879    
     12000   0.20031631     0.0020013572   0.0020013572   0              0              2060.0978      2671.6568      1448.3556      0              735.59137      0              0              9.533557       9.6838207      0.2            92.321257    
     12100   0.16703014     0.0020735125   0.0020735125   0              0              1138.8212      3222.7102     -945.26511      0              150.27914      0              0              9.5325924      9.69207        0.2            92.390552    
     12200   0.19756264     0.0021246543   0.0021246543   0              0              1451.7651      3051.5815     -148.25427      0              862.19551      0              0              9.5316277      9.6862266      0.2            92.325506    
     12300   0.22984166     0.0018930965   0.0018930965   0              0              2076.9937      3291.5213      862.23576      0              651.23194      0              0              9.5306631      9.6897838      0.2            92.350065    
     12400   0.2197555      0.0018784933   0.0018784933   0              0              982.96542      3010.7491     -1045.032       0              505.37139      0              0              9.5296985      9.6938858      0.2            92.379809    
     12500   0.18941969     0.0020399659   0.0020399659   0              0              2396.7232      4030.0479      763.2301       0              1358.0274      0              0              9.5287339      9.6786059      0.2            92.22486     
     12600   0.25631768     0.0019726886   0.0019726886   0              0              1764.8285      3692.9786     -163.51534      0              1547.1208      0              0              9.5277692      9.6863356      0.2            92.289171    
     12700   0.20778221     0.0020824577   0.0020824577   0              0              967.61258      2387.317      -452.28728      0              797.31114      0              0              9.5268046      9.6921023      0.2            92.334765    
     12800   0.2280746      0.001895963    0.001895963    0              0              2166.2165      3623.9454      708.27522      0              1065.5423      0              0              9.52584        9.6871923      0.2            92.278644    
     12900   0.21206975     0.002230855    0.002230855    0              0              470.09533      1567.9703     -627.95434      0              800.23877      0              0              9.5248754      9.6956565      0.2            92.34992     
     13000   0.21023299     0.0020278781   0.0020278781   0              0              1345.6081      2381.8252      309.14505      0              624.4039       0              0              9.5239107      9.6967537      0.2            92.351017    
     13100   0.23572298     0.0018647592   0.0018647592   0              0              1726.2475      3349.8101      102.46064      0              874.02633      0              0              9.5229461      9.6968728      0.2            92.342797    
     13200   0.19496771     0.0019509405   0.0019509405   0              0              924.45619      2414.3212     -565.60814      0              1642.9936      0              0              9.5219815      9.6957813      0.2            92.32305     
     13300   0.16951921     0.0021252698   0.0021252698   0              0              1954.4269      3216.81        691.86089      0              1415.4383      0              0              9.5210169      9.6838253      0.2            92.199864    
     13400   0.19889524     0.0021704395   0.0021704395   0              0              560.8287       1662.1829     -540.71037      0              984.18605      0              0              9.5200522      9.6967586      0.2            92.313648    
     13500   0.19476663     0.0021872138   0.0021872138   0              0              1437.1261      2647.9281      226.15073      0              1256.4185      0              0              9.5190876      9.6994192      0.2            92.329621    
     13600   0.19718161     0.0022843906   0.0022843906   0              0              1611.5814      2926.3995      296.55351      0              685.80969      0              0              9.518123       9.6980242      0.2            92.306987    
     13700   0.19498474     0.0024933783   0.0024933783   0              0              419.98454      1431.9706     -592.25501      0              1771.1871      0              0              9.5171584      9.694675       0.2            92.265757    
     13800   0.24880514     0.0023357212   0.0023357212   0              0              1386.6717      2260.9041      512.20704      0              1375.4255      0              0              9.5161937      9.6988078      0.2            92.295734    
     13900   0.18265389     0.002308184    0.002308184    0              0              929.48201      2170.5863     -311.84699      0              1486.5158      0              0              9.5152291      9.6989242      0.2            92.287486    
     14000   0.1902663      0.0021862383   0.0021862383   0              0              1454.1937      2987.4141     -79.237262      0              2011.8914      0              0              9.5142645      9.69829        0.2            92.272096    
     14100   0.2021683      0.0025683431   0.0025683431   0              0              1466.9201      2453.8954      479.73543      0              2077.4938      0              0              9.5132999      9.6998404      0.2            92.277491    
     14200   0.17105011     0.0024247785   0.0024247785   0              0              1030.8644      2608.5997     -547.07612      0              1720.2908      0              0              9.5123352      9.7016434      0.2            92.285284    
     14300   0.22463037     0.0020528554   0.0020528554   0              0              1841.7944      3305.7248      377.65339      0              1232.4151      0              0              9.5113706      9.6993156      0.2            92.253785    
     14400   0.21527094     0.0021403638   0.0021403638   0              0              1671.4928      3310.4674      32.290166      0              1300.9651      0              0              9.510406       9.703764       0.2            92.286735    
     14500   0.24529491     0.0024254946   0.0024254946   0              0              1344.9688      2972.0926     -282.35576      0              671.82917      0              0              9.5094414      9.7041527      0.2            92.281071    
     14600   0.1860631      0.0021912441   0.0021912441   0              0              1900.0133      3352.2946      447.51611      0              1433.6808      0              0              9.5084767      9.6980143      0.2            92.213343    
     14700   0.17081822     0.0021896552   0.0021896552   0              0              1359.3465      3222.9573     -504.45789      0              620.12763      0              0              9.5075121      9.7035817      0.2            92.25692     
     14800   0.15919201     0.0021560913   0.0021560913   0              0              1851.6463      3305.5816      397.51101      0              1484.2099      0              0              9.5065475      9.7013551      0.2            92.226393    
     14900   0.19461236     0.0020515933   0.0020515933   0              0              1477.6751      3211.7779     -256.65717      0              1006.0655      0              0              9.5055829      9.7038517      0.2            92.240766    
     15000   0.17869426     0.0022391586   0.0022391586   0              0              944.26542      1860.6779      27.669235      0              1419.851       0              0              9.5046182      9.7071768      0.2            92.26301     
     15100   0.2506174      0.0021735608   0.0021735608   0              0              1500.4223      2703.1833      297.41575      0              1201.4332      0              0              9.5036536      9.6987171      0.2            92.173248    
     15200   0.23913979     0.0024303301   0.0024303301   0              0              800.94698      2111.0234     -509.32478      0              753.20736      0              0              9.502689       9.7009533      0.2            92.185142    
     15300   0.19913992     0.0026944048   0.0026944048   0              0              1941.9262      3295.1494      588.46756      0              423.93213      0              0              9.5017244      9.693601       0.2            92.105925    
     15400   0.24069054     0.0020266019   0.0020266019   0              0              1274.2817      3037.7801     -489.45312      0              1407.5361      0              0              9.5007597      9.6972405      0.2            92.131153    
     15500   0.2003501      0.0023058775   0.0023058775   0              0              1862.9053      3806.2659     -80.660835      0              1624.114       0              0              9.4997951      9.6972789      0.2            92.122163    
     15600   0.19416227     0.0022577944   0.0022577944   0              0              2512.6195      4443.241       581.78059      0              1185.8671      0              0              9.4988305      9.6986122      0.2            92.125473    
     15700   0.20729803     0.0020810348   0.0020810348   0              0              1596.464       4046.8472     -854.11812      0              1401.6175      0              0              9.4978659      9.7014348      0.2            92.142927    
     15800   0.1902246      0.0024212387   0.0024212387   0              0              2520.7623      4278.0413      763.2755       0              857.78867      0              0              9.4969012      9.699272       0.2            92.113029    
     15900   0.1933831      0.0025039494   0.0025039494   0              0              1100.8589      2557.5466     -356.03802      0              860.77576      0              0              9.4959366      9.6983545      0.2            92.09496     
     16000   0.19396873     0.002188613    0.002188613    0              0              857.40409      2064.3109     -349.6809       0              1814.3693      0              0              9.494972       9.7015607      0.2            92.116047    
     16100   0.22321714     0.0025050999   0.0025050999   0              0              1658.0354      2271.6295      1044.2113      0              1662.6055      0              0              9.4940074      9.6924451      0.2            92.020146    
     16200   0.21594394     0.0023512679   0.0023512679   0              0              561.70304      2270.069      -1146.8567      0              1771.3028      0              0              9.4930427      9.7052099      0.2            92.131973    
     16300   0.2219383      0.0022609118   0.0022609118   0              0              2391.4762      4054.144       728.63719      0              772.9931       0              0              9.4920781      9.695411       0.2            92.029599    
     16400   0.2079261      0.002411175    0.002411175    0              0              1745.4537      3375.1311      115.58477      0              1856.3736      0              0              9.4911135      9.6946136      0.2            92.012678    
     16500   0.16957656     0.0022599462   0.0022599462   0              0              914.93823      3001.0917     -1171.3781      0              1404.0577      0              0              9.4901489      9.6991771      0.2            92.046635    
     16600   0.24520172     0.0022597179   0.0022597179   0              0              2946.4394      4256.428       1636.2195      0              1286.8224      0              0              9.4891843      9.6832522      0.2            91.886164    
     16700   0.21439043     0.002359966    0.002359966    0              0              1119.2723      3455.364      -1217.0371      0              1187.3796      0              0              9.4882196      9.6995105      0.2            92.031086    
     16800   0.19546602     0.0021776834   0.0021776834   0              0              2172.584       4095.2308      249.74696      0              448.49981      0              0              9.487255       9.6976869      0.2            92.004429    
     16900   0.18698019     0.0022639824   0.0022639824   0              0              2091.847       3270.4573      913.05338      0              496.83222      0              0              9.4862904      9.6955697      0.2            91.97499     
     17000   0.20684527     0.0022366072   0.0022366072   0              0              420.88616      2522.422      -1680.8298      0              1038.5457      0              0              9.4853258      9.7056138      0.2            92.060909    
     17100   0.22685383     0.0022548747   0.0022548747   0              0              2356.4028      3093.723       1618.8714      0              1177.363       0              0              9.4843611      9.6837247      0.2            91.843942    
     17200   0.22562479     0.0023848125   0.0023848125   0              0              851.25127      2293.4353     -591.11768      0              1158.5615      0              0              9.4833965      9.6944465      0.2            91.93628     
     17300   0.21636584     0.0022857356   0.0022857356   0              0              1289.8065      3267.9365     -688.53265      0              1437.4219      0              0              9.4824319      9.6938398      0.2            91.921176    
     17400   0.25895623     0.0025595309   0.0025595309   0              0              2448.7234      3373.7929      1523.462       0              1281.408       0              0              9.4814673      9.6882096      0.2            91.858442    
     17500   0.19428003     0.0022519835   0.0022519835   0              0              475.5012       2481.9462     -1531.0944      0              1807.7538      0              0              9.4805026      9.7057399      0.2            92.015293    
     17600   0.21932356     0.0023761028   0.0023761028   0              0              2104.5976      3419.979       789.03278      0              786.30679      0              0              9.479538       9.6902751      0.2            91.859331    
     17700   0.22901894     0.0021820091   0.0021820091   0              0              1958.5336      3753.9092      162.94001      0              360.69576      0              0              9.4785734      9.6899219      0.2            91.846636    
     17800   0.18893348     0.0021777208   0.0021777208   0              0              1242.7011      3292.0292     -806.82146      0              1637.4186      0              0              9.4776088      9.6886343      0.2            91.825085    
     17900   0.20513802     0.0022508923   0.0022508923   0              0              2491.1343      4025.8551      956.23203      0              1248.1673      0              0              9.4766441      9.6801809      0.2            91.73563     
     18000   0.18313446     0.0023997888   0.0023997888   0              0              1761.9793      3997.7075     -473.95672      0              704.0154       0              0              9.4756795      9.688271       0.2            91.802951    
     18100   0.24186972     0.0023449241   0.0023449241   0              0              1379.4105      2825.7378     -67.140713      0              1024.7744      0              0              9.4747149      9.6887053      0.2            91.79772     
     18200   0.25262315     0.0022079763   0.0022079763   0              0              2127.8318      3781.6931      473.73028      0              216.52568      0              0              9.4737503      9.6854854      0.2            91.75787     
     18300   0.18120671     0.0025186761   0.0025186761   0              0              1308.1943      3302.0231     -685.84467      0              1015.2305      0              0              9.4727856      9.6879016      0.2            91.771415    
     18400   0.20808097     0.0021342049   0.0021342049   0              0              1476.7554      2533.835       419.45632      0              790.14622      0              0              9.471821       9.6827616      0.2            91.713385    
     18500   0.27311959     0.0024342289   0.0024342289   0              0              1152.0803      2144.1642      159.77588      0              1425.0236      0              0              9.4708564      9.6699871      0.2            91.583059    
     18600   0.17553383     0.0023260594   0.0023260594   0              0              746.8871       2114.313      -620.7832       0              1455.5377      0              0              9.4698918      9.6702409      0.2            91.576134    
     18700   0.20177354     0.0024201009   0.0024201009   0              0              1697.1054      2609.916       784.06293      0              1973.2602      0              0              9.4689271      9.6601064      0.2            91.470844    
     18800   0.21145373     0.0023954033   0.0023954033   0              0              1164.1606      2794.3199     -466.22179      0              2295.5934      0              0              9.4679625      9.6659781      0.2            91.517118    
     18900   0.20892519     0.0025102762   0.0025102762   0              0              1171.5125      2509.5413     -166.74142      0              1629.0051      0              0              9.4669979      9.6754989      0.2            91.597928    
     19000   0.18976114     0.002385676    0.002385676    0              0              1436.7422      2185.846       687.46605      0              1658.0015      0              0              9.4660333      9.6731501      0.2            91.56636     
     19100   0.18086092     0.0023851181   0.0023851181   0              0              928.4491       2766.121      -909.4289       0              1537.6177      0              0              9.4650686      9.6862563      0.2            91.68108     
     19200   0.19220362     0.0024284933   0.0024284933   0              0              1115.9472      1822.5116      409.18553      0              2067.5826      0              0              9.464104       9.6816588      0.2            91.628226    
     19300   0.18109924     0.0023956299   0.0023956299   0              0              1269.0094      2444.4204      93.40687       0              1443.7054      0              0              9.4631394      9.686599       0.2            91.665637    
     19400   0.22791969     0.0023806435   0.0023806435   0              0              762.82235      2050.2357     -524.78147      0              851.98454      0              0              9.4621748      9.6908817      0.2            91.696816    
     19500   0.22252261     0.0024479764   0.0024479764   0              0              2169.5913      3596.5918      742.37527      0              965.03978      0              0              9.4612101      9.6802779      0.2            91.587144    
     19600   0.1945556      0.0024944043   0.0024944043   0              0              1824.9806      3908.5431     -258.77955      0              878.6605       0              0              9.4602455      9.6794758      0.2            91.570217    
     19700   0.22428762     0.0024030032   0.0024030032   0              0              1408.8976      3078.2631     -260.67076      0              1016.1551      0              0              9.4592809      9.6859324      0.2            91.621956    
     19800   0.20778698     0.0022540164   0.0022540164   0              0              2055.5031      3454.5541      656.24205      0              700.1257       0              0              9.4583163      9.6793079      0.2            91.549955    
     19900   0.16949494     0.0022896579   0.0022896579   0              0              416.96388      1467.551      -633.80654      0              1335.3965      0              0              9.4573516      9.6823904      0.2            91.56977     
     20000   0.21252576     0.002496192    0.002496192    0              0              1065.5437      1839.3048      291.57072      0              1035.9443      0              0              9.456387       9.6763895      0.2            91.503684    
     20100   0.21743676     0.0025264944   0.0025264944   0              0              1131.7178      2094.5611      168.70676      0              1537.4272      0              0              9.4554224      9.674578       0.2            91.477221    
     20200   0.20953907     0.0025442803   0.0025442803   0              0              1162.7798      2887.6982     -562.33991      0              975.71192      0              0              9.4544578      9.6820761      0.2            91.53878     
     20300   0.25527615     0.0023963328   0.0023963328   0              0              1947.9611      3369.3362      526.41415      0              1447.2338      0              0              9.4534931      9.6775596      0.2            91.486743    
     20400   0.21393219     0.0024400927   0.0024400927   0              0              422.07098      1127.3089     -283.36249      0              1006.7325      0              0              9.4525285      9.6866879      0.2            91.563694    
     20500   0.20123694     0.0025858169   0.0025858169   0              0              1337.2158      2658.7661      15.466493      0              1461.3848      0              0              9.4515639      9.6748999      0.2            91.442935    
     20600   0.16809662     0.0024612071   0.0024612071   0              0              1525.818       2693.6465      357.79624      0              878.63874      0              0              9.4505993      9.6804422      0.2            91.48598     
     20700   0.2092491      0.0024882921   0.0024882921   0              0              872.4293       2381.8687     -637.21483      0              1375.6062      0              0              9.4496346      9.6829399      0.2            91.500244    
     20800   0.2685815      0.0024297946   0.0024297946   0              0              1184.8382      2044.287       325.23086      0              1323.2683      0              0              9.44867        9.6701294      0.2            91.369861    
     20900   0.23232938     0.0025921323   0.0025921323   0              0              1636.8319      3149.2904      124.17433      0              746.93537      0              0              9.4477054      9.6617452      0.2            91.281322    
     21000   0.21968332     0.0025225589   0.0025225589   0              0              937.25606      2181.7031     -307.41206      0              1552.8904      0              0              9.4467408      9.6633607      0.2            91.287264    
     21100   0.25629432     0.0027242487   0.0027242487   0              0              587.8623       809.2986       366.20088      0              605.72311      0              0              9.4457762      9.6654411      0.2            91.297593    
     21200   0.20622646     0.0025769487   0.0025769487   0              0              912.02452      1935.8048     -111.9296       0              1009.2481      0              0              9.4448115      9.6693181      0.2            91.324887    
     21300   0.25131031     0.0027307266   0.0027307266   0              0              146.22559      705.79353     -413.54448      0              695.41246      0              0              9.4438469      9.6731473      0.2            91.351722    
     21400   0.20463452     0.0027763893   0.0027763893   0              0              1413.55        2141.787       685.13024      0              432.16241      0              0              9.4428823      9.6681702      0.2            91.295393    
     21500   0.22548134     0.0025599203   0.0025599203   0              0              457.99498      1382.8205     -467.05414      0              921.39358      0              0              9.4419177      9.6693335      0.2            91.297051    
     21600   0.19853895     0.0024747812   0.0024747812   0              0              1221.0458      2448.3153     -6.403217       0              809.68367      0              0              9.440953       9.6720984      0.2            91.313826    
     21700   0.24475318     0.0026631356   0.0026631356   0              0              915.50178      1167.6615      663.13749      0              1015.3402      0              0              9.4399884      9.6677609      0.2            91.263551    
     21800   0.17513652     0.0027790252   0.0027790252   0              0              758.60279      2460.0057     -942.98111      0              963.88003      0              0              9.4390238      9.6726991      0.2            91.300837    
     21900   0.21859455     0.002631078    0.002631078    0              0              1671.427       2766.4886      576.17639      0              47.712945      0              0              9.4380592      9.668637       0.2            91.253168    
     22000   0.2158666      0.0025455614   0.0025455614   0              0              1103.4638      1918.7956      287.90299      0              1296.4675      0              0              9.4370945      9.6670963      0.2            91.229301    
     22100   0.19758402     0.0025678345   0.0025678345   0              0              885.87134      2783.478      -1011.953       0              961.68883      0              0              9.4361299      9.6680359      0.2            91.228843    
     22200   0.20197091     0.0026257083   0.0026257083   0              0              1845.2783      2449.9995      1240.3218      0             -132.52444      0              0              9.4351653      9.6616454      0.2            91.159222    
     22300   0.19452346     0.0025106784   0.0025106784   0              0              255.05806      1329.0563     -819.13582      0             -46.187362      0              0              9.4342007      9.6742369      0.2            91.268692    
     22400   0.20723037     0.0026192939   0.0026192939   0              0              1152.6145      2538.8224     -233.8384       0              1207.9318      0              0              9.433236       9.6673985      0.2            91.194852    
     22500   0.1987346      0.0028642596   0.0028642596   0              0              2579.7474      3886.0874      1273.2249      0              1255.7317      0              0              9.4322714      9.6588681      0.2            91.105066    
     22600   0.21253419     0.0027679834   0.0027679834   0              0              602.29767      2562.3822     -1357.9945      0              889.76776      0              0              9.4313068      9.6693122      0.2            91.194249    
     22700   0.20247618     0.0025365299   0.0025365299   0              0              2041.7936      3189.7627      893.64515      0              839.95725      0              0              9.4303422      9.6628854      0.2            91.124315    
     22800   0.24069301     0.0027720371   0.0027720371   0              0              1478.2894      2759.094       197.30979      0              867.87545      0              0              9.4293775      9.6695922      0.2            91.178236    
     22900   0.20051794     0.0026845321   0.0026845321   0              0              349.09958      1784.0918     -1086.1055      0              1432.3569      0              0              9.4284129      9.6721047      0.2            91.192597    
     23000   0.2415714      0.00283336     0.00283336     0              0              1982.9735      2689.7626      1275.9559      0              1523.9621      0              0              9.4274483      9.6664399      0.2            91.129862    
     23100   0.18594819     0.0026396581   0.0026396581   0              0              586.13491      2151.2702     -979.1824       0              1794.6896      0              0              9.4264837      9.6765893      0.2            91.216211    
     23200   0.19839493     0.0027587331   0.0027587331   0              0              1510.9268      2936.7779      84.866181      0              1560.0928      0              0              9.425519       9.6763502      0.2            91.204623    
     23300   0.19650785     0.002993784    0.002993784    0              0              1881.2088      3009.4638      752.78723      0              1692.0881      0              0              9.4245544      9.6778074      0.2            91.209023    
     23400   0.21360205     0.002787395    0.002787395    0              0             -109.48169      909.82897     -1128.9587      0              1404.6829      0              0              9.4235898      9.6817597      0.2            91.236932    
     23500   0.2100049      0.0027181737   0.0027181737   0              0              2257.1744      3498.2651      1015.8949      0              1137.3691      0              0              9.4226252      9.6780633      0.2            91.192763    
     23600   0.22250318     0.0029437562   0.0029437562   0              0              1352.6617      3091.5213     -386.44392      0              1442.7326      0              0              9.4216605      9.6882181      0.2            91.279102    
     23700   0.2286323      0.0030910582   0.0030910582   0              0              798.42181      1907.0362     -310.37817      0              1672.3053      0              0              9.4206959      9.6876387      0.2            91.264298    
     23800   0.22601435     0.0028954718   0.0028954718   0              0              1918.7317      2928.9001      908.3558       0              1310.4372      0              0              9.4197313      9.6708397      0.2            91.096711    
     23900   0.22298973     0.0027725977   0.0027725977   0              0              482.17554      1942.55       -978.4084       0              1277.6513      0              0              9.4187667      9.6814993      0.2            91.187783    
     24000   0.18226043     0.002743405    0.002743405    0              0              1612.323       2624.5167      599.93103      0              601.40077      0              0              9.417802       9.6782917      0.2            91.148235    
     24100   0.17037207     0.0030021905   0.0030021905   0              0              1162.1909      2378.1951     -53.995859      0              1090.3432      0              0              9.4168374      9.6808991      0.2            91.163452    
     24200   0.15620968     0.0028032051   0.0028032051   0              0              1169.2686      2742.6687     -404.34158      0              1090.8334      0              0              9.4158728      9.6815734      0.2            91.160464    
     24300   0.20915657     0.0026385425   0.0026385425   0              0              1491.4987      2342.6035      640.18298      0              1393.6943      0              0              9.4149082      9.6718515      0.2            91.059594    
     24400   0.19311521     0.0028441458   0.0028441458   0              0              969.73014      2468.5598     -529.31585      0              1304.3704      0              0              9.4139435      9.6804173      0.2            91.130902    
     24500   0.1938725      0.0029285517   0.0029285517   0              0              1439.4859      2657.6143      221.14495      0              1689.851       0              0              9.4129789      9.6725703      0.2            91.0477      
     24600   0.19075503     0.0028635326   0.0028635326   0              0              1578.4075      2875.5765      281.03649      0              1744.6262      0              0              9.4120143      9.6696195      0.2            91.010597    
     24700   0.22872033     0.0029710208   0.0029710208   0              0              823.36982      2119.7743     -473.24419      0              866.50099      0              0              9.4110497      9.673997       0.2            91.042466    
     24800   0.21662835     0.003116348    0.003116348    0              0              1718.1122      2990.3666      445.65339      0              1350.6938      0              0              9.410085       9.6742431      0.2            91.03545     
     24900   0.2005199      0.0028941723   0.0028941723   0              0              1086.7851      2392.9508     -219.59227      0              1438.6246      0              0              9.4091204      9.676362       0.2            91.046055    
     25000   0.22355734     0.0029590442   0.0029590442   0              0              960.53411      2034.6165     -113.77336      0              1155.8484      0              0              9.4081558      9.6777665      0.2            91.049935    
     25100   0.21262399     0.003159667    0.003159667    0              0              2308.0798      4297.7748      318.17091      0              928.52057      0              0              9.4071912      9.6794072      0.2            91.056034    
     25200   0.20327608     0.0030468324   0.0030468324   0              0              1505.6913      3547.7046     -536.55922      0              1475.879       0              0              9.4062265      9.6800562      0.2            91.052802    
     25300   0.19117771     0.003099745    0.003099745    0              0              1528.1552      2705.7646      350.34358      0              775.9712       0              0              9.4052619      9.6820617      0.2            91.062326    
     25400   0.2286219      0.003304133    0.003304133    0              0              1402.9497      2969.3571     -163.6541       0              285.60216      0              0              9.4042973      9.6869168      0.2            91.098646    
     25500   0.22133299     0.003202277    0.003202277    0              0              1302.3985      2770.1145     -165.53323      0              813.93074      0              0              9.4033327      9.6794437      0.2            91.019029    
     25600   0.20052649     0.0029746766   0.0029746766   0              0              1987.0795      3407.2306      566.73612      0              468.44863      0              0              9.4023681      9.6768263      0.2            90.985082    
     25700   0.20843706     0.0028580519   0.0028580519   0              0              1077.1718      2757.8412     -603.69546      0              736.33246      0              0              9.4014034      9.6806186      0.2            91.011401    
     25800   0.22726334     0.0033025931   0.0033025931   0              0              2471.1299      4562.0473      379.98917      0              1061.6458      0              0              9.4004388      9.67923        0.2            90.98901     
     25900   0.21898444     0.0033379507   0.0033379507   0              0              1514.2539      2981.8413      46.447484      0              1213.2417      0              0              9.3994742      9.6829087      0.2            91.01425     
     26000   0.20484867     0.0031055299   0.0031055299   0              0              1062.1222      2476.7549     -352.7413       0              358.09654      0              0              9.3985096      9.6826348      0.2            91.002336    
     26100   0.1727921      0.003140654    0.003140654    0              0              2267.0489      3960.0786      573.84524      0              666.28203      0              0              9.3975449      9.6768605      0.2            90.938732    
     26200   0.18394231     0.0033067612   0.0033067612   0              0              1257.5986      3119.9604     -604.99702      0              180.47391      0              0              9.3965803      9.6835455      0.2            90.992213    
     26300   0.21915852     0.0031645554   0.0031645554   0              0              1628.6763      2964.7338      292.38844      0              1378.5427      0              0              9.3956157      9.6743686      0.2            90.896649    
     26400   0.2103883      0.0033154005   0.0033154005   0              0              1409.887       2596.4975      223.04449      0              1079.4319      0              0              9.3946511      9.6753561      0.2            90.896595    
     26500   0.23192254     0.0033889039   0.0033889039   0              0              1837.9073      4416.6443     -741.01861      0              480.96031      0              0              9.3936864      9.6778721      0.2            90.910896    
     26600   0.19455055     0.0031332924   0.0031332924   0              0              2227.6599      3585.0847      869.99583      0              1138.2397      0              0              9.3927218      9.6693064      0.2            90.821105    
     26700   0.18800183     0.0032929649   0.0032929649   0              0              1169.1288      2870.2466     -532.1999       0              996.76998      0              0              9.3917572      9.6789925      0.2            90.902747    
     26800   0.25533259     0.0032939088   0.0032939088   0              0              1481.5336      3024.0349     -61.187839      0              1050.9663      0              0              9.3907926      9.6694277      0.2            90.80359     
     26900   0.19693775     0.0034599459   0.0034599459   0              0              1859.9555      3171.3051      548.37474      0              1129.9992      0              0              9.3898279      9.6641469      0.2            90.744677    
     27000   0.20322457     0.0035615247   0.0035615247   0              0              1008.7136      2887.5716     -870.35884      0              1956.4359      0              0              9.3888633      9.6648403      0.2            90.741864    
     27100   0.22549674     0.0033700706   0.0033700706   0              0              2244.7807      3887.3145      602.01541      0              637.66301      0              0              9.3878987      9.6610852      0.2            90.697289    
     27200   0.22184642     0.0032518976   0.0032518976   0              0              1854.0461      3697.5549      10.359054      0              863.05964      0              0              9.3869341      9.6681625      0.2            90.754404    
     27300   0.20831404     0.0033366203   0.0033366203   0              0              823.39601      2258.3911     -611.80059      0              1260.2064      0              0              9.3859694      9.6673569      0.2            90.737516    
     27400   0.18793231     0.0033815932   0.0033815932   0              0              2332.8528      3637.3846      1028.0987      0              1659.0285      0              0              9.3850048      9.6624819      0.2            90.682439    
     27500   0.27086794     0.003442711    0.003442711    0              0              1573.8146      4008.3067     -860.85311      0              1407.701       0              0              9.3840402      9.6702092      0.2            90.745632    
     27600   0.22118477     0.0032326951   0.0032326951   0              0              2086.263       3776.9823      395.31754      0              1089.5497      0              0              9.3830756      9.6665254      0.2            90.701738    
     27700   0.21524634     0.0031396889   0.0031396889   0              0              1663.9932      3011.5264      316.28963      0              890.37497      0              0              9.3821109      9.6660349      0.2            90.687812    
     27800   0.17259177     0.0034222469   0.0034222469   0              0              1102.1651      2935.4252     -731.30195      0              1158.8138      0              0              9.3811463      9.6741502      0.2            90.754618    
     27900   0.19684594     0.003233282    0.003233282    0              0              1933.4536      2991.294       875.40218      0              918.04025      0              0              9.3801817      9.6644413      0.2            90.654216    
     28000   0.20127773     0.0031853857   0.0031853857   0              0              1274.7365      3084.8905     -535.61912      0              1697.5117      0              0              9.3792171      9.6697949      0.2            90.695106    
     28100   0.21473372     0.0032669304   0.0032669304   0              0              1429.8333      2789.7477      69.715903      0              1030.1824      0              0              9.3782524      9.6637192      0.2            90.628798    
[...]
     43100   0.21166763     0.0050592303   0.0050592303   0              0              1510.7049      3521.3033     -500.12643      0              896.52071      0              0              9.2335588      9.6388617      0.2            89.000996    
     43200   0.25304005     0.0052534423   0.0052534423   0              0              2341.2513      4129.1675      553.11914      0              1000.2713      0              0              9.2325942      9.6371217      0.2            88.975633    
     43300   0.22120389     0.0055510059   0.0055510059   0              0              1772.728       3994.738      -449.50132      0              39.285541      0              0              9.2316295      9.645611       0.2            89.044707    
     43400   0.19683932     0.0053949839   0.0053949839   0              0              2603.991       4899.8877      307.84888      0              1448.2053      0              0              9.2306649      9.6434731      0.2            89.015669    
     43500   0.1998022      0.00533666     0.00533666     0              0              2423.2341      4704.3375      141.9464       0              940.67127      0              0              9.2297003      9.6448503      0.2            89.019077    
     43600   0.22347532     0.0051174737   0.0051174737   0              0              1957.0758      4422.0717     -508.13716      0              1161.4584      0              0              9.2287357      9.6476811      0.2            89.035899    
     43700   0.18479243     0.0049691206   0.0049691206   0              0              2487.2899      4290.3588      684.00542      0              716.37863      0              0              9.227771       9.6415403      0.2            88.969927    
     43800   0.18134557     0.0051752047   0.0051752047   0              0              1514.0839      3574.0686     -546.14123      0              292.96565      0              0              9.2268064      9.6463956      0.2            89.005425    
     43900   0.18780962     0.0050507915   0.0050507915   0              0              2338.4796      4261.231       415.46933      0              833.56485      0              0              9.2258418      9.6345579      0.2            88.886907    
     44000   0.2170497      0.0052670415   0.0052670415   0              0              1719.4871      3512.8615     -74.108983      0              963.09037      0              0              9.2248772      9.6364914      0.2            88.89545     
     44100   0.19955169     0.0050774771   0.0050774771   0              0              2157.6133      4408.5196     -93.497835      0              1249.4973      0              0              9.2239125      9.6370088      0.2            88.890927    
     44200   0.23426746     0.0052976052   0.0052976052   0              0              2522.7409      4566.2004      479.0862       0              1028.0072      0              0              9.2229479      9.6380302      0.2            88.89105     
     44300   0.18578568     0.0051369371   0.0051369371   0              0              1214.5775      3137.02       -708.06401      0              1267.8574      0              0              9.2219833      9.635674       0.2            88.860025    
     44400   0.18986245     0.0056077428   0.0056077428   0              0              2771.9447      4675.6608      868.05575      0              802.96931      0              0              9.2210187      9.6306252      0.2            88.804175    
     44500   0.19883409     0.0055968299   0.0055968299   0              0              1076.8578      3051.5813     -898.08427      0              1168.9437      0              0              9.220054       9.6354642      0.2            88.839501    
     44600   0.18391649     0.0051955509   0.0051955509   0              0              2146.3263      3715.5834      576.82621      0              1320.8404      0              0              9.2190894      9.6272652      0.2            88.754619    
     44700   0.1855008      0.0053997646   0.0053997646   0              0              1702.6507      3669.6298     -264.59097      0              1227.2535      0              0              9.2181248      9.634657       0.2            88.81347     
     44800   0.26138812     0.0050733574   0.0050733574   0              0              1158.6891      2666.7866     -349.67351      0              1601.162       0              0              9.2171602      9.6381087      0.2            88.835992    
     44900   0.19490576     0.0053709321   0.0053709321   0              0              2113.6605      3310.2978      916.78854      0              504.80322      0              0              9.2161955      9.6304434      0.2            88.756049    
     45000   0.21190483     0.005418111    0.005418111    0              0              299.53068      1921.5928     -1322.7668      0              703.96259      0              0              9.2152309      9.6387642      0.2            88.823438    
     45100   0.21899562     0.0054681773   0.0054681773   0              0              2471.9253      3461.4605      1482.1606      0              844.67603      0              0              9.2142663      9.630358       0.2            88.736683    
     45200   0.17384377     0.005690755    0.005690755    0              0              773.36128      2651.9001     -1105.3482      0              1180.0295      0              0              9.2133017      9.6343906      0.2            88.764547    
     45300   0.19679908     0.0052667038   0.0052667038   0              0              1876.8375      3229.8736      523.57054      0              479.02968      0              0              9.212337       9.6261251      0.2            88.679109    
     45400   0.22935955     0.0055653753   0.0055653753   0              0              1693.8249      3404.5169     -17.084146      0              1285.4422      0              0              9.2113724      9.6341195      0.2            88.743463    
     45500   0.19626362     0.0057449792   0.0057449792   0              0              2262.7308      5080.8364     -555.63041      0              907.06565      0              0              9.2104078      9.6335087      0.2            88.728543    
     45600   0.19951863     0.0056110323   0.0056110323   0              0              2633.9396      4103.1769      1164.5101      0              1324.2881      0              0              9.2094432      9.6298286      0.2            88.68536     
     45700   0.18657835     0.0052055107   0.0052055107   0              0              1287.3336      3968.1569     -1393.6652      0              1288.5853      0              0              9.2084785      9.6352647      0.2            88.726128    
     45800   0.21746326     0.0053421224   0.0053421224   0              0              2516.7881      3692.6234      1340.7842      0              1006.5284      0              0              9.2075139      9.6196804      0.2            88.573341    
     45900   0.19656941     0.0053553552   0.0053553552   0              0              1274.5664      3476.2789     -927.39363      0              969.87139      0              0              9.2065493      9.6294772      0.2            88.654256    
     46000   0.18456778     0.0052599773   0.0052599773   0              0              1902.0904      3472.5213      331.45948      0              534.91853      0              0              9.2055847      9.6272374      0.2            88.624349    
     46100   0.19143976     0.005540818    0.005540818    0              0              2325.1011      4423.8569      226.12594      0              1479.3239      0              0              9.20462        9.6198156      0.2            88.546747    
     46200   0.20504941     0.0054828607   0.0054828607   0              0              2287.8112      5134.2314     -558.7834       0              1325.8492      0              0              9.2036554      9.6281058      0.2            88.613768    
     46300   0.21068758     0.0055450088   0.0055450088   0              0              2480.4896      4271.8999      688.85909      0              1468.2536      0              0              9.2026908      9.6159408      0.2            88.492529    
     46400   0.1862131      0.0053989629   0.0053989629   0              0              1054.4689      2835.1937     -726.46247      0              739.34037      0              0              9.2017262      9.6200663      0.2            88.521216    
     46500   0.21404616     0.0057671028   0.0057671028   0              0              1950.1032      3362.9812      537.00332      0              813.32616      0              0              9.2007615      9.616553       0.2            88.479611    
     46600   0.21319306     0.0055933779   0.0055933779   0              0              2064.124       4203.9969     -75.949643      0              1653.9831      0              0              9.1997969      9.6190118      0.2            88.492955    
     46700   0.23022011     0.0055942978   0.0055942978   0              0              1517.4062      3221.4472     -186.84429      0              1111.3142      0              0              9.1988323      9.6213628      0.2            88.505302    
     46800   0.20550039     0.0058104323   0.0058104323   0              0              2194.2168      3894.1447      494.10789      0              1412.5291      0              0              9.1978677      9.6139623      0.2            88.427953    
     46900   0.19775443     0.005801249    0.005801249    0              0              1653.7599      3995.0159     -687.70673      0              979.1294       0              0              9.196903       9.6236604      0.2            88.507871    
     47000   0.2357576      0.0056902201   0.0056902201   0              0              1909.0533      3189.8124      628.11871      0              1836.4258      0              0              9.1959384      9.6166604      0.2            88.434216    
     47100   0.19646001     0.0057098417   0.0057098417   0              0              1090.7345      2566.6757     -385.42225      0              1495.5854      0              0              9.1949738      9.6217079      0.2            88.471352    
     47200   0.2018557      0.0056864403   0.0056864403   0              0              1606.813       3195.3232      18.089778      0              1255.2998      0              0              9.1940092      9.6224893      0.2            88.469255    
     47300   0.20174653     0.0056169743   0.0056169743   0              0              2038.9879      3935.6218      142.13279      0              1415.6762      0              0              9.1930445      9.6225735      0.2            88.460747    
     47400   0.16225503     0.0055701635   0.0055701635   0              0              1316.8832      2898.9604     -265.42105      0              1303.5394      0              0              9.1920799      9.631191       0.2            88.530678    
     47500   0.20514974     0.0055266967   0.0055266967   0              0              1697.4242      3127.0844      267.55883      0              1235.9802      0              0              9.1911153      9.6250348      0.2            88.464805    
     47600   0.18701501     0.0054905773   0.0054905773   0              0              1522.3675      3212.0412     -167.52657      0              1620.529       0              0              9.1901507      9.6186756      0.2            88.397078    
     47700   0.20027451     0.0058473395   0.0058473395   0              0              2087.4529      4010.3303      164.32214      0              1027.0951      0              0              9.1891861      9.6182568      0.2            88.383951    
     47800   0.18730435     0.0056189774   0.0056189774   0              0              1981.5117      3992.4214     -29.629116      0              251.46178      0              0              9.1882214      9.6208228      0.2            88.39825     
     47900   0.14882825     0.0053788689   0.0053788689   0              0              2107.4102      4204.7673      9.8404057      0              734.5822       0              0              9.1872568      9.6169103      0.2            88.353025    
     48000   0.13658746     0.005561948    0.005561948    0              0              1889.2564      3817.968      -39.663519      0              95.09868       0              0              9.1862922      9.6149166      0.2            88.325433    
     48100   0.19579489     0.0055135853   0.0055135853   0              0              2098.5445      4264.9925     -68.103         0              572.83084      0              0              9.1853276      9.6152953      0.2            88.319637    
     48200   0.23060416     0.0056524351   0.0056524351   0              0              2107.3634      3903.5819      310.93978      0              987.37606      0              0              9.1843629      9.6157352      0.2            88.314402    
     48300   0.17638726     0.0058238992   0.0058238992   0              0              1221.4521      2723.5748     -280.90875      0              928.14377      0              0              9.1833983      9.6134941      0.2            88.284545    
     48400   0.1903421      0.0056118254   0.0056118254   0              0              1971.4841      3666.1019      276.63724      0              338.51847      0              0              9.1824337      9.6079155      0.2            88.224047    
     48500   0.19080112     0.0057120753   0.0057120753   0              0              1599.5399      3413.9481     -215.05714      0              661.5227       0              0              9.1814691      9.6089606      0.2            88.224375    
     48600   0.20062415     0.0056398504   0.0056398504   0              0              1484.8784      2917.1095      52.43072       0              666.30237      0              0              9.1805044      9.6050759      0.2            88.179442    
     48700   0.20370145     0.0058122353   0.0058122353   0              0              1281.3784      2578.8006     -16.279791      0              345.23626      0              0              9.1795398      9.6057204      0.2            88.176093    
     48800   0.21422899     0.0057920706   0.0057920706   0              0              1513.6921      3231.6735     -204.50192      0              541.66232      0              0              9.1785752      9.6074565      0.2            88.182762    
     48900   0.21058874     0.0057714798   0.0057714798   0              0              2202.9933      4086.5599      319.22418      0              988.33202      0              0              9.1776106      9.6095728      0.2            88.192917    
     49000   0.24511896     0.0058169961   0.0058169961   0              0              1799.8679      3973.9957     -374.47019      0              686.53762      0              0              9.1766459      9.6217419      0.2            88.295319    
     49100   0.26265159     0.0056387993   0.0056387993   0              0              1589.0404      2864.9545      312.89416      0              263.91945      0              0              9.1756813      9.610327       0.2            88.181298    
     49200   0.24330645     0.0057095351   0.0057095351   0              0              1006.9666      2237.3207     -223.6441       0              820.96711      0              0              9.1747167      9.6098297      0.2            88.167465    
     49300   0.24928064     0.0057743466   0.0057743466   0              0              1703.7329      3209.9614      197.31271      0              1456.5248      0              0              9.1737521      9.6006025      0.2            88.073547    
     49400   0.2034187      0.005839845    0.005839845    0              0              1834.1306      3817.3313     -149.29261      0              1443.6896      0              0              9.1727874      9.6068891      0.2            88.121952    
     49500   0.26644379     0.0057154025   0.0057154025   0              0              1257.0311      2538.7919     -24.942659      0              783.90161      0              0              9.1718228      9.605742       0.2            88.102164    
     49600   0.19092333     0.0059112242   0.0059112242   0              0              1991.4103      3669.0343      313.56248      0              1173.2408      0              0              9.1708582      9.596781       0.2            88.010718    
     49700   0.22842504     0.0059452278   0.0059452278   0              0              1699.9159      3865.4316     -465.7798       0              1541.4538      0              0              9.1698936      9.5995394      0.2            88.026755    
     49800   0.19621223     0.0059290493   0.0059290493   0              0              2439.0645      4467.1849      410.69762      0              968.2429       0              0              9.1689289      9.6023857      0.2            88.043592    
     49900   0.17978416     0.0060132822   0.0060132822   0              0              1218.1892      2874.4268     -438.25922      0              796.72519      0              0              9.1679643      9.6069179      0.2            88.07588     
     50000   0.18793424     0.0057829246   0.0057829246   0              0              2191.8191      4003.8814      379.52667      0              1312.9177      0              0              9.1669997      9.6030196      0.2            88.030878    
     50100   0.1899682      0.0058103165   0.0058103165   0              0              1471.0089      3328.5848     -386.73772      0              878.21278      0              0              9.1660351      9.6005401      0.2            87.998887    
     50200   0.20368042     0.0060090207   0.0060090207   0              0              1292.0074      2332.5305      251.29364      0              766.25466      0              0              9.1650704      9.6011906      0.2            87.995588    
     50300   0.24885447     0.0059592015   0.0059592015   0              0              1411.5364      2844.0897     -21.239549      0              830.68283      0              0              9.1641058      9.6067312      0.2            88.037101    
     50318   0.19953128     0.0059350133   0.0059350133   0              0              1194.2232      2726.1108     -337.90699      0              756.05781      0              0              9.1639322      9.6066727      0.2            88.034897    
Loop time of 1.24928 on 1 procs for 50000 steps with 68 atoms

Performance: 34579.928 ns/day, 0.001 hours/ns, 40023.064 timesteps/s
99.3% CPU use with 1 MPI tasks x 1 OpenMP threads

MPI task timing breakdown:
Section |  min time  |  avg time  |  max time  |%varavg| %total
---------------------------------------------------------------
Pair    | 0          | 0          | 0          |   0.0 |  0.00
Bond    | 0.19878    | 0.19878    | 0.19878    |   0.0 | 15.91
Neigh   | 0          | 0          | 0          |   0.0 |  0.00
Comm    | 0.41875    | 0.41875    | 0.41875    |   0.0 | 33.52
Output  | 0.0071998  | 0.0071998  | 0.0071998  |   0.0 |  0.58
Modify  | 0.5953     | 0.5953     | 0.5953     |   0.0 | 47.65
Other   |            | 0.02925    |            |       |  2.34

Nlocal:             68 ave          68 max          68 min
Histogram: 1 0 0 0 0 0 0 0 0 0
Nghost:            577 ave         577 max         577 min
Histogram: 1 0 0 0 0 0 0 0 0 0
Neighs:              0 ave           0 max           0 min
Histogram: 1 0 0 0 0 0 0 0 0 0

Total # of neighbors = 0
Ave neighs/atom = 0
Ave special neighs/atom = 26.911765
Neighbor list builds = 0
Dangerous builds = 0


Total wall time: 0:00:01
