LAMMPS data file.

     68 atoms
    164 bonds
      0 angles
      0 dihedrals
      0 impropers
      1 atom types
    164 bond types
      0 angle types
      0 dihedral types
      0 improper types
  -4.823122   4.823122 xlo xhi
  -4.823122   4.823122 ylo yhi
  -0.100000   0.100000 zlo zhi

Masses # ['atom_id', 'mass']

1 10000.0

Atoms # ['atomID', 'moleculeID', 'atomType', 'charge', 'x', 'y', 'z']

     44      1      1   0.000000  -4.588642  -4.436565   0.000000
     36      1      1   0.000000  -3.597658  -4.582683   0.000000
     28      1      1   0.000000  -2.423366  -4.488283   0.000000
      1      1      1   0.000000  -1.143266  -4.081279   0.000000
     63      1      1   0.000000  -0.132563  -4.582306   0.000000
      7      1      1   0.000000   1.411309  -4.304381   0.000000
     55      1      1   0.000000   2.589745   4.799101   0.000000
     60      1      1   0.000000   3.456673  -4.483038   0.000000
     22      1      1   0.000000  -3.960936  -3.542299   0.000000
     69      1      1   0.000000  -3.103422  -3.819638   0.000000
     16      1      1   0.000000  -2.288405  -3.151487   0.000000
     77      1      1   0.000000  -0.467221  -3.242374   0.000000
     40      1      1   0.000000   0.236748  -3.775872   0.000000
     70      1      1   0.000000   0.819942  -3.028994   0.000000
      8      1      1   0.000000   2.661537  -3.363683   0.000000
     52      1      1   0.000000   3.462015  -2.389156   0.000000
     11      1      1   0.000000   4.188061  -3.599152   0.000000
      3      1      1   0.000000   4.670093  -2.136464   0.000000
     13      1      1   0.000000  -3.518584  -2.347276   0.000000
     48      1      1   0.000000  -1.931227  -2.026871   0.000000
     80      1      1   0.000000  -1.156987  -3.053090   0.000000
     74      1      1   0.000000  -1.207824  -1.738180   0.000000
     23      1      1   0.000000  -0.527642  -2.400169   0.000000
     68      1      1   0.000000   0.241984  -2.884711   0.000000
     46      1      1   0.000000   0.833363  -2.320297   0.000000
     49      1      1   0.000000   2.478402  -2.175280   0.000000
      4      1      1   0.000000   3.439270  -1.268079   0.000000
     19      1      1   0.000000  -4.062784  -0.881324   0.000000
     33      1      1   0.000000  -2.704772  -1.270196   0.000000
     71      1      1   0.000000  -1.744271  -1.363331   0.000000
     30      1      1   0.000000  -0.990118  -0.861184   0.000000
      6      1      1   0.000000   0.354136  -1.170083   0.000000
     32      1      1   0.000000   1.614303  -1.511592   0.000000
     76      1      1   0.000000   2.459205  -1.355188   0.000000
      5      1      1   0.000000  -4.669560   0.415744   0.000000
      9      1      1   0.000000  -3.025783   0.276630   0.000000
     42      1      1   0.000000  -2.037373  -0.467747   0.000000
     12      1      1   0.000000   2.017412  -0.254591   0.000000
     79      1      1   0.000000   2.583270   0.845022   0.000000
     10      1      1   0.000000   3.542163   0.120501   0.000000
     29      1      1   0.000000  -4.498027   1.564639   0.000000
     31      1      1   0.000000   0.912147   1.539562   0.000000
     47      1      1   0.000000   1.879567   0.974415   0.000000
     75      1      1   0.000000   3.191145   0.955884   0.000000
     58      1      1   0.000000   4.063150   1.278832   0.000000
     37      1      1   0.000000  -2.649116   2.515204   0.000000
     38      1      1   0.000000  -2.230171   1.362576   0.000000
     50      1      1   0.000000  -1.661584   2.892628   0.000000
     51      1      1   0.000000  -1.387760   2.066195   0.000000
     64      1      1   0.000000   0.189015   2.019895   0.000000
     35      1      1   0.000000   0.821108   2.714473   0.000000
     45      1      1   0.000000   1.827300   1.969874   0.000000
     20      1      1   0.000000   3.081700   1.800403   0.000000
     25      1      1   0.000000   4.364034   2.343288   0.000000
     15      1      1   0.000000  -4.014619   2.839816   0.000000
     17      1      1   0.000000  -1.574817   4.053303   0.000000
      2      1      1   0.000000  -0.520931   2.853182   0.000000
     34      1      1   0.000000   2.513457   2.864288   0.000000
     39      1      1   0.000000   4.318569   3.394324   0.000000
     26      1      1   0.000000  -4.233122   4.192758   0.000000
     18      1      1   0.000000  -2.872978   3.900285   0.000000
     53      1      1   0.000000  -0.765411   4.599668   0.000000
     61      1      1   0.000000  -0.476116   3.751422   0.000000
     14      1      1   0.000000   0.513502   4.123933   0.000000
     66      1      1   0.000000   2.215609   4.054891   0.000000
     67      1      1   0.000000   1.584363   4.248360   0.000000
     27      1      1   0.000000   3.150336   3.966033   0.000000
     21      1      1   0.000000   4.209542   4.534725   0.000000

Bond Coeffs # ['bondID', 'bondCoeff', 'd']

      1   0.537705   1.363729
      2   0.653827   1.236712
      3   0.761962   1.145601
      4   0.930603   1.036616
      5   0.930603   1.036616
      6   0.624127   1.265796
      7   1.224713   0.903614
      8   1.032936   0.983928
      9   1.648386   0.778880
     10   2.818069   0.595695
     11   0.539570   1.361370
     12   0.539570   1.361370
     13   0.532376   1.370536
     14   0.861189   1.077583
     15   0.532376   1.370536
     16   0.413868   1.554422
     17   0.421619   1.540068
     18   1.496350   0.817492
     19   0.586632   1.305621
     20   1.231152   0.901248
     21   1.006370   0.996830
     22   0.770252   1.139419
     23   1.354421   0.859257
     24   2.104209   0.689375
     25   0.991804   1.004124
     26   0.462943   1.469726
     27   0.492224   1.425340
     28   0.492224   1.425340
     29   0.440719   1.506326
     30   0.729533   1.170786
     31   0.977828   1.011274
     32   0.644060   1.246053
     33   1.209035   0.909453
     34   0.686172   1.207212
     35   0.686172   1.207212
     36   1.990317   0.708825
     37   0.653146   1.237356
     38   0.809533   1.111431
     39   2.294096   0.660228
     40   0.415004   1.552293
     41   1.039718   0.980714
     42   0.861680   1.077276
     43   0.415004   1.552293
     44   0.861680   1.077276
     45   1.039718   0.980714
     46   0.860501   1.078014
     47   0.860501   1.078014
     48   1.378946   0.851582
     49   1.319314   0.870615
     50   1.048599   0.976552
     51   0.500573   1.413405
     52   1.099429   0.953710
     53   1.486063   0.820316
     54   1.215983   0.906851
     55   0.560570   1.335627
     56   0.560570   1.335627
     57   2.619157   0.617902
     58   0.759772   1.147251
     59   0.786914   1.127292
     60   0.718217   1.179974
     61   0.617491   1.272578
     62   0.515383   1.392948
     63   0.515383   1.392948
     64   0.738174   1.163914
     65   0.619902   1.270101
     66   1.110030   0.949145
     67   1.402605   0.844369
     68   0.501148   1.412593
     69   0.817263   1.106163
     70   0.741079   1.161630
     71   0.691639   1.202431
     72   0.515798   1.392387
     73   0.507622   1.403557
     74   0.615856   1.274267
     75   0.818841   1.105096
     76   0.818841   1.105096
     77   0.480492   1.442636
     78   1.134290   0.938940
     79   0.459589   1.475079
     80   0.900351   1.053887
     81   0.894720   1.057199
     82   0.436794   1.513080
     83   0.436794   1.513080
     84   0.532426   1.370473
     85   0.854023   1.082095
     86   0.799017   1.118721
     87   0.656467   1.234223
     88   0.408500   1.564603
     89   0.602803   1.287989
     90   0.638754   1.251218
     91   0.638754   1.251218
     92   0.823471   1.101985
     93   0.405587   1.570210
     94   0.548730   1.349960
     95   0.945750   1.028281
     96   0.411872   1.558185
     97   1.259137   0.891176
     98   0.628746   1.261137
     99   0.487671   1.431979
    100   0.834452   1.094711
    101   0.794244   1.122078
    102   0.860418   1.078066
    103   0.554230   1.343245
    104   1.271091   0.886976
    105   0.796627   1.120399
    106   1.209911   0.909124
    107   1.623260   0.784885
    108   1.623260   0.784885
    109   0.894368   1.057406
    110   1.131049   0.940285
    111   1.131049   0.940285
    112   0.903551   1.052019
    113   1.073841   0.965006
    114   0.573872   1.320057
    115   0.549357   1.349189
    116   0.516654   1.391234
    117   1.113657   0.947598
    118   1.217912   0.906133
    119   0.687403   1.206131
    120   1.953350   0.715501
    121   0.842353   1.089564
    122   0.768634   1.140618
    123   0.720527   1.178080
    124   0.525641   1.379289
    125   0.768634   1.140618
    126   0.996610   1.001699
    127   0.585262   1.307148
    128   2.334882   0.654437
    129   0.791221   1.124220
    130   1.236332   0.899358
    131   0.691884   1.202218
    132   1.441283   0.832962
    133   0.594070   1.297421
    134   0.815862   1.107112
    135   0.594070   1.297421
    136   0.408970   1.563703
    137   0.815862   1.107112
    138   0.404636   1.572056
    139   0.507984   1.403055
    140   0.404636   1.572056
    141   1.133812   0.939138
    142   0.861475   1.077404
    143   0.664865   1.226404
    144   1.218179   0.906034
    145   0.785824   1.128074
    146   0.917983   1.043717
    147   0.851231   1.083868
    148   0.851231   1.083868
    149   0.767669   1.141335
    150   0.515702   1.392517
    151   1.281736   0.883285
    152   0.551792   1.346209
    153   0.392008   1.597174
    154   0.633125   1.256768
    155   0.633125   1.256768
    156   0.837712   1.092578
    157   0.830057   1.097605
    158   0.795336   1.121308
    159   0.720096   1.178433
    160   0.775320   1.135689
    161   1.326896   0.868124
    162   0.419161   1.544578
    163   0.794244   1.122078
    164   0.553943   1.343592

Bonds # ['ID', 'type', 'atom1', 'atom2']

         1         1        29        15
         2         2        12        47
         3         3        39        21
         4         4         1        53
         5         5        53         1
         6         6        45        20
         7         7        74        30
         8         8         4        76
         9         9        48        74
        10        10        70        68
        11        11        25        15
        12        12        15        25
        13        13        36        18
        14        14        79        20
        15        15        18        36
        16        16        19         9
        17        17        11         3
        18        18        68        46
        19        19         6        32
        20        20        22        69
        21        21        47        45
        22        22        17        61
        23        23        32        76
        24        24        48        71
        25        25        55        27
        26        26        16        13
        27        27        15        39
        28        28        39        15
        29        29         3         4
        30        30        51         2
        31        31        31        45
        32        32        46         6
        33        33        23        68
        34        34        44        11
        35        35        11        44
        36        36        70        46
        37        37         9        42
        38        38        58        20
        39        39        66        67
        40        40         3        19
        41        41        60        21
        42        42        44        26
        43        43        19         3
        44        44        26        44
        45        45        21        60
        46        46        36        26
        47        47        26        36
        48        48        75        20
        49        49        50        51
        50        50        17        53
        51        51         1        40
        52        52        28        69
        53        53        49        76
        54        54        80        23
        55        55        28        18
        56        56        18        28
        57        57        79        75
        58        58        60        11
        59        59        45        34
        60        60        16        48
        61        61        34        27
        62        62        28        17
        63        63        17        28
        64        64        50        17
        65        65        10        58
        66        66        74        23
        67        67        77        23
        68        68        19        33
        69        69        58        25
        70        70         5        29
        71        71         8        49
        72        72         4        10
        73        73        37        15
        74        74        22        13
        75        75        29        25
        76        76        25        29
        77        77        35        14
        78        78        66        27
        79        79         1        16
        80        80        69        16
        81        81        37        50
        82        82         7        14
        83        83        14         7
        84        84        15        26
        85        85        48        33
        86        86        30        42
        87        87        52         3
        88        88         7         8
        89        89         7        40
        90        90        26        21
        91        91        21        26
        92        92        36        22
        93        93        12        10
        94        94        13        33
        95        95         1        80
        96        96        15        18
        97        97        40        68
        98        98         8        52
        99        99        19         5
       100       100        64         2
       101       101        29        58
       102       102        14        67
       103       103        28         1
       104       104        63        40
       105       105        31        47
       106       106        36        69
       107       107        63        53
       108       108        53        63
       109       109        61        14
       110       110        55        60
       111       111        60        55
       112       112        25        39
       113       113        33        71
       114       114        32        12
       115       115        35         2
       116       116        26        18
       117       117        40        70
       118       118        10        75
       119       119        20        34
       120       120        79        47
       121       121        49        32
       122       122        63        14
       123       123        36        28
       124       124        30         6
       125       125        14        63
       126       126        44        36
       127       127        17        18
       128       128        74        71
       129       129        46        32
       130       130         2        61
       131       131        27        21
       132       132        55        66
       133       133         7        55
       134       134         7        67
       135       135        55         7
       136       136        13        19
       137       137        67         7
       138       138         1        17
       139       139        37        18
       140       140        17         1
       141       141        64        35
       142       142         1        77
       143       143        37        38
       144       144        71        30
       145       145         1        63
       146       146        33        42
       147       147        44        21
       148       148        21        44
       149       149        50         2
       150       150        20        25
       151       151        77        40
       152       152         9        38
       153       153        17         2
       154       154         5        58
       155       155        58         5
       156       156        44        22
       157       157        38        51
       158       158        52         4
       159       159        31        35
       160       160        16        80
       161       161        31        64
       162       162         8        11
       163       163        58        29
       164       164        28        16
