ITEM: TIMESTEP
250
ITEM: NUMBER OF ATOMS
52
ITEM: BOX BOUNDS pp pp pp
-4.8111864914339666e+00 4.8111864914339666e+00
-4.8101266502496225e+00 4.8101266502496225e+00
-1.0000000000000001e-01 1.0000000000000001e-01
ITEM: ATOMS id type xs ys zs
25 1 0.031518 0.0307432 0.500289
43 1 0.129631 0.0792487 0.500886
9 1 0.258397 0.10051 0.500197
7 1 0.396156 0.0220898 0.499302
15 1 0.524841 0.120544 0.500086
44 1 0.624899 0.0469186 0.500679
79 1 0.883757 0.0182318 0.500589
75 1 0.935649 0.0607324 0.498944
50 1 0.087417 0.166719 0.499798
34 1 0.177549 0.211204 0.500017
70 1 0.257382 0.200911 0.499285
16 1 0.376448 0.186761 0.500444
24 1 0.608599 0.245772 0.499922
29 1 0.843547 0.109485 0.499763
17 1 0.967633 0.186543 0.500855
26 1 0.0693244 0.278678 0.500153
59 1 0.269677 0.273012 0.500428
23 1 0.409351 0.305662 0.50011
46 1 0.492033 0.23288 0.50011
4 1 0.749157 0.251935 0.499208
76 1 0.855872 0.21094 0.500014
20 1 0.177614 0.35398 0.500341
31 1 0.560777 0.359797 0.499967
68 1 0.45697 0.380853 0.500069
41 1 0.662185 0.344298 0.500825
66 1 0.740566 0.361096 0.499318
32 1 0.374306 0.424853 0.499247
55 1 0.44116 0.575768 0.500697
1 1 0.51106 0.481461 0.500419
63 1 0.587655 0.550014 0.499868
6 1 0.65576 0.470559 0.499701
2 1 0.809858 0.45608 0.500623
10 1 0.320304 0.568717 0.500235
27 1 0.427479 0.67205 0.500925
60 1 0.524193 0.617941 0.500265
14 1 0.663533 0.62815 0.500156
78 1 0.76357 0.655671 0.500499
19 1 0.845747 0.603665 0.500204
11 1 0.299202 0.726699 0.500248
49 1 0.418275 0.787345 0.500401
12 1 0.543739 0.740293 0.49956
53 1 0.662626 0.747229 0.498669
3 1 0.783363 0.75415 0.500147
21 1 0.339659 0.861249 0.501056
5 1 0.478759 0.896064 0.500117
42 1 0.0379106 0.942162 0.499705
52 1 0.135389 0.976724 0.500061
35 1 0.268139 0.955561 0.498694
67 1 0.4956 0.00933282 0.500427
73 1 0.546468 0.0122036 0.501021
39 1 0.612802 0.941911 0.499572
45 1 0.947495 0.976977 0.499567
ITEM: TIMESTEP
500
ITEM: NUMBER OF ATOMS
52
ITEM: BOX BOUNDS pp pp pp
-4.8099835949707010e+00 4.8099835949707010e+00
-4.8107807401621514e+00 4.8107807401621514e+00
-1.0000000000000001e-01 1.0000000000000001e-01
ITEM: ATOMS id type xs ys zs
25 1 0.0313533 0.0311557 0.500828
43 1 0.12915 0.0796906 0.501131
9 1 0.258362 0.100952 0.498394
7 1 0.396424 0.022125 0.500683
15 1 0.525416 0.120755 0.499511
44 1 0.62573 0.0468978 0.500658
79 1 0.882806 0.018951 0.50163
75 1 0.935359 0.0611215 0.501465
50 1 0.0879185 0.167597 0.498665
34 1 0.177996 0.211318 0.499653
70 1 0.257714 0.201324 0.49886
16 1 0.377574 0.18606 0.499504
24 1 0.608315 0.246053 0.500746
29 1 0.842992 0.110476 0.501936
17 1 0.967513 0.187057 0.50072
26 1 0.0697857 0.279621 0.499446
59 1 0.269542 0.27326 0.501956
23 1 0.409344 0.305522 0.500528
46 1 0.492066 0.232738 0.500261
4 1 0.74876 0.251806 0.498572
76 1 0.856224 0.211777 0.499586
20 1 0.178579 0.35426 0.499482
31 1 0.561112 0.360253 0.499859
68 1 0.456635 0.381024 0.500064
41 1 0.662095 0.344489 0.501202
66 1 0.74016 0.361084 0.499294
32 1 0.375082 0.425269 0.497665
55 1 0.44114 0.576133 0.500544
1 1 0.511598 0.481733 0.500237
63 1 0.587559 0.550268 0.501556
6 1 0.655951 0.471289 0.497936
2 1 0.810322 0.456562 0.502756
10 1 0.319615 0.569118 0.500688
27 1 0.427347 0.672309 0.500087
60 1 0.524279 0.617192 0.500682
14 1 0.664108 0.628481 0.499159
78 1 0.763449 0.655831 0.501636
19 1 0.845946 0.604021 0.501879
11 1 0.298795 0.726102 0.500852
49 1 0.418454 0.787412 0.499874
12 1 0.544 0.740027 0.499762
53 1 0.662306 0.747188 0.498948
3 1 0.783134 0.753853 0.501146
21 1 0.339659 0.861071 0.498921
5 1 0.477537 0.897161 0.500026
42 1 0.0371854 0.942871 0.4999
52 1 0.134648 0.976779 0.499468
35 1 0.268784 0.95594 0.497908
67 1 0.49627 0.00998207 0.49956
73 1 0.547447 0.0124927 0.50054
39 1 0.613192 0.941864 0.501735
45 1 0.946999 0.977389 0.500445
ITEM: TIMESTEP
750
ITEM: NUMBER OF ATOMS
52
ITEM: BOX BOUNDS pp pp pp
-4.8087806985074364e+00 4.8087806985074364e+00
-4.8172221772083512e+00 4.8172221772083512e+00
-1.0000000000000001e-01 1.0000000000000001e-01
ITEM: ATOMS id type xs ys zs
25 1 0.0315321 0.0317282 0.500434
43 1 0.12946 0.0806839 0.50018
9 1 0.259109 0.100538 0.496834
7 1 0.397366 0.0220917 0.501671
15 1 0.5256 0.120638 0.499477
44 1 0.625375 0.046585 0.499136
79 1 0.883138 0.0190391 0.501529
75 1 0.935592 0.0612074 0.500765
50 1 0.0880437 0.168323 0.500119
34 1 0.178491 0.211847 0.50247
70 1 0.258505 0.201348 0.497274
16 1 0.376601 0.186688 0.499541
24 1 0.608416 0.246126 0.500196
29 1 0.843729 0.110187 0.500572
17 1 0.967924 0.187938 0.499737
26 1 0.06997 0.279947 0.499362
59 1 0.271441 0.273053 0.502669
23 1 0.409316 0.305806 0.50034
46 1 0.492097 0.232681 0.499915
4 1 0.749182 0.251605 0.499718
76 1 0.856121 0.211463 0.500939
20 1 0.178861 0.354139 0.500867
31 1 0.561176 0.360441 0.499609
68 1 0.457562 0.380585 0.503072
41 1 0.662756 0.34495 0.500131
66 1 0.741249 0.360905 0.498472
32 1 0.375174 0.425135 0.497732
55 1 0.441891 0.575753 0.500793
1 1 0.510924 0.481505 0.501331
63 1 0.586873 0.550873 0.501743
6 1 0.655891 0.471585 0.498097
2 1 0.81056 0.457242 0.502925
10 1 0.320768 0.569126 0.499736
27 1 0.427609 0.671935 0.498392
60 1 0.524502 0.61748 0.500062
14 1 0.664254 0.628356 0.499725
78 1 0.763689 0.65618 0.5013
19 1 0.84597 0.60516 0.501972
11 1 0.29877 0.726652 0.501791
49 1 0.419372 0.787056 0.499452
12 1 0.544438 0.739349 0.499927
53 1 0.662574 0.747606 0.498624
3 1 0.782866 0.75391 0.502607
21 1 0.341111 0.860812 0.501132
5 1 0.479426 0.895727 0.499425
42 1 0.0376152 0.94344 0.500874
52 1 0.135698 0.97884 0.500336
35 1 0.269466 0.955516 0.497809
67 1 0.496276 0.00940783 0.498351
73 1 0.547012 0.0123108 0.500824
39 1 0.612729 0.941589 0.500261
45 1 0.94727 0.978058 0.502284
ITEM: TIMESTEP
1000
ITEM: NUMBER OF ATOMS
52
ITEM: BOX BOUNDS pp pp pp
-4.8075778020441717e+00 4.8075778020441717e+00
-4.8124177378934041e+00 4.8124177378934041e+00
-1.0000000000000001e-01 1.0000000000000001e-01
ITEM: ATOMS id type xs ys zs
25 1 0.0318286 0.0310487 0.499786
43 1 0.129862 0.0795236 0.50031
9 1 0.25902 0.100799 0.496874
7 1 0.396948 0.0220671 0.502695
15 1 0.525641 0.120479 0.498829
44 1 0.62577 0.0464304 0.498476
79 1 0.883837 0.0194547 0.501026
75 1 0.935916 0.0615951 0.501041
50 1 0.0884263 0.167833 0.50242
34 1 0.178686 0.212264 0.504126
70 1 0.25865 0.200542 0.498191
16 1 0.377384 0.186909 0.499546
24 1 0.608836 0.246098 0.501193
29 1 0.843527 0.111023 0.499786
17 1 0.968447 0.18854 0.499858
26 1 0.0702651 0.279722 0.499854
59 1 0.271433 0.272812 0.503046
23 1 0.410236 0.306152 0.501401
46 1 0.492479 0.233029 0.498524
4 1 0.749072 0.251665 0.499938
76 1 0.856578 0.213319 0.500001
20 1 0.17934 0.354574 0.4978
31 1 0.561173 0.360445 0.49953
68 1 0.457349 0.381568 0.501942
41 1 0.662344 0.344923 0.500224
66 1 0.740861 0.360825 0.498033
32 1 0.374671 0.424946 0.498084
55 1 0.441848 0.57588 0.501178
1 1 0.511488 0.481982 0.499781
63 1 0.587259 0.551235 0.503758
6 1 0.65615 0.471587 0.498542
2 1 0.810205 0.455547 0.503779
10 1 0.320548 0.569278 0.498942
27 1 0.427709 0.671809 0.498844
60 1 0.524415 0.617349 0.498495
14 1 0.66522 0.628202 0.499463
78 1 0.764178 0.656995 0.500762
19 1 0.8449 0.603261 0.50166
11 1 0.299299 0.726346 0.500881
49 1 0.419534 0.787357 0.500172
12 1 0.545062 0.739009 0.501764
53 1 0.663545 0.74704 0.499172
3 1 0.784394 0.754624 0.50273
21 1 0.340191 0.860719 0.499001
5 1 0.479618 0.895292 0.49912
42 1 0.0380028 0.942749 0.500865
52 1 0.135611 0.97737 0.499218
35 1 0.268756 0.955638 0.497951
67 1 0.495984 0.00928519 0.497735
73 1 0.547286 0.0121491 0.499825
39 1 0.613627 0.941551 0.499509
45 1 0.947627 0.977733 0.503258
ITEM: TIMESTEP
1250
ITEM: NUMBER OF ATOMS
52
ITEM: BOX BOUNDS pp pp pp
-4.8063749055809071e+00 4.8063749055809071e+00
-4.8129090205964182e+00 4.8129090205964182e+00
-1.0000000000000001e-01 1.0000000000000001e-01
ITEM: ATOMS id type xs ys zs
25 1 0.032023 0.0314554 0.499501
43 1 0.130135 0.0799944 0.500993
9 1 0.259366 0.100626 0.497004
7 1 0.396799 0.022027 0.501462
15 1 0.526014 0.119696 0.498203
44 1 0.625798 0.0463695 0.497985
79 1 0.883526 0.0186658 0.500734
75 1 0.935674 0.0609654 0.500998
50 1 0.0882261 0.168058 0.503746
34 1 0.179195 0.211201 0.505237
70 1 0.259216 0.200801 0.496769
16 1 0.3777 0.186445 0.498495
24 1 0.607793 0.246952 0.501198
29 1 0.844433 0.110419 0.501895
17 1 0.968002 0.188709 0.502318
26 1 0.0711645 0.279743 0.499422
59 1 0.27211 0.272608 0.505292
23 1 0.410407 0.306133 0.500859
46 1 0.492571 0.23227 0.498329
4 1 0.748977 0.252311 0.502657
76 1 0.856518 0.21188 0.501546
20 1 0.180015 0.353871 0.499342
31 1 0.560821 0.361136 0.499003
68 1 0.457103 0.382378 0.503401
41 1 0.661917 0.345042 0.499816
66 1 0.740558 0.361681 0.4988
32 1 0.373977 0.425514 0.497142
55 1 0.441524 0.576414 0.501388
1 1 0.511672 0.482432 0.499332
63 1 0.588038 0.550901 0.503382
6 1 0.656692 0.471659 0.496802
2 1 0.810237 0.456446 0.506297
10 1 0.320341 0.568673 0.500313
27 1 0.427617 0.672333 0.497584
60 1 0.523843 0.61784 0.49691
14 1 0.665015 0.628584 0.499154
78 1 0.764386 0.655773 0.501336
19 1 0.846242 0.603679 0.499692
11 1 0.29863 0.7263 0.501978
49 1 0.419195 0.787046 0.498582
12 1 0.544635 0.739618 0.501247
53 1 0.663274 0.747392 0.499299
3 1 0.784923 0.753691 0.503225
21 1 0.340821 0.861346 0.497057
5 1 0.480005 0.8959 0.50025
42 1 0.0382876 0.942896 0.500505
52 1 0.135767 0.977461 0.49915
35 1 0.268825 0.955814 0.498047
67 1 0.496304 0.0082155 0.497649
73 1 0.547437 0.011416 0.498482
39 1 0.614443 0.941216 0.498471
45 1 0.947766 0.977533 0.502866
ITEM: TIMESTEP
1500
ITEM: NUMBER OF ATOMS
52
ITEM: BOX BOUNDS pp pp pp
-4.8051720091176415e+00 4.8051720091176415e+00
-4.8086556856681888e+00 4.8086556856681888e+00
-1.0000000000000001e-01 1.0000000000000001e-01
ITEM: ATOMS id type xs ys zs
25 1 0.0320774 0.0305028 0.500357
43 1 0.129826 0.0789811 0.500488
9 1 0.258605 0.100792 0.493985
7 1 0.396225 0.0214686 0.501779
15 1 0.525037 0.120501 0.4969
44 1 0.625466 0.0467306 0.498307
79 1 0.883722 0.0184676 0.501129
75 1 0.935736 0.0605091 0.499697
50 1 0.0886419 0.167582 0.505798
34 1 0.178299 0.211951 0.503255
70 1 0.257945 0.201168 0.497236
16 1 0.377005 0.186547 0.499157
24 1 0.608885 0.246687 0.50036
29 1 0.843851 0.109183 0.500424
17 1 0.96839 0.187244 0.50077
26 1 0.0698008 0.279433 0.500163
59 1 0.271628 0.272782 0.503878
23 1 0.410288 0.306172 0.502202
46 1 0.491958 0.232735 0.498952
4 1 0.749884 0.251717 0.502412
76 1 0.857414 0.211183 0.501882
20 1 0.179186 0.35399 0.503338
31 1 0.561882 0.360127 0.499882
68 1 0.457246 0.381621 0.50412
41 1 0.662445 0.344569 0.50102
66 1 0.740759 0.361409 0.498048
32 1 0.374472 0.425639 0.496541
55 1 0.441909 0.576299 0.502286
1 1 0.511861 0.481715 0.499353
63 1 0.587193 0.551129 0.50436
6 1 0.655917 0.471843 0.49725
2 1 0.810664 0.456073 0.506436
10 1 0.320717 0.568323 0.499965
27 1 0.427582 0.672107 0.497911
60 1 0.524193 0.618293 0.499175
14 1 0.66438 0.628815 0.499593
78 1 0.764461 0.655059 0.501856
19 1 0.847055 0.604121 0.499535
11 1 0.299012 0.725505 0.501709
49 1 0.418582 0.787355 0.499971
12 1 0.544109 0.740595 0.499744
53 1 0.662383 0.747993 0.499655
3 1 0.783201 0.753271 0.504252
21 1 0.339925 0.860752 0.496192
5 1 0.478505 0.897215 0.50014
42 1 0.0376035 0.942272 0.501002
52 1 0.135691 0.976567 0.501054
35 1 0.267888 0.955675 0.498049
67 1 0.496005 0.00869786 0.497328
73 1 0.547151 0.0115422 0.49856
39 1 0.613441 0.941444 0.499924
45 1 0.947505 0.976842 0.500894
ITEM: TIMESTEP
1750
ITEM: NUMBER OF ATOMS
52
ITEM: BOX BOUNDS pp pp pp
-4.8039691126543769e+00 4.8039691126543769e+00
-4.8090103786853806e+00 4.8090103786853806e+00
-1.0000000000000001e-01 1.0000000000000001e-01
ITEM: ATOMS id type xs ys zs
25 1 0.0314199 0.0305272 0.499515
43 1 0.12963 0.0792034 0.499562
9 1 0.258843 0.100866 0.495085
7 1 0.396581 0.0207027 0.502531
15 1 0.525868 0.120353 0.496091
44 1 0.625821 0.0452935 0.498706
79 1 0.883319 0.0172274 0.502211
75 1 0.935019 0.0597778 0.498741
50 1 0.0878912 0.167763 0.505724
34 1 0.178349 0.211934 0.50531
70 1 0.257747 0.201695 0.497338
16 1 0.377559 0.186572 0.495344
24 1 0.608578 0.246541 0.50128
29 1 0.844544 0.108887 0.502137
17 1 0.967656 0.187973 0.501119
26 1 0.0702633 0.279824 0.50062
59 1 0.271141 0.273587 0.506244
23 1 0.409358 0.306327 0.502679
46 1 0.492294 0.233358 0.499198
4 1 0.749167 0.252598 0.503851
76 1 0.855703 0.210617 0.501448
20 1 0.178696 0.354819 0.504301
31 1 0.56089 0.360594 0.501263
68 1 0.456531 0.382131 0.505019
41 1 0.662102 0.344821 0.500356
66 1 0.739833 0.361714 0.499246
32 1 0.374064 0.426049 0.495838
55 1 0.441265 0.57614 0.502383
1 1 0.511478 0.482436 0.497812
63 1 0.58805 0.550573 0.504595
6 1 0.656078 0.471346 0.497475
2 1 0.810494 0.456571 0.505654
10 1 0.320128 0.568902 0.499899
27 1 0.42713 0.67246 0.496338
60 1 0.524282 0.617953 0.500668
14 1 0.664014 0.628465 0.499992
78 1 0.764021 0.655145 0.502458
19 1 0.846397 0.603937 0.499993
11 1 0.298368 0.726941 0.50308
49 1 0.418153 0.787459 0.5008
12 1 0.543703 0.739728 0.500496
53 1 0.661957 0.747207 0.500014
3 1 0.782648 0.753185 0.504678
21 1 0.339818 0.861131 0.4973
5 1 0.478806 0.895347 0.50107
42 1 0.0378311 0.941915 0.500331
52 1 0.135365 0.977029 0.500722
35 1 0.268012 0.955911 0.498504
67 1 0.496044 0.00917043 0.497933
73 1 0.54721 0.0114681 0.500694
39 1 0.612885 0.940031 0.498628
45 1 0.947299 0.976395 0.50137
ITEM: TIMESTEP
2000
ITEM: NUMBER OF ATOMS
52
ITEM: BOX BOUNDS pp pp pp
-4.8027662161911122e+00 4.8027662161911122e+00
-4.8063856737582311e+00 4.8063856737582311e+00
-1.0000000000000001e-01 1.0000000000000001e-01
ITEM: ATOMS id type xs ys zs
25 1 0.0309635 0.0300779 0.498693
43 1 0.128307 0.0802522 0.499295
9 1 0.258234 0.100488 0.494637
7 1 0.396479 0.0208529 0.503189
15 1 0.525752 0.12005 0.495772
44 1 0.625836 0.0465292 0.497355
79 1 0.882765 0.0153821 0.501342
75 1 0.934362 0.0583348 0.500174
50 1 0.0885766 0.169068 0.503589
34 1 0.179069 0.212445 0.507065
70 1 0.258509 0.201404 0.497977
16 1 0.377218 0.185332 0.494546
24 1 0.608752 0.246485 0.501565
29 1 0.84653 0.108325 0.499936
17 1 0.968406 0.188707 0.500647
26 1 0.0704706 0.28081 0.502885
59 1 0.271933 0.273327 0.506026
23 1 0.409113 0.305163 0.501439
46 1 0.492033 0.232521 0.499133
4 1 0.749114 0.252891 0.503694
76 1 0.856025 0.210671 0.502417
20 1 0.179639 0.355289 0.505015
31 1 0.56104 0.360437 0.499707
68 1 0.45632 0.381138 0.504891
41 1 0.662523 0.345054 0.502087
66 1 0.740582 0.362278 0.498051
32 1 0.373432 0.42496 0.494794
55 1 0.441165 0.576556 0.500922
1 1 0.510547 0.482279 0.497079
63 1 0.587193 0.551662 0.504484
6 1 0.655577 0.471601 0.49795
2 1 0.810235 0.45772 0.506407
10 1 0.3196 0.569374 0.49955
27 1 0.42757 0.672721 0.495372
60 1 0.524874 0.61796 0.499817
14 1 0.664532 0.628477 0.500436
78 1 0.764591 0.655956 0.501742
19 1 0.847287 0.604727 0.499846
11 1 0.299196 0.726861 0.503328
49 1 0.418718 0.788151 0.501319
12 1 0.544677 0.740347 0.49997
53 1 0.662863 0.747362 0.501952
3 1 0.783918 0.754661 0.504753
21 1 0.339399 0.861201 0.499224
5 1 0.47864 0.897245 0.501779
42 1 0.0386792 0.941839 0.501526
52 1 0.135776 0.977659 0.501412
35 1 0.267417 0.955556 0.498916
67 1 0.495825 0.0088924 0.497893
73 1 0.547219 0.011477 0.49912
39 1 0.614025 0.941096 0.498105
45 1 0.947241 0.974765 0.499276
ITEM: TIMESTEP
2250
ITEM: NUMBER OF ATOMS
52
ITEM: BOX BOUNDS pp pp pp
-4.8015633197278467e+00 4.8015633197278467e+00
-4.8087417117025444e+00 4.8087417117025444e+00
-1.0000000000000001e-01 1.0000000000000001e-01
ITEM: ATOMS id type xs ys zs
25 1 0.0310551 0.0304713 0.498251
43 1 0.127867 0.0801437 0.499932
9 1 0.257463 0.100993 0.494918
7 1 0.395938 0.0211939 0.501902
15 1 0.524681 0.119872 0.493892
44 1 0.625445 0.0461798 0.496929
79 1 0.882926 0.0151362 0.502267
75 1 0.934022 0.0585163 0.500565
50 1 0.0885977 0.16901 0.502723
34 1 0.178682 0.212948 0.506266
70 1 0.258296 0.201344 0.498001
16 1 0.376299 0.186675 0.494238
24 1 0.609054 0.246479 0.503318
29 1 0.845685 0.107794 0.500674
17 1 0.968054 0.190282 0.499832
26 1 0.0711329 0.281054 0.502953
59 1 0.272158 0.273167 0.504458
23 1 0.408987 0.305957 0.502447
46 1 0.492235 0.232721 0.49913
4 1 0.749675 0.253651 0.503556
76 1 0.855448 0.20993 0.504692
20 1 0.180878 0.354841 0.505115
31 1 0.56088 0.359937 0.499335
68 1 0.456521 0.38131 0.505201
41 1 0.661993 0.345165 0.501241
66 1 0.740032 0.362213 0.49799
32 1 0.374113 0.425551 0.496119
55 1 0.44095 0.576236 0.501742
1 1 0.511249 0.48184 0.496526
63 1 0.587314 0.55108 0.503444
6 1 0.655754 0.471492 0.498495
2 1 0.810281 0.456811 0.505437
10 1 0.319424 0.569657 0.501084
27 1 0.426969 0.672326 0.495919
60 1 0.524197 0.617633 0.499055
14 1 0.664224 0.627946 0.500005
78 1 0.764185 0.656761 0.50121
19 1 0.846511 0.605147 0.498339
11 1 0.299516 0.727183 0.505815
49 1 0.419259 0.787943 0.501986
12 1 0.544304 0.739357 0.499883
53 1 0.662798 0.747095 0.499791
3 1 0.783796 0.75465 0.50492
21 1 0.340282 0.861976 0.498061
5 1 0.477772 0.898046 0.501075
42 1 0.0385511 0.942056 0.500226
52 1 0.136047 0.977962 0.501489
35 1 0.266855 0.956373 0.500083
67 1 0.495609 0.00904977 0.498049
73 1 0.546599 0.0112205 0.499938
39 1 0.613373 0.941248 0.496633
45 1 0.947585 0.975167 0.497575
ITEM: TIMESTEP
2500
ITEM: NUMBER OF ATOMS
52
ITEM: BOX BOUNDS pp pp pp
-4.8003604232645820e+00 4.8003604232645820e+00
-4.8211878242373958e+00 4.8211878242373958e+00
-1.0000000000000001e-01 1.0000000000000001e-01
ITEM: ATOMS id type xs ys zs
25 1 0.0318291 0.0292435 0.497345
43 1 0.128397 0.079955 0.500549
9 1 0.258123 0.101027 0.492514
7 1 0.396478 0.0215411 0.50364
15 1 0.524842 0.119534 0.495152
44 1 0.626404 0.046232 0.498969
79 1 0.88328 0.0144736 0.504022
75 1 0.934935 0.0575885 0.499762
50 1 0.0877428 0.168904 0.500792
34 1 0.178039 0.212727 0.506929
70 1 0.257501 0.201659 0.496953
16 1 0.376931 0.186615 0.495361
24 1 0.608287 0.247286 0.503419
29 1 0.848261 0.107395 0.500913
17 1 0.967666 0.190852 0.498408
26 1 0.0704231 0.281187 0.502454
59 1 0.27122 0.273324 0.507402
23 1 0.410046 0.305705 0.50167
46 1 0.492092 0.231958 0.497963
4 1 0.749042 0.253021 0.504542
76 1 0.854734 0.209241 0.504915
20 1 0.179561 0.355701 0.505682
31 1 0.560869 0.360947 0.50031
68 1 0.45713 0.381719 0.506121
41 1 0.662652 0.34544 0.501542
66 1 0.740867 0.362187 0.49898
32 1 0.373418 0.424951 0.494912
55 1 0.440645 0.576808 0.500197
1 1 0.51038 0.482553 0.494703
63 1 0.586964 0.550918 0.504415
6 1 0.655922 0.471968 0.499641
2 1 0.810206 0.457381 0.506515
10 1 0.319287 0.570743 0.501374
27 1 0.427064 0.672554 0.495444
60 1 0.524173 0.618274 0.499334
14 1 0.663539 0.628581 0.499708
78 1 0.762888 0.65732 0.502112
19 1 0.845183 0.605064 0.499974
11 1 0.298779 0.727371 0.506356
49 1 0.418779 0.787175 0.501451
12 1 0.544597 0.740398 0.499213
53 1 0.662906 0.748198 0.498256
3 1 0.784164 0.754879 0.502326
21 1 0.339916 0.861783 0.498095
5 1 0.478658 0.895764 0.500802
42 1 0.0390566 0.941372 0.500987
52 1 0.137136 0.977654 0.499524
35 1 0.267767 0.956601 0.500169
67 1 0.495868 0.00876938 0.496363
73 1 0.547194 0.0118136 0.500234
39 1 0.612957 0.941248 0.495348
45 1 0.948059 0.974254 0.496569
ITEM: TIMESTEP
2750
ITEM: NUMBER OF ATOMS
52
ITEM: BOX BOUNDS pp pp pp
-4.7991575268013174e+00 4.7991575268013174e+00
-4.8124503659495153e+00 4.8124503659495153e+00
-1.0000000000000001e-01 1.0000000000000001e-01
ITEM: ATOMS id type xs ys zs
25 1 0.0316088 0.0289491 0.496954
43 1 0.128496 0.079926 0.499939
9 1 0.257875 0.101009 0.492576
7 1 0.395863 0.0208469 0.503567
15 1 0.5252 0.119534 0.4955
44 1 0.625459 0.0454436 0.497742
79 1 0.883222 0.0132331 0.504095
75 1 0.934256 0.0569872 0.500809
50 1 0.0877256 0.168215 0.500711
34 1 0.178585 0.212404 0.504875
70 1 0.258299 0.201408 0.49704
16 1 0.377455 0.185787 0.494362
24 1 0.60859 0.247139 0.504404
29 1 0.846956 0.106004 0.501128
17 1 0.967639 0.190018 0.498209
26 1 0.0711841 0.280329 0.501022
59 1 0.271297 0.273183 0.506311
23 1 0.409813 0.305394 0.502139
46 1 0.492261 0.232244 0.49775
4 1 0.749118 0.252592 0.504506
76 1 0.855118 0.208247 0.507591
20 1 0.17975 0.354687 0.505867
31 1 0.560449 0.360937 0.500086
68 1 0.457004 0.381413 0.507568
41 1 0.662334 0.345897 0.500563
66 1 0.741275 0.36185 0.498587
32 1 0.374411 0.425058 0.494221
55 1 0.440507 0.576296 0.502808
1 1 0.511117 0.481661 0.496758
63 1 0.586819 0.551429 0.503642
6 1 0.655943 0.472189 0.499121
2 1 0.811076 0.456642 0.506053
10 1 0.318578 0.569414 0.502031
27 1 0.42707 0.671928 0.49469
60 1 0.524035 0.618132 0.49981
14 1 0.663957 0.628794 0.499926
78 1 0.763102 0.657352 0.500595
19 1 0.844964 0.604434 0.500014
11 1 0.297873 0.726718 0.507478
49 1 0.417738 0.787213 0.501363
12 1 0.543291 0.740469 0.498264
53 1 0.661954 0.747361 0.497018
3 1 0.783607 0.75461 0.500302
21 1 0.338866 0.86136 0.497324
5 1 0.47791 0.896011 0.499588
42 1 0.0394611 0.940932 0.500701
52 1 0.136583 0.977699 0.49893
35 1 0.266281 0.956486 0.500464
67 1 0.495495 0.0086794 0.495334
73 1 0.546647 0.0115376 0.501863
39 1 0.612564 0.940144 0.495629
45 1 0.948385 0.973872 0.494224
ITEM: TIMESTEP
3000
ITEM: NUMBER OF ATOMS
52
ITEM: BOX BOUNDS pp pp pp
-4.7979546303380518e+00 4.7979546303380518e+00
-4.8203415692191909e+00 4.8203415692191909e+00
-1.0000000000000001e-01 1.0000000000000001e-01
ITEM: ATOMS id type xs ys zs
25 1 0.0305809 0.0297667 0.497906
43 1 0.127621 0.0794846 0.499713
9 1 0.256915 0.100937 0.491467
7 1 0.394846 0.0215845 0.503621
15 1 0.524474 0.119677 0.494779
44 1 0.624331 0.0460271 0.498635
79 1 0.882229 0.012808 0.503981
75 1 0.933292 0.0565644 0.499494
50 1 0.0880332 0.168311 0.50132
34 1 0.178387 0.212333 0.505128
70 1 0.258038 0.201149 0.498738
16 1 0.375762 0.186291 0.494468
24 1 0.607635 0.247558 0.504307
29 1 0.846996 0.105593 0.500285
17 1 0.96738 0.189236 0.497328
26 1 0.0706773 0.280138 0.503052
59 1 0.271023 0.272826 0.505438
23 1 0.409884 0.305874 0.501148
46 1 0.491333 0.231718 0.497897
4 1 0.748322 0.25181 0.50484
76 1 0.854385 0.207622 0.509567
20 1 0.179815 0.354812 0.505941
31 1 0.561074 0.361174 0.499257
68 1 0.45663 0.382131 0.508195
41 1 0.66207 0.345719 0.50027
66 1 0.741025 0.360718 0.500425
32 1 0.373262 0.425358 0.493049
55 1 0.440989 0.576212 0.504368
1 1 0.510732 0.482073 0.496487
63 1 0.587102 0.550553 0.503665
6 1 0.65619 0.471835 0.499787
2 1 0.810523 0.456509 0.506206
10 1 0.319307 0.569457 0.501794
27 1 0.42703 0.672178 0.495027
60 1 0.524198 0.617615 0.49977
14 1 0.663266 0.628815 0.500987
78 1 0.763325 0.655674 0.500672
19 1 0.845862 0.604079 0.500627
11 1 0.299018 0.726236 0.505846
49 1 0.418001 0.787514 0.500942
12 1 0.543463 0.739691 0.497902
53 1 0.662395 0.747502 0.496696
3 1 0.782745 0.753799 0.500581
21 1 0.33884 0.860924 0.497169
5 1 0.477792 0.896345 0.500329
42 1 0.03872 0.941705 0.499925
52 1 0.135884 0.977868 0.499922
35 1 0.265924 0.955976 0.499959
67 1 0.494382 0.0088152 0.494339
73 1 0.545649 0.0115727 0.500503
39 1 0.612151 0.941161 0.496213
45 1 0.947458 0.973605 0.493388
ITEM: TIMESTEP
3250
ITEM: NUMBER OF ATOMS
52
ITEM: BOX BOUNDS pp pp pp
-4.7967517338747871e+00 4.7967517338747871e+00
-4.8187533722779952e+00 4.8187533722779952e+00
-1.0000000000000001e-01 1.0000000000000001e-01
ITEM: ATOMS id type xs ys zs
25 1 0.0303348 0.0291642 0.498767
43 1 0.127829 0.0796948 0.498347
9 1 0.257391 0.100456 0.491457
7 1 0.395192 0.0220969 0.502903
15 1 0.524258 0.120027 0.495356
44 1 0.624813 0.0464914 0.499445
79 1 0.881731 0.0125244 0.503522
75 1 0.932717 0.0564404 0.500598
50 1 0.0872011 0.167806 0.501071
34 1 0.177675 0.211966 0.503466
70 1 0.257643 0.201187 0.498212
16 1 0.375713 0.186878 0.495279
24 1 0.608148 0.246196 0.504631
29 1 0.845905 0.105524 0.501805
17 1 0.966973 0.188997 0.49779
26 1 0.0696131 0.279954 0.502699
59 1 0.270992 0.27292 0.507489
23 1 0.408119 0.30606 0.502238
46 1 0.491227 0.233001 0.499324
4 1 0.748373 0.2519 0.505797
76 1 0.854462 0.2075 0.509277
20 1 0.179164 0.354033 0.507049
31 1 0.559686 0.359686 0.499372
68 1 0.455496 0.381635 0.508672
41 1 0.661139 0.344893 0.499277
66 1 0.739685 0.360656 0.499331
32 1 0.373246 0.425558 0.49286
55 1 0.440784 0.576274 0.506195
1 1 0.510618 0.481396 0.49678
63 1 0.586708 0.550706 0.501172
6 1 0.654948 0.471286 0.496744
2 1 0.808202 0.45682 0.506308
10 1 0.31929 0.569747 0.501768
27 1 0.426794 0.672857 0.494879
60 1 0.523763 0.619166 0.500635
14 1 0.664125 0.62831 0.501442
78 1 0.763701 0.655001 0.500702
19 1 0.846268 0.603447 0.499217
11 1 0.298272 0.72699 0.505121
49 1 0.417588 0.787861 0.502417
12 1 0.54352 0.740772 0.49835
53 1 0.662581 0.747682 0.494912
3 1 0.783729 0.752644 0.498361
21 1 0.338824 0.861566 0.497513
5 1 0.476704 0.896848 0.500807
42 1 0.0385544 0.941288 0.498528
52 1 0.135864 0.977551 0.500536
35 1 0.26727 0.955865 0.498943
67 1 0.494721 0.00886512 0.49433
73 1 0.545928 0.0114258 0.499772
39 1 0.612025 0.941105 0.494658
45 1 0.947288 0.973684 0.492032
ITEM: TIMESTEP
3500
ITEM: NUMBER OF ATOMS
52
ITEM: BOX BOUNDS pp pp pp
-4.7955488374115225e+00 4.7955488374115225e+00
-4.8101025311615393e+00 4.8101025311615393e+00
-1.0000000000000001e-01 1.0000000000000001e-01
ITEM: ATOMS id type xs ys zs
25 1 0.0296015 0.0290134 0.499801
43 1 0.126752 0.0795219 0.499625
9 1 0.256176 0.10017 0.4921
7 1 0.394949 0.0210762 0.502913
15 1 0.523683 0.12046 0.4949
44 1 0.624732 0.0473619 0.499836
79 1 0.881144 0.0132936 0.503303
75 1 0.932378 0.056755 0.499707
50 1 0.0871249 0.16815 0.501499
34 1 0.176897 0.21277 0.50512
70 1 0.256223 0.20086 0.498784
16 1 0.375367 0.186347 0.496204
24 1 0.607641 0.246784 0.505888
29 1 0.844648 0.105674 0.502723
17 1 0.96672 0.188682 0.49883
26 1 0.0687041 0.280176 0.502509
59 1 0.270104 0.272718 0.506141
23 1 0.407707 0.306331 0.503645
46 1 0.490651 0.233183 0.499341
4 1 0.748327 0.253425 0.506345
76 1 0.853825 0.207737 0.508724
20 1 0.178441 0.354506 0.506241
31 1 0.559082 0.360502 0.49917
68 1 0.455684 0.381529 0.509103
41 1 0.660838 0.345372 0.500725
66 1 0.739138 0.362425 0.500605
32 1 0.373045 0.425549 0.493098
55 1 0.440691 0.576938 0.505997
1 1 0.510169 0.482088 0.495956
63 1 0.586772 0.550921 0.500811
6 1 0.654997 0.471731 0.498873
2 1 0.809354 0.457321 0.506456
10 1 0.318508 0.570899 0.503195
27 1 0.426495 0.67315 0.494227
60 1 0.52367 0.618841 0.500628
14 1 0.663814 0.628791 0.501939
78 1 0.764255 0.654903 0.49996
19 1 0.847784 0.604472 0.499026
11 1 0.298339 0.727949 0.505573
49 1 0.417942 0.788331 0.501463
12 1 0.543482 0.741148 0.499401
53 1 0.662271 0.747552 0.495643
3 1 0.782905 0.753449 0.499656
21 1 0.339296 0.862647 0.498177
5 1 0.478556 0.896724 0.501909
42 1 0.0375479 0.940722 0.496879
52 1 0.13497 0.977596 0.50057
35 1 0.266084 0.955982 0.499885
67 1 0.494342 0.00911732 0.493518
73 1 0.545498 0.0118401 0.49874
39 1 0.612969 0.942156 0.492898
45 1 0.946431 0.973679 0.491956
ITEM: TIMESTEP
3750
ITEM: NUMBER OF ATOMS
52
ITEM: BOX BOUNDS pp pp pp
-4.7943459409482569e+00 4.7943459409482569e+00
-4.8191505447352698e+00 4.8191505447352698e+00
-1.0000000000000001e-01 1.0000000000000001e-01
ITEM: ATOMS id type xs ys zs
25 1 0.0292711 0.0292723 0.500536
43 1 0.126976 0.0791885 0.501099
9 1 0.256739 0.100461 0.492724
7 1 0.394669 0.0215811 0.503327
15 1 0.523122 0.120074 0.495521
44 1 0.624403 0.047916 0.498374
79 1 0.880407 0.0124138 0.504017
75 1 0.931744 0.0561495 0.500555
50 1 0.0871561 0.168046 0.502002
34 1 0.177628 0.212135 0.504714
70 1 0.257825 0.201318 0.498247
16 1 0.374984 0.18672 0.495473
24 1 0.607168 0.246597 0.506894
29 1 0.845782 0.105871 0.502117
17 1 0.96685 0.18777 0.500016
26 1 0.0685824 0.2799 0.50172
59 1 0.270643 0.273272 0.505919
23 1 0.407924 0.305559 0.503151
46 1 0.490406 0.232141 0.49951
4 1 0.748134 0.252418 0.504607
76 1 0.853808 0.20742 0.507714
20 1 0.177869 0.354273 0.505712
31 1 0.560331 0.361038 0.500031
68 1 0.455241 0.381529 0.508789
41 1 0.661851 0.344885 0.502081
66 1 0.740278 0.361487 0.49931
32 1 0.372434 0.425428 0.492674
55 1 0.440685 0.576798 0.505529
1 1 0.509981 0.481822 0.494425
63 1 0.586832 0.550231 0.498574
6 1 0.65572 0.47103 0.500547
2 1 0.808601 0.45733 0.506309
10 1 0.319074 0.569559 0.50438
27 1 0.426524 0.673126 0.495918
60 1 0.523328 0.618639 0.50016
14 1 0.664627 0.627697 0.500001
78 1 0.764836 0.654467 0.499149
19 1 0.848086 0.604169 0.501321
11 1 0.297983 0.72672 0.50589
49 1 0.418459 0.788179 0.501582
12 1 0.544139 0.740125 0.498843
53 1 0.662673 0.746663 0.496032
3 1 0.78379 0.752874 0.499365
21 1 0.338961 0.861599 0.4973
5 1 0.478399 0.89714 0.503414
42 1 0.0376533 0.941182 0.496468
52 1 0.134309 0.977158 0.498211
35 1 0.266429 0.955971 0.499566
67 1 0.494609 0.00815284 0.492625
73 1 0.546083 0.0125604 0.498688
39 1 0.613282 0.942827 0.492347
45 1 0.946007 0.973228 0.492216
ITEM: TIMESTEP
4000
ITEM: NUMBER OF ATOMS
52
ITEM: BOX BOUNDS pp pp pp
-4.7931430444849923e+00 4.7931430444849923e+00
-4.8058756334959734e+00 4.8058756334959734e+00
-1.0000000000000001e-01 1.0000000000000001e-01
ITEM: ATOMS id type xs ys zs
25 1 0.0296566 0.0274822 0.498985
43 1 0.12657 0.0786726 0.501052
9 1 0.256124 0.101134 0.492914
7 1 0.395011 0.0219003 0.503521
15 1 0.5235 0.121104 0.495754
44 1 0.624488 0.0474694 0.499593
79 1 0.880926 0.0121687 0.504154
75 1 0.932503 0.0553325 0.499792
50 1 0.0865572 0.167683 0.502348
34 1 0.177244 0.212979 0.505393
70 1 0.256965 0.20162 0.498732
16 1 0.374687 0.187425 0.496959
24 1 0.606648 0.247014 0.507243
29 1 0.845234 0.105401 0.503594
17 1 0.966503 0.188318 0.499938
26 1 0.0692773 0.279861 0.500293
59 1 0.27097 0.273373 0.503985
23 1 0.40663 0.307291 0.504488
46 1 0.489938 0.234145 0.498704
4 1 0.747647 0.250765 0.507107
76 1 0.853936 0.20787 0.509078
20 1 0.177927 0.354909 0.504901
31 1 0.560275 0.36069 0.500502
68 1 0.454832 0.382049 0.509653
41 1 0.661925 0.344925 0.501187
66 1 0.740587 0.360248 0.49821
32 1 0.372766 0.426687 0.490899
55 1 0.439801 0.576085 0.50491
1 1 0.510811 0.48214 0.49264
63 1 0.58753 0.550553 0.496963
6 1 0.656023 0.471297 0.501947
2 1 0.811243 0.455706 0.507461
10 1 0.318182 0.56991 0.503729
27 1 0.426302 0.672204 0.496018
60 1 0.523425 0.617633 0.499729
14 1 0.665312 0.627721 0.500848
78 1 0.765325 0.655373 0.499818
19 1 0.848031 0.6041 0.500217
11 1 0.298298 0.726964 0.506801
49 1 0.418467 0.787447 0.500604
12 1 0.544519 0.739436 0.499524
53 1 0.6642 0.746836 0.495155
3 1 0.785187 0.753467 0.499226