LAMMPS (23 Jun 2022 - Update 4)
  using 1 OpenMP thread(s) per MPI task
# Compute elastic constant tensor for a crystal
#
# Written by Aidan Thompson (Sandia, athomps@sandia.gov)
#
#  This script uses the following three include files.
#
#   init.mod      (must be modified for different crystal structures)
# 	       	  Define units, deformation parameters and initial
#		  configuration of the atoms and simulation cell.
#
#
#   potential.mod    (must be modified for different pair styles)
# 		     Define pair style and other attributes
#		     not stored in restart file
#
#
#   displace.mod    (displace.mod should not need to be modified)
# 		    Perform positive and negative box displacements
# 		    in direction ${dir} and size ${up}.
# 		    It uses the resultant changes
#		    in stress to compute one
# 		    row of the elastic stiffness tensor
#
#		    Inputs variables:
#		    	   dir = the Voigt deformation component
#		    		    (1,2,3,4,5,6)
#		    Global constants:
#       	    	   up = the deformation magnitude (strain units)
#       		   cfac = conversion from LAMMPS pressure units to
#               	   output units for elastic constants
#
#
#  To run this on a different system, it should only be necessary to
#  modify the files init.mod and potential.mod. In order to calculate
#  the elastic constants correctly, care must be taken to specify
#  the correct units in init.mod (units, cfac and cunits). It is also
#  important to verify that the minimization of energy w.r.t atom
#  positions in the deformed cell is fully converged.
#  One indication of this is that the elastic constants are insensitive
#  to the choice of the variable ${up} in init.mod. Another is to check
#  the final max and two-norm forces reported in the log file. If you know
#  that minimization is not required, you can set maxiter = 0.0 in
#  init.mod.
#



variable dt equal 0.01
variable strain equal 0.05
variable srate equal 1e-4
variable M equal 1000 # averaging time for properties
variable strainsteps equal ${strain}/${dt}/${srate}
variable strainsteps equal 0.05/${dt}/${srate}
variable strainsteps equal 0.05/0.01/${srate}
variable strainsteps equal 0.05/0.01/0.0001


dimension 2
include init.mod
# NOTE: This script can be modified for different atomic structures,
# units, etc. See in.elastic for more info.
#

# Define the finite deformation size. Try several values of this
# variable to verify that results do not depend on it.
variable up equal 1.0e-1

# Define the amount of random jiggle for atoms
# This prevents atoms from staying on saddle points
variable atomjiggle equal 1.0e-6

# Uncomment one of these blocks, depending on what units
# you are using in LAMMPS and for output

# metal units, elastic constants in eV/A^3
#units		metal
#variable cfac equal 6.2414e-7
#variable cunits string eV/A^3

# Choose potential
# metal units, elastic constants in GPa
units		metal
atom_style	full
#pair_style      lj/cut 1.0
#pair_style      yukawa 1.0 2.0
#pair_modify     mix arithmetic
bond_style      harmonic
angle_style     harmonic
dihedral_style  zero
special_bonds   amber
variable cfac equal 1.0e-4
variable cunits string GPa
boundary	p p p

# Need to set mass to something, just to satisfy LAMMPS
#mass 1 1.0e-20
read_data network.lmp
Reading data file ...
  orthogonal box = (-4.811586 -4.811586 -0.1) to (4.811586 4.811586 0.1)
  1 by 1 by 1 MPI processor grid
WARNING: Atom style in data file differs from currently defined atom style (src/read_data.cpp:538)
  reading atoms ...
  52 atoms
WARNING: Bond style in data file differs from currently defined bond style (src/read_data.cpp:630)
  scanning bonds ...
  5 = max bonds/atom
  reading bonds ...
  115 bonds
Finding 1-2 1-3 1-4 neighbors ...
  special bond factors lj:    0        0        0.5     
  special bond factors coul:  0        0        0.8333333333333334
     9 = max # of 1-2 neighbors
    42 = max # of 1-3 neighbors
   262 = max # of 1-4 neighbors
    29 = max # of special neighbors
  special bonds CPU = 0.000 seconds
  read_data CPU = 0.003 seconds

# real units, elastic constants in GPa
#units		real
#variable cfac equal 1.01325e-4
#variable cunits string GPa

# Define minimization parameters
variable etol equal 0.0
variable ftol equal 5.0e-10
variable maxiter equal 100000
variable maxeval equal 20000
variable dmax equal 1.0e-2


include potential.mod
# NOTE: This script can be modified for different pair styles
# See in.elastic for more info.

# Setup neighbor style
neighbor 3.0 nsq
neigh_modify once no every 1 delay 0 check yes
comm_modify cutoff 2.0

# Setup minimization style
min_style	     cg
min_modify	     dmax ${dmax} line quadratic
min_modify	     dmax 0.01 line quadratic

timestep	0.001


# Setup output
thermo		500
thermo_style custom step temp pe ebond eangle edihed press pxx pyy pzz pxy pxz pyz lx ly lz vol
thermo_modify norm no


#change_box all triclinic
comm_modify mode single cutoff 10.0 vel yes
atom_modify sort 0 0



# Compute initial state

#dump rela all atom 1 traj_relax.lmpstrj
fix 3 all box/relax x 0 y 0 # xy 0  #MS comment: relax if the network is periodic
minimize ${etol} ${ftol} ${maxiter} ${maxeval}
minimize 0 ${ftol} ${maxiter} ${maxeval}
minimize 0 5e-10 ${maxiter} ${maxeval}
minimize 0 5e-10 100000 ${maxeval}
minimize 0 5e-10 100000 20000
Neighbor list info ...
  update every 1 steps, delay 0 steps, check yes
  max neighbors/atom: 2000, page size: 100000
  master list distance cutoff = 0
  ghost atom cutoff = 10
  0 neighbor lists, perpetual/occasional/extra = 0 0 0
WARNING: Inconsistent image flags (src/domain.cpp:819)
Per MPI rank memory allocation (min/avg/max) = 8.772 | 8.772 | 8.772 Mbytes
   Step          Temp          PotEng         E_bond        E_angle        E_dihed         Press           Pxx            Pyy            Pzz            Pxy            Pxz            Pyz             Lx             Ly             Lz           Volume    
         0   0              2.1213958e-11  2.1213958e-11  0              0              0.045719136    0.066591155    0.024847117    0              0.096218176    0              0              9.623172       9.623172       0.2            92.605439    
       167   0              3.3817168e-14  3.3817168e-14  0              0             -4.8197971e-07  1.0227751e-06 -1.9867346e-06  0             -1.2043595e-05  0              0              9.6231717      9.6231716      0.2            92.605433    
Loop time of 0.00897165 on 1 procs for 167 steps with 52 atoms

100.0% CPU use with 1 MPI tasks x 1 OpenMP threads

Minimization stats:
  Stopping criterion = force tolerance
  Energy initial, next-to-last, final = 
    2.12139579115522e-11 3.3817193461558e-14 3.38171675879337e-14
  Force two-norm initial, final = 1.6509237e-05 4.5133561e-10
  Force max component initial, final = 4.6828638e-06 1.6865611e-10
  Final line search alpha, max atom move = 1 1.6865611e-10
  Iterations, force evaluations = 167 334

MPI task timing breakdown:
Section |  min time  |  avg time  |  max time  |%varavg| %total
---------------------------------------------------------------
Pair    | 0          | 0          | 0          |   0.0 |  0.00
Bond    | 0.0012301  | 0.0012301  | 0.0012301  |   0.0 | 13.71
Neigh   | 0          | 0          | 0          |   0.0 |  0.00
Comm    | 0.0026429  | 0.0026429  | 0.0026429  |   0.0 | 29.46
Output  | 0          | 0          | 0          |   0.0 |  0.00
Modify  | 0          | 0          | 0          |   0.0 |  0.00
Other   |            | 0.005099   |            |       | 56.83

Nlocal:             52 ave          52 max          52 min
Histogram: 1 0 0 0 0 0 0 0 0 0
Nghost:            447 ave         447 max         447 min
Histogram: 1 0 0 0 0 0 0 0 0 0
Neighs:              0 ave           0 max           0 min
Histogram: 1 0 0 0 0 0 0 0 0 0

Total # of neighbors = 0
Ave neighs/atom = 0
Ave special neighs/atom = 18.653846
Neighbor list builds = 0
Dangerous builds = 0
#dump rela all atom 1 traj_relax.lmpstrj
thermo 100
unfix 3

fix 2d all enforce2d



#dump dump0 all xyz 1000000 cfg0.xyz
#dump_modify dump0 format line "%d %20.10g %20.10g %20.10g"
#minimize ${etol} ${ftol} ${maxiter} ${maxeval}

#undump rela

#write_restart restart.equil

# These formulas define the derivatives w.r.t. strain components
# Constants uses $, variables use v_


timestep        ${dt}
timestep        0.01
variable nsteps equal round(${strainsteps})
variable nsteps equal round(50000)

fix             4 all nve
fix             5 all langevin 0.1 0.1 1 904297
#fix		6 all press/berendsen y  0.0 0.0 1 x 0.0 0.0 10
fix             6 all nph y 0.0 0.0 10 ptemp 0.1 # x 0.0 0.0 10

# For PLUMED2
# fix 22 all plumed plumedfile plumed.dat outfile plumed.out

#fix             6 all nph x 0.0 0.0 10
fix     	9 all deform 1 x erate -${srate} units box remap x
fix     	9 all deform 1 x erate -0.0001 units box remap x

#fix     8 all deform 1 xy erate ${srate} units box remap x



#fix    10 all ave/time

dump 1 all atom 250 deform_dump.lammpstrj


#To avoid flying ice cube phenomenon:
#fix 21 all momentum 100 linear 1 1 1 angular


run  ${nsteps}
run  50000
WARNING: One or more atoms are time integrated more than once (src/modify.cpp:292)
WARNING: Inconsistent image flags (src/domain.cpp:819)
Per MPI rank memory allocation (min/avg/max) = 7.647 | 7.647 | 7.647 Mbytes
   Step          Temp          PotEng         E_bond        E_angle        E_dihed         Press           Pxx            Pyy            Pzz            Pxy            Pxz            Pyz             Lx             Ly             Lz           Volume    
       167   0              3.3817168e-14  3.3817168e-14  0              0             -4.8197971e-07  1.0227751e-06 -1.9867346e-06  0             -1.2043595e-05  0              0              9.6231717      9.6231716      0.2            92.605433    
       200   0.10043075     0.00021096246  0.00021096246  0              0             -75.232089     -164.80363      14.163717      0              19.389793      0              0              9.6228541      9.6250054      0.2            92.620023    
       300   0.19084438     0.0006297271   0.0006297271   0              0             -480.43216     -941.84282     -19.142531      0             -791.71401      0              0              9.6218918      9.6241941      0.2            92.602954    
       400   0.22702231     0.00085222242  0.00085222242  0              0             -283.22385     -490.09545     -76.50451       0             -334.72169      0              0              9.6209295      9.6145629      0.2            92.501032    
       500   0.19229903     0.0010182659   0.0010182659   0              0              221.37002      400.75331      41.844356      0             -638.65945      0              0              9.6199672      9.6215615      0.2            92.559106    
       600   0.2022431      0.00064941111  0.00064941111  0              0             -324.66954     -731.30115      81.788498      0             -321.88029      0              0              9.6190049      9.6217444      0.2            92.551606    
       700   0.18002999     0.00088415479  0.00088415479  0              0              462.04074      764.10676      159.8197       0              198.56287      0              0              9.6180426      9.6269265      0.2            92.592188    
       800   0.20026551     0.00077878284  0.00077878284  0              0              250.95105      293.54339      208.18861      0             -327.26035      0              0              9.6170802      9.6301825      0.2            92.614238    
       900   0.15344854     0.0007389004   0.0007389004   0              0              8.8239006     -151.79968      169.31253      0             -211.01923      0              0              9.6161179      9.6290064      0.2            92.593661    
      1000   0.17867123     0.00082046536  0.00082046536  0              0              49.406807     -55.343487      154.0008       0              474.22868      0              0              9.6151556      9.6248355      0.2            92.544291    
      1100   0.21292429     0.0008547023   0.0008547023   0              0              313.50083      492.90401      133.92085      0              443.1137       0              0              9.6141933      9.626439       0.2            92.550445    
      1200   0.17433873     0.00095180887  0.00095180887  0              0             -3.9818628     -211.30267      203.20099      0              13.614338      0              0              9.613231       9.6205642      0.2            92.484706    
      1300   0.19309201     0.00083686957  0.00083686957  0              0             -92.655444     -456.05484      270.58436      0             -450.91805      0              0              9.6122687      9.624239       0.2            92.510771    
      1400   0.26374445     0.00088716695  0.00088716695  0              0              358.00159      397.15472      318.72126      0             -175.40857      0              0              9.6113063      9.6146701      0.2            92.40954     
      1500   0.20422188     0.00093762182  0.00093762182  0              0              699.80601      1186.5472      212.89415      0             -564.36722      0              0              9.610344       9.6173114      0.2            92.425671    
      1600   0.22630787     0.0007844647   0.0007844647   0              0              490.57812      857.18753      123.81073      0              507.55831      0              0              9.6093817      9.6118002      0.2            92.363457    
      1700   0.14161718     0.00091559017  0.00091559017  0              0              536.73194      1091.7507     -18.41233       0              683.80614      0              0              9.6084194      9.6133647      0.2            92.36924     
      1800   0.22330249     0.00078396546  0.00078396546  0              0             -108.94723     -92.047877     -125.98359      0             -448.60375      0              0              9.6074571      9.6158421      0.2            92.38379     
      1900   0.19551859     0.00083351413  0.00083351413  0              0             -604.06689     -979.76271     -228.54311      0              183.39098      0              0              9.6064947      9.6168233      0.2            92.383963    
      2000   0.2016678      0.00076175846  0.00076175846  0              0             -872.82857     -1209.2555     -536.5347       0             -469.05         0              0              9.6055324      9.6127713      0.2            92.335787    
      2100   0.21448944     0.00069599283  0.00069599283  0              0             -358.53459     -9.4686911     -707.76037      0             -937.41592      0              0              9.6045701      9.6184406      0.2            92.380987    
      2200   0.17772062     0.00085430535  0.00085430535  0              0             -631.654       -266.42988     -997.02575      0             -68.573981      0              0              9.6036078      9.6182645      0.2            92.37004     
      2300   0.25093028     0.00089700037  0.00089700037  0              0             -890.65022     -652.34909     -1129.1017      0              375.99414      0              0              9.6026455      9.6351163      0.2            92.522606    
      2400   0.23095892     0.00086344534  0.00086344534  0              0             -705.93545     -140.11191     -1271.9216      0             -191.5673       0              0              9.6016832      9.6307786      0.2            92.471685    
      2500   0.18739764     0.00099082761  0.00099082761  0              0             -975.36217     -708.01321     -1242.8609      0              349.42589      0              0              9.6007208      9.6423756      0.2            92.573757    
      2600   0.19828645     0.00072729334  0.00072729334  0              0             -465.48291      138.18379     -1069.3101      0              353.44397      0              0              9.5997585      9.647596       0.2            92.614592    
      2700   0.14814182     0.00070901242  0.00070901242  0              0             -638.77744     -438.89158     -838.81428      0             -132.19278      0              0              9.5987962      9.6384552      0.2            92.517567    
      2800   0.1869956      0.00078030059  0.00078030059  0              0             -519.26919     -435.44489     -603.22904      0             -27.823594      0              0              9.5978339      9.6338226      0.2            92.463829    
      2900   0.23374214     0.00065583342  0.00065583342  0              0             -247.52993     -152.56779     -342.67646      0              131.49816      0              0              9.5968716      9.6362614      0.2            92.477963    
      3000   0.21835972     0.00072752854  0.00072752854  0              0              125.62984      232.84558      18.273972      0             -464.43054      0              0              9.5959093      9.6406831      0.2            92.511121    
      3100   0.20818229     0.00073368145  0.00073368145  0              0              443.61065      724.29495      162.75721      0             -76.473404      0              0              9.5949469      9.6355754      0.2            92.452834    
      3200   0.2425657      0.00080378814  0.00080378814  0              0              499.48122      363.40888      635.38437      0             -91.639399      0              0              9.5939846      9.6266665      0.2            92.358091    
      3300   0.23082834     0.00095937446  0.00095937446  0              0              602.18267      306.43393      897.78311      0              349.62523      0              0              9.5930223      9.6156617      0.2            92.243257    
      3400   0.23898364     0.00090850117  0.00090850117  0              0              836.14134      718.2846       953.85526      0             -324.14747      0              0              9.59206        9.6173692      0.2            92.250382    
      3500   0.18955679     0.00068129804  0.00068129804  0              0              682.48385      425.37953      939.44165      0             -426.17357      0              0              9.5910977      9.6202051      0.2            92.268326    
      3600   0.19062043     0.0007686911   0.0007686911   0              0              271.88878     -407.19834      950.84219      0             -373.97213      0              0              9.5901354      9.6166747      0.2            92.225212    
      3700   0.27628981     0.00067943132  0.00067943132  0              0             -43.217179     -960.12894      873.51001      0             -408.42387      0              0              9.589173       9.622492       0.2            92.271741    
      3800   0.20076792     0.00088798538  0.00088798538  0              0              526.38684      313.9773       738.66573      0             -536.63091      0              0              9.5882107      9.6312216      0.2            92.346183    
      3900   0.20059559     0.00074645706  0.00074645706  0              0              117.53451     -433.35768      668.28701      0             -396.78242      0              0              9.5872484      9.6180766      0.2            92.21089     
      4000   0.17669835     0.00098962727  0.00098962727  0              0              84.716952     -441.93283      611.21196      0             -484.55438      0              0              9.5862861      9.6117513      0.2            92.140997    
      4100   0.18763055     0.00095857699  0.00095857699  0              0             -98.172073     -700.48363      504.00288      0              225.60529      0              0              9.5853238      9.6107346      0.2            92.122003    
      4200   0.1861196      0.00075450414  0.00075450414  0              0             -63.941321     -297.1882       169.1448       0             -555.02687      0              0              9.5843615      9.6271904      0.2            92.270472    
      4300   0.18513832     0.0010297792   0.0010297792   0              0              334.18916      789.44959     -121.19792      0             -492.26471      0              0              9.5833991      9.6252796      0.2            92.242897    
      4400   0.20505818     0.00085931286  0.00085931286  0              0             -388.19737     -469.62166     -306.94465      0              66.869383      0              0              9.5824368      9.6279704      0.2            92.259418    
      4500   0.16157503     0.00092789317  0.00092789317  0              0             -285.78836     -172.13501     -399.59891      0              117.94086      0              0              9.5814745      9.6256626      0.2            92.228041    
      4600   0.1802534      0.00081347955  0.00081347955  0              0             -783.28722     -1100.6784     -466.04102      0              42.765948      0              0              9.5805122      9.6257475      0.2            92.219591    
      4700   0.21497526     0.00092637744  0.00092637744  0              0              0.25581273     458.22803     -457.88361      0              68.34535       0              0              9.5795499      9.6322866      0.2            92.27297     
      4800   0.23280838     0.00083481417  0.00083481417  0              0             -64.130327      227.66729     -356.0922       0             -555.39851      0              0              9.5785876      9.6352837      0.2            92.292409    
      4900   0.17988552     0.00084679025  0.00084679025  0              0             -474.44123     -664.39496     -284.65498      0             -181.91046      0              0              9.5776252      9.6302799      0.2            92.235211    
      5000   0.23058204     0.0008447816   0.0008447816   0              0              606.64801      1523.1484     -310.03616      0             -313.08952      0              0              9.5766629      9.6229515      0.2            92.155763    
      5100   0.21367868     0.0010855255   0.0010855255   0              0              87.527791      383.00714     -208.0956       0             -34.027303      0              0              9.5757006      9.6221211      0.2            92.138551    
      5200   0.21472907     0.00096773079  0.00096773079  0              0             -355.53109     -683.29547     -27.909843      0             -455.92508      0              0              9.5747383      9.6200546      0.2            92.109505    
      5300   0.21606216     0.0011422305   0.0011422305   0              0             -222.26016     -631.75567      187.078        0             -213.97125      0              0              9.573776       9.6244472      0.2            92.142301    
      5400   0.20314712     0.0012077893   0.0012077893   0              0              992.62166      1678.3127      306.76895      0              461.93646      0              0              9.5728136      9.6400459      0.2            92.282363    
      5500   0.185336       0.0010741592   0.0010741592   0              0              157.62523      1.3135454      313.80625      0              37.250192      0              0              9.5718513      9.6276525      0.2            92.154458    
      5600   0.16855633     0.00091822643  0.00091822643  0              0              193.23355      29.500819      356.81159      0             -334.13094      0              0              9.570889       9.6303879      0.2            92.171373    
      5700   0.21485511     0.00076761284  0.00076761284  0              0              751.42946      1100.592       402.12888      0             -181.75792      0              0              9.5699267      9.6223591      0.2            92.085271    
      5800   0.15952008     0.00094439447  0.00094439447  0              0              721.81355      1053.8752      389.58629      0             -307.90445      0              0              9.5689644      9.6169842      0.2            92.024579    
      5900   0.22554861     0.00079478343  0.00079478343  0              0              568.60517      831.91624      305.1271       0             -535.24276      0              0              9.5680021      9.6071163      0.2            91.920908    
      6000   0.18577938     0.0010517898   0.0010517898   0              0              798.44775      1498.0553      98.691657      0              86.589741      0              0              9.5670397      9.610796       0.2            91.946868    
      6100   0.19879328     0.00099072358  0.00099072358  0              0              692.39448      1272.8915      111.73976      0             -169.66109      0              0              9.5660774      9.6166484      0.2            91.993603    
      6200   0.20890503     0.0010877616   0.0010877616   0              0              999.21009      1953.624       44.62912       0              813.55211      0              0              9.5651151      9.6100531      0.2            91.921264    
      6300   0.22035008     0.0010599674   0.0010599674   0              0              206.75775      352.99379      60.37062       0             -61.044905      0              0              9.5641528      9.606738       0.2            91.88031     
      6400   0.2155656      0.0009938176   0.0009938176   0              0              52.445554      37.8111        66.88261       0             -310.68298      0              0              9.5631905      9.5983711      0.2            91.791051    
      6500   0.19691929     0.0012486549   0.0012486549   0              0             -191.5151      -393.03495      9.8698667      0             -122.83698      0              0              9.5622282      9.5929515      0.2            91.729991    
      6600   0.18131194     0.00093443181  0.00093443181  0              0              299.05272      673.5474      -75.640587      0             -513.19621      0              0              9.5612658      9.5939214      0.2            91.730033    
      6700   0.20026473     0.00086049992  0.00086049992  0              0              320.90522      1015.2905     -373.64628      0             -227.62962      0              0              9.5603035      9.6103833      0.2            91.878182    
      6800   0.17781347     0.00092834641  0.00092834641  0              0              200.08917      877.86662     -477.82379      0             -562.33817      0              0              9.5593412      9.6118902      0.2            91.883338    
      6900   0.2568132      0.00096776047  0.00096776047  0              0             -108.37523      373.37418     -590.2838       0             -241.65221      0              0              9.5583789      9.608593       0.2            91.842572    
      7000   0.19884578     0.0011729852   0.0011729852   0              0              258.33325      1191.2726     -674.74306      0             -767.78391      0              0              9.5574166      9.5944047      0.2            91.697722    
      7100   0.21566948     0.00098301863  0.00098301863  0              0              237.88076      1322.0249     -846.4404       0             -642.44236      0              0              9.5564543      9.5928179      0.2            91.673325    
      7200   0.26659472     0.00096778246  0.00096778246  0              0              242.21636      1381.4337     -897.14943      0             -182.14984      0              0              9.5554919      9.6126188      0.2            91.853301    
      7300   0.22313936     0.001070143    0.001070143    0              0              54.020183      1132.7598     -1024.8744      0             -442.44711      0              0              9.5545296      9.6144425      0.2            91.861475    
      7400   0.19450129     0.0011789138   0.0011789138   0              0              123.39163      1038.1604     -791.52092      0              374.45184      0              0              9.5535673      9.6323244      0.2            92.023059    
      7500   0.18569911     0.0011215831   0.0011215831   0              0              526.41137      1712.9463     -660.28179      0             -520.33376      0              0              9.552605       9.6437188      0.2            92.122637    
      7600   0.21556122     0.00097116834  0.00097116834  0              0             -279.83904     -76.644959     -483.14669      0              190.47345      0              0              9.5516427      9.6488541      0.2            92.162406    
      7700   0.2054141      0.00086851231  0.00086851231  0              0              481.50949      1042.3068     -79.463179      0              552.57565      0              0              9.5506804      9.6534884      0.2            92.197382    
      7800   0.21812999     0.00086356653  0.00086356653  0              0             -173.28707     -453.44017      106.7175       0              32.818099      0              0              9.549718       9.6543703      0.2            92.196514    
      7900   0.209032       0.0012508443   0.0012508443   0              0              687.33354      1013.6977      360.79044      0             -810.67279      0              0              9.5487557      9.633026       0.2            91.983412    
      8000   0.1646754      0.0010426651   0.0010426651   0              0              733.29565      1048.9689      417.46749      0             -347.95688      0              0              9.5477934      9.6360657      0.2            92.003164    
      8100   0.21146564     0.00098246254  0.00098246254  0              0              1606.9945      2456.9562      756.87928      0             -153.2255       0              0              9.5468311      9.6240833      0.2            91.879497    
      8200   0.18957728     0.00093555252  0.00093555252  0              0              1417.5027      2034.9164      799.95283      0             -512.32291      0              0              9.5458688      9.6251432      0.2            91.880354    
      8300   0.23034694     0.0011613372   0.0011613372   0              0              997.74675      1148.233       847.09414      0              14.820554      0              0              9.5449065      9.6242903      0.2            91.86295     
      8400   0.24370259     0.00092771808  0.00092771808  0              0              461.08717      165.52999      756.49402      0             -166.82231      0              0              9.5439441      9.6262055      0.2            91.871967    
      8500   0.17578985     0.0009230041   0.0009230041   0              0              730.90895      868.26726      593.40755      0             -287.18871      0              0              9.5429818      9.6338903      0.2            91.93604     
      8600   0.20915393     0.0010182492   0.0010182492   0              0              1038.1796      1524.7602      551.44602      0              80.894448      0              0              9.5420195      9.6259344      0.2            91.850854    
      8700   0.23090242     0.00096565425  0.00096565425  0              0              486.57989      498.23494      474.78183      0             -304.72584      0              0              9.5410572      9.6214913      0.2            91.799198    
      8800   0.20571037     0.0010917942   0.0010917942   0              0              632.37584      814.26319      450.29028      0             -52.714422      0              0              9.5400949      9.612064       0.2            91.700003    
      8900   0.21380294     0.0010964551   0.0010964551   0              0              503.26854      545.45458      460.93527      0              594.01485      0              0              9.5391325      9.6117068      0.2            91.687345    
      9000   0.22140151     0.00088687503  0.00088687503  0              0              793.24294      1080.7685      505.59046      0             -53.773949      0              0              9.5381702      9.6068599      0.2            91.631865    
      9100   0.15640236     0.00089756894  0.00089756894  0              0              198.24053     -50.307014      446.6248       0             -194.33571      0              0              9.5372079      9.6171314      0.2            91.720582    
      9200   0.17252627     0.0011441759   0.0011441759   0              0              393.98687      575.64587      212.19316      0              1.701803       0              0              9.5362456      9.6219934      0.2            91.757692    
      9300   0.22923946     0.001202134    0.001202134    0              0              760.0341       1363.3518      156.57267      0             -48.934335      0              0              9.5352833      9.6041427      0.2            91.578221    
      9400   0.1706905      0.00088069657  0.00088069657  0              0              578.61818      1105.6315      51.426608      0             -45.342686      0              0              9.534321       9.6251291      0.2            91.769071    
      9500   0.2080293      0.0010355171   0.0010355171   0              0              685.13679      1462.0495     -91.916088      0              66.512776      0              0              9.5333586      9.6341195      0.2            91.845516    
      9600   0.20361626     0.00088619693  0.00088619693  0              0              524.18214      1069.0714     -20.873056      0             -83.275813      0              0              9.5323963      9.6483715      0.2            91.972102    
      9700   0.22797103     0.00092229054  0.00092229054  0              0             -480.18668     -774.47434     -186.03117      0             -363.34234      0              0              9.531434       9.6461919      0.2            91.942042    
      9800   0.20985564     0.0012065141   0.0012065141   0              0             -225.35922     -174.96887     -275.91635      0              404.28234      0              0              9.5304717      9.6442592      0.2            91.914339    
      9900   0.24742562     0.0010007945   0.0010007945   0              0             -210.17455     -98.60793      -321.8899       0             -764.24735      0              0              9.5295094      9.6436906      0.2            91.89964     
     10000   0.15301601     0.00095745443  0.00095745443  0              0              80.06007       621.95543     -461.9725       0             -246.1741       0              0              9.5285471      9.6451562      0.2            91.904325    
     10100   0.22688368     0.0010633359   0.0010633359   0              0              221.53797      917.08698     -474.17753      0              94.370561      0              0              9.5275847      9.6478857      0.2            91.921049    
     10200   0.26989978     0.0011176562   0.0011176562   0              0             -663.1379      -696.46545     -629.98897      0             -159.0238       0              0              9.5266224      9.6332903      0.2            91.772719    
     10300   0.17727355     0.00078819194  0.00078819194  0              0              110.46425      831.47782     -610.69833      0             -450.2305       0              0              9.5256601      9.639016       0.2            91.81799     
     10400   0.18554024     0.00085172239  0.00085172239  0              0              55.767736      807.68562     -696.32974      0             -904.81898      0              0              9.5246978      9.6321556      0.2            91.743371    
     10500   0.16356661     0.0010378197   0.0010378197   0              0             -120.33461      398.82057     -639.6503       0             -668.61018      0              0              9.5237355      9.6306017      0.2            91.719303    
     10600   0.18987729     0.0011434277   0.0011434277   0              0              232.43084      1192.4647     -727.78416      0             -488.28892      0              0              9.5227732      9.6331106      0.2            91.733927    
     10700   0.20869017     0.0011621258   0.0011621258   0              0             -95.632685      459.06677     -650.48515      0             -704.10655      0              0              9.5218108      9.6245956      0.2            91.643579    
     10800   0.19146265     0.0012895035   0.0012895035   0              0              468.39154      1571.8438     -635.20216      0             -847.03921      0              0              9.5208485      9.6260474      0.2            91.648139    
     10900   0.26268138     0.00091089424  0.00091089424  0              0              32.779223      559.67856     -494.27006      0             -135.06933      0              0              9.5198862      9.6343524      0.2            91.717938    
     11000   0.22536879     0.0010008325   0.0010008325   0              0              168.08376      581.26434     -245.26879      0             -317.99286      0              0              9.5189239      9.6393793      0.2            91.756518    
     11100   0.19334298     0.0010906226   0.0010906226   0              0              905.85849      1711.7148      99.854746      0              37.557873      0              0              9.5179616      9.6415472      0.2            91.767876    
     11200   0.20215479     0.00095485616  0.00095485616  0              0              196.75739      99.675811      293.71106      0              55.84305       0              0              9.5169993      9.6474323      0.2            91.814606    
     11300   0.22626733     0.00098781533  0.00098781533  0              0              758.82783      899.33446      618.12737      0             -91.294913      0              0              9.5160369      9.6386241      0.2            91.721503    
     11400   0.22483405     0.0010374274   0.0010374274   0              0              1129.6439      1336.2378      922.8821       0             -157.01946      0              0              9.5150746      9.6442303      0.2            91.765571    
     11500   0.23052059     0.0011111713   0.0011111713   0              0              1212.0836      982.3907       1441.5729      0             -224.09448      0              0              9.5141123      9.6382769      0.2            91.699649    
     11600   0.19905854     0.0010545577   0.0010545577   0              0              1381.2499      1140.1299      1622.2263      0             -536.94426      0              0              9.51315        9.6439263      0.2            91.744117    
     11700   0.20405097     0.00099168894  0.00099168894  0              0              1551.7358      1438.3839      1664.9506      0             -976.20382      0              0              9.5121877      9.6499634      0.2            91.792263    
     11800   0.22573403     0.0011502049   0.0011502049   0              0              1215.8893      864.90666      1566.7132      0             -669.38977      0              0              9.5112253      9.6510653      0.2            91.793457    
     11900   0.20171947     0.0010071063   0.0010071063   0              0              852.91867      366.72792      1338.9388      0             -163.30192      0              0              9.510263       9.6616523      0.2            91.884855    
     12000   0.26443366     0.0011373194   0.0011373194   0              0              782.27161      741.71554      822.6748       0             -626.87576      0              0              9.5093007      9.6560984      0.2            91.822744    
     12100   0.23090553     0.0011026515   0.0011026515   0              0              242.60764      233.85726      251.20413      0             -384.91869      0              0              9.5083384      9.653187       0.2            91.785769    
     12200   0.1589729      0.00097799032  0.00097799032  0              0              238.36385      619.26177     -142.7162       0             -452.21146      0              0              9.5073761      9.6526521      0.2            91.771394    
     12300   0.17929923     0.0011212626   0.0011212626   0              0              48.076399      693.44401     -597.45674      0             -166.53375      0              0              9.5064138      9.6724096      0.2            91.949928    
     12400   0.19213885     0.0010116585   0.0010116585   0              0             -324.15336      101.08298     -749.50784      0             -451.80048      0              0              9.5054514      9.6697222      0.2            91.915075    
     12500   0.19345279     0.0011319266   0.0011319266   0              0              158.02309      1114.3134     -798.39479      0             -323.40575      0              0              9.5044891      9.679852       0.2            92.002048    
     12600   0.19581268     0.00091569358  0.00091569358  0              0             -127.65927      506.26517     -761.76884      0             -679.69393      0              0              9.5035268      9.6825041      0.2            92.017938    
     12700   0.23120945     0.0011192749   0.0011192749   0              0             -24.898645      541.26767     -591.21546      0             -274.96425      0              0              9.5025645      9.6761948      0.2            91.948665    
     12800   0.25814213     0.00098396859  0.00098396859  0              0             -24.122724      349.96199     -398.36562      0              184.63652      0              0              9.5016022      9.6675588      0.2            91.857298    
     12900   0.1810413      0.0012061366   0.0012061366   0              0              238.26266      647.63922     -171.27829      0             -887.87832      0              0              9.5006399      9.6671669      0.2            91.844271    
     13000   0.19969627     0.0011315687   0.0011315687   0              0              467.07176      955.6363      -21.661413      0             -861.93539      0              0              9.4996775      9.6724728      0.2            91.885373    
     13100   0.18435534     0.0010109909   0.0010109909   0              0              1020.6262      1915.7012      125.39726      0             -288.064        0              0              9.4987152      9.6810974      0.2            91.957987    
     13200   0.2190809      0.0011210403   0.0011210403   0              0              291.63121      319.50761      263.57307      0             -244.05359      0              0              9.4977529      9.685          0.2            91.985737    
     13300   0.20458646     0.0011641033   0.0011641033   0              0              816.80964      1210.7237      422.71288      0             -298.92693      0              0              9.4967906      9.6836937      0.2            91.964012    
     13400   0.14502276     0.0010481376   0.0010481376   0              0              731.7477       857.22373      606.15489      0             -109.70828      0              0              9.4958283      9.6836218      0.2            91.95401     
     13500   0.17547329     0.0013244579   0.0013244579   0              0              1184.7121      1878.4482      490.8346       0             -518.94054      0              0              9.494866       9.6864776      0.2            91.971807    
     13600   0.21394636     0.00096022586  0.00096022586  0              0              1020.426       1681.9359      358.74449      0             -544.43066      0              0              9.4939036      9.6962371      0.2            92.05514     
     13700   0.16948864     0.0012095307   0.0012095307   0              0              1028.8545      1812.7141      244.86099      0              164.6808       0              0              9.4929413      9.7087541      0.2            92.164633    
     13800   0.21086161     0.0012831042   0.0012831042   0              0              1151.4233      2148.4341      154.26618      0              19.297594      0              0              9.491979       9.7137775      0.2            92.202972    
     13900   0.23369387     0.0012292231   0.0012292231   0              0              209.20936      466.38295     -48.11274       0              29.773968      0              0              9.4910167      9.7093182      0.2            92.151301    
     14000   0.20400391     0.0010750177   0.0010750177   0              0              610.46089      1421.3193     -200.58074      0             -269.97059      0              0              9.4900544      9.6978869      0.2            92.033474    
     14100   0.26641845     0.0013379092   0.0013379092   0              0              617.28385      1546.9263     -312.4927       0             -148.71807      0              0              9.4890921      9.7008216      0.2            92.051989    
     14200   0.20692551     0.0011353317   0.0011353317   0              0              535.03471      1357.7043     -287.79866      0             -34.310071      0              0              9.4881297      9.6926397      0.2            91.965023    
     14300   0.21162433     0.0012464121   0.0012464121   0              0              231.47529      755.43853     -292.67781      0             -126.32477      0              0              9.4871674      9.6846625      0.2            91.880015    
     14400   0.17143199     0.0010627827   0.0010627827   0              0              872.23071      1997.2839     -252.96386      0             -749.10677      0              0              9.4862051      9.6761641      0.2            91.790077    
     14500   0.14370117     0.0012465212   0.0012465212   0              0              660.46725      1585.877      -265.07822      0             -1117.3941      0              0              9.4852428      9.6817451      0.2            91.833703    
     14600   0.19169823     0.0011961874   0.0011961874   0              0              705.07949      1498.8805     -88.899417      0             -478.71534      0              0              9.4842805      9.6766678      0.2            91.776231    
     14700   0.19306924     0.0013059937   0.0013059937   0              0              1164.0953      2429.5789     -101.5519       0             -675.88817      0              0              9.4833182      9.6853166      0.2            91.848939    
     14800   0.16324946     0.0014138048   0.0014138048   0              0              874.14248      1739.5254      8.5853054      0             -1463.297       0              0              9.4823558      9.6891307      0.2            91.875785    
     14900   0.23020307     0.0012102985   0.0012102985   0              0              196.51153      188.32811      204.54159      0             -1047.407       0              0              9.4813935      9.6933447      0.2            91.906415    
     15000   0.21021461     0.0012441236   0.0012441236   0              0              1017.2741      1598.7544      435.6354       0             -528.36284      0              0              9.4804312      9.7105663      0.2            92.060356    
     15100   0.26564579     0.0012118805   0.0012118805   0              0              1136.2772      1835.0522      437.35969      0             -750.40103      0              0              9.4794689      9.6981085      0.2            91.932918    
     15200   0.249777       0.0011058571   0.0011058571   0              0              973.53735      1613.701       333.22036      0             -481.08422      0              0              9.4785066      9.7024233      0.2            91.964483    
     15300   0.19818535     0.0012399769   0.0012399769   0              0              1566.0576      3020.3504      111.6079       0             -336.54622      0              0              9.4775442      9.6966519      0.2            91.900447    
     15400   0.17436168     0.0013317735   0.0013317735   0              0              697.7276       1455.826      -60.497035      0             -183.4199       0              0              9.4765819      9.7063643      0.2            91.983157    
     15500   0.25328622     0.0013895846   0.0013895846   0              0              865.79692      1890.9017     -159.44494      0             -614.36138      0              0              9.4756196      9.7020555      0.2            91.932987    
     15600   0.21709398     0.0012215416   0.0012215416   0              0              324.17361      1009.235      -361.08972      0             -149.75823      0              0              9.4746573      9.6975614      0.2            91.881071    
     15700   0.21637929     0.0011942973   0.0011942973   0              0              1000.8541      2446.1896     -444.61838      0             -79.671413      0              0              9.473695       9.7046045      0.2            91.938463    
     15800   0.17085567     0.0012465602   0.0012465602   0              0             -114.97052      388.86579     -618.95109      0             -232.13698      0              0              9.4727327      9.7047001      0.2            91.93003     
     15900   0.16313265     0.001126456    0.001126456    0              0              145.43492      1083.996      -793.29082      0             -211.52138      0              0              9.4717703      9.7022216      0.2            91.897215    
     16000   0.16030163     0.0014188374   0.0014188374   0              0              116.47938      1065.0387     -832.22682      0              205.87905      0              0              9.470808       9.7113048      0.2            91.973903    
     16100   0.19773341     0.0014449926   0.0014449926   0              0              68.106797      748.40944     -612.35507      0             -613.17849      0              0              9.4698457      9.7197737      0.2            92.044757    
     16200   0.2391278      0.0013212549   0.0013212549   0              0              154.17717      676.54405     -368.33672      0             -577.88613      0              0              9.4688834      9.7207693      0.2            92.044831    
     16300   0.21347438     0.0013670579   0.0013670579   0              0              695.55014      1466.2045     -75.251382      0             -177.42348      0              0              9.4679211      9.7154621      0.2            91.985228    
     16400   0.22569646     0.0015652132   0.0015652132   0              0              973.43763      1815.2811      131.44345      0             -484.96997      0              0              9.4669588      9.7186857      0.2            92.006396    
     16500   0.25720249     0.0013792554   0.0013792554   0              0              600.01524      728.00249      471.84775      0             -520.56808      0              0              9.4659964      9.7117598      0.2            91.931483    
     16600   0.2073503      0.0012002776   0.0012002776   0              0              712.74288      680.54327      744.78247      0             -643.30275      0              0              9.4650341      9.7074425      0.2            91.881275    
     16700   0.24157446     0.0011397465   0.0011397465   0              0              1190.1429      1443.8256      936.29879      0             -335.36137      0              0              9.4640718      9.7079088      0.2            91.876346    
     16800   0.2014854      0.0011938303   0.0011938303   0              0              1486.3694      1987.3914      985.19227      0             -596.54532      0              0              9.4631095      9.7096121      0.2            91.883122    
     16900   0.16862638     0.0013628341   0.0013628341   0              0              1052.8338      1240.2752      865.24468      0             -732.86538      0              0              9.4621472      9.7146351      0.2            91.921307    
     17000   0.19348295     0.0012179847   0.0012179847   0              0              651.05696      584.28642      717.6617       0             -554.73968      0              0              9.4611849      9.7147344      0.2            91.912898    
     17100   0.2079853      0.0010939203   0.0010939203   0              0              854.84572      1153.6862      555.83485      0             -545.9358       0              0              9.4602225      9.7128968      0.2            91.886165    
     17200   0.23443094     0.0011478455   0.0011478455   0              0              711.73818      1188.4023      234.92692      0             -195.83723      0              0              9.4592602      9.7017041      0.2            91.770944    
     17300   0.22919851     0.0012481329   0.0012481329   0              0              403.46607      829.93657     -23.168421      0             -369.85579      0              0              9.4582979      9.7021331      0.2            91.765665    
     17400   0.19325013     0.0012380078   0.0012380078   0              0             -178.27064     -90.177891     -266.56014      0             -647.71919      0              0              9.4573356      9.7081476      0.2            91.81321     
     17500   0.23034243     0.0010397977   0.0010397977   0              0              305.76952      1097.3462     -485.96108      0             -620.19924      0              0              9.4563733      9.7149961      0.2            91.86863     
     17600   0.21638699     0.0010473818   0.0010473818   0              0              264.40758      1070.6937     -541.99935      0             -380.24798      0              0              9.455411       9.7146247      0.2            91.855769    
     17700   0.24508884     0.001282949    0.001282949    0              0             -144.20549      356.07644     -644.63571      0             -301.09624      0              0              9.4544486      9.7181987      0.2            91.880211    
     17800   0.20754352     0.0013755159   0.0013755159   0              0              782.57608      2036.9378     -471.9248       0             -276.35514      0              0              9.4534863      9.7138364      0.2            91.829619    
     17900   0.17722448     0.0011526994   0.0011526994   0              0              932.75978      2142.9949     -277.61869      0             -869.36048      0              0              9.452524       9.7100281      0.2            91.784274    
     18000   0.18171554     0.0012214351   0.0012214351   0              0              681.33268      1529.8261     -167.31567      0              17.24014       0              0              9.4515617      9.7171277      0.2            91.842032    
     18100   0.21464342     0.001173279    0.001173279    0              0              995.65196      2079.8458     -88.697818      0             -207.61408      0              0              9.4505994      9.721896       0.2            91.877744    
     18200   0.17731088     0.0013051192   0.0013051192   0              0              539.22443      997.02308      81.300996      0              121.21921      0              0              9.4496371      9.7207629      0.2            91.857681    
     18300   0.19331146     0.0012533219   0.0012533219   0              0              959.46838      1577.9735      340.82076      0             -374.46807      0              0              9.4486747      9.7148299      0.2            91.792268    
     18400   0.22019395     0.0012602217   0.0012602217   0              0              980.76841      1483.5808      477.76191      0             -271.87283      0              0              9.4477124      9.7153564      0.2            91.787893    
     18500   0.23497704     0.0012668336   0.0012668336   0              0              748.68461      1061.3534      435.88251      0             -546.13907      0              0              9.4467501      9.7204906      0.2            91.827046    
     18600   0.24344303     0.0012412459   0.0012412459   0              0              1074.1543      1858.1735      289.95331      0             -443.50897      0              0              9.4457878      9.7168679      0.2            91.783472    
     18700   0.16492154     0.0012896851   0.0012896851   0              0              1037.8832      2032.7279      42.831388      0             -720.27917      0              0              9.4448255      9.7153515      0.2            91.759799    
     18800   0.20766744     0.0012140947   0.0012140947   0              0              992.48964      2114.9573     -130.14853      0             -535.43266      0              0              9.4438631      9.7203632      0.2            91.79778     
     18900   0.19043544     0.0011192038   0.0011192038   0              0              362.62473      1084.5485     -359.41607      0             -228.91296      0              0              9.4429008      9.7134182      0.2            91.722845    
     19000   0.22828527     0.001185393    0.001185393    0              0              624.38569      1725.0263     -476.42235      0             -135.06521      0              0              9.4419385      9.7129286      0.2            91.708874    
     19100   0.24866936     0.0011087892   0.0011087892   0              0              321.23394      1291.5902     -649.25406      0             -523.80314      0              0              9.4409762      9.7089475      0.2            91.661942    
     19200   0.16734039     0.0013269659   0.0013269659   0              0              334.70296      1360.3266     -691.05394      0             -339.73181      0              0              9.4400139      9.7084617      0.2            91.648013    
     19300   0.24822751     0.001116489    0.001116489    0              0              500.16332      1562.2812     -562.11611      0             -58.515169      0              0              9.4390516      9.7062323      0.2            91.617627    
     19400   0.20623504     0.0010735923   0.0010735923   0              0              142.50889      552.48653     -267.67675      0             -676.87914      0              0              9.4380892      9.7077763      0.2            91.622859    
     19500   0.17803302     0.0010838479   0.0010838479   0              0              527.13821      978.04123      76.123531      0             -368.50205      0              0              9.4371269      9.7122019      0.2            91.655282    
     19600   0.19584573     0.00132103     0.00132103     0              0              615.45727      814.53067      416.23687      0             -854.99682      0              0              9.4361646      9.6951216      0.2            91.484763    
     19700   0.20715727     0.0011231002   0.0011231002   0              0              719.35186      670.01214      768.53342      0             -1007.2755      0              0              9.4352023      9.700002       0.2            91.521481    
     19800   0.1704955      0.0013925581   0.0013925581   0              0              1177.8018      1379.9716      975.45211      0             -584.31892      0              0              9.43424        9.7078464      0.2            91.586152    
     19900   0.17109901     0.0010715074   0.0010715074   0              0              855.77675      933.75184      777.6538       0             -368.81649      0              0              9.4332777      9.7031708      0.2            91.532705    
     20000   0.20780983     0.0013088314   0.0013088314   0              0              1194.381       1868.6233      520.00318      0             -1046.6362      0              0              9.4323153      9.7077658      0.2            91.566708    
     20100   0.20138864     0.0011645626   0.0011645626   0              0              798.69056      1492.4306      104.80399      0             -463.68722      0              0              9.431353       9.7103068      0.2            91.581332    
     20200   0.19093222     0.0012354445   0.0012354445   0              0              348.88341      1106.8108     -409.19129      0             -458.32769      0              0              9.4303907      9.711124       0.2            91.579693    
     20300   0.20651083     0.0012027838   0.0012027838   0              0              168.38493      1059.8061     -723.15603      0             -426.05321      0              0              9.4294284      9.7142682      0.2            91.599996    
     20400   0.23241996     0.0012605478   0.0012605478   0              0             -232.12438      607.94203     -1072.3695      0             -963.15086      0              0              9.4284661      9.7356698      0.2            91.792432    
     20500   0.17823786     0.0011606371   0.0011606371   0              0              45.364148      1085.1184     -994.55965      0             -257.92883      0              0              9.4275038      9.7183186      0.2            91.619485    
     20600   0.20872776     0.0013517846   0.0013517846   0              0             -257.23116      300.43698     -815.03197      0              262.22387      0              0              9.4265414      9.7155906      0.2            91.584417    
     20700   0.21210479     0.0011597469   0.0011597469   0              0              620.09905      1660.4003     -420.37388      0              19.774238      0              0              9.4255791      9.7099341      0.2            91.521752    
     20800   0.20379499     0.0011176817   0.0011176817   0              0              570.37458      1047.5378      93.035163      0             -153.76058      0              0              9.4246168      9.6998101      0.2            91.416994    
     20900   0.18182601     0.001110262    0.001110262    0              0              867.02262      1425.5377      308.34119      0             -1076.156       0              0              9.4236545      9.6953306      0.2            91.365446    
     21000   0.14200471     0.0013241196   0.0013241196   0              0              1104.277       1826.8724      381.52615      0             -965.07294      0              0              9.4226922      9.7063786      0.2            91.460217    
     21100   0.19730643     0.0011908757   0.0011908757   0              0              490.70682      549.01364      432.27531      0             -566.57886      0              0              9.4217299      9.7132076      0.2            91.515218    
     21200   0.195225       0.0012250748   0.0012250748   0              0              891.64511      1280.3645      502.74442      0             -1298.3368      0              0              9.4207675      9.7165998      0.2            91.537828    
     21300   0.21528591     0.0011234259   0.0011234259   0              0              1258.8683      2095.1998      422.35297      0             -327.88252      0              0              9.4198052      9.7206587      0.2            91.566712    
     21400   0.19750819     0.0010870216   0.0010870216   0              0              842.06515      1531.8423      152.15222      0             -422.07884      0              0              9.4188429      9.7279514      0.2            91.626046    
     21500   0.21031847     0.0012730645   0.0012730645   0              0              426.50568      1008.6716     -155.80934      0              118.6376       0              0              9.4178806      9.7151265      0.2            91.495901    
     21600   0.1865971      0.0012465106   0.0012465106   0              0              334.55345      892.96273     -224.02181      0             -224.21918      0              0              9.4169183      9.7160451      0.2            91.495202    
     21700   0.19823611     0.0013888114   0.0013888114   0              0              739.23441      1814.4224     -336.09407      0             -603.20039      0              0              9.4159559      9.7165469      0.2            91.490577    
     21800   0.27326226     0.0011749738   0.0011749738   0              0              457.01913      1165.1146     -251.21586      0             -231.36693      0              0              9.4149936      9.6947826      0.2            91.276316    
     21900   0.21630159     0.0012561022   0.0012561022   0              0              1167.548       2345.9201     -10.968701      0             -656.41198      0              0              9.4140313      9.698292       0.2            91.300025    
     22000   0.20315794     0.0014846117   0.0014846117   0              0              711.69551      1234.9789      188.26791      0             -281.98562      0              0              9.413069       9.7084894      0.2            91.38668     
     22100   0.18798065     0.0011635319   0.0011635319   0              0              1415.8308      2405.031       426.45783      0             -124.12739      0              0              9.4121067      9.7060993      0.2            91.354842    
     22200   0.21557605     0.0012431342   0.0012431342   0              0              1443.9275      2437.8449      449.82526      0             -423.40101      0              0              9.4111444      9.7076994      0.2            91.360561    
     22300   0.21942895     0.0013148017   0.0013148017   0              0              913.15821      1429.6484      396.52655      0             -308.16571      0              0              9.410182       9.7073346      0.2            91.347786    
     22400   0.1897188      0.0011961794   0.0011961794   0              0              949.88531      1484.577       415.0346       0             -496.01053      0              0              9.4092197      9.711077       0.2            91.373657    
     22500   0.16459362     0.0012458459   0.0012458459   0              0              615.57354      847.28046      383.68321      0             -164.46952      0              0              9.4082574      9.7132117      0.2            91.384396    
     22600   0.195492       0.0010968704   0.0010968704   0              0              884.44025      1632.8602      135.85234      0              127.11483      0              0              9.4072951      9.707116       0.2            91.317705    
     22700   0.21635185     0.0011809971   0.0011809971   0              0              666.01632      1434.8489     -103.02579      0             -139.54211      0              0              9.4063328      9.7162508      0.2            91.394288    
     22800   0.23284914     0.0011710569   0.0011710569   0              0              276.6935       894.8303      -341.60937      0             -196.20606      0              0              9.4053705      9.717326       0.2            91.39505     
     22900   0.21480861     0.0013176151   0.0013176151   0              0              748.72455      2003.0339     -505.7278       0              210.53055      0              0              9.4044081      9.723951       0.2            91.448004    
     23000   0.16819898     0.0013303384   0.0013303384   0              0              437.97338      1370.474      -494.67757      0              296.80455      0              0              9.4034458      9.717797       0.2            91.380777    
     23100   0.22759952     0.0013519489   0.0013519489   0              0              795.85087      1902.2316     -310.65927      0             -224.85788      0              0              9.4024835      9.7111415      0.2            91.308848    
     23200   0.22718512     0.0013231256   0.0013231256   0              0              585.72274      1236.3682     -65.064237      0             -229.48609      0              0              9.4015212      9.7051642      0.2            91.243307    
     23300   0.20839598     0.0012283039   0.0012283039   0              0              830.26688      1529.6942      130.69292      0             -7.7172677      0              0              9.4005589      9.7054404      0.2            91.236564    
     23400   0.243594       0.0013159104   0.0013159104   0              0              1066.9719      1698.0707      435.74372      0             -193.32775      0              0              9.3995966      9.6995871      0.2            91.172205    
     23500   0.25743931     0.0013224906   0.0013224906   0              0              1212.2973      1718.1772      706.2831       0             -4.7874753      0              0              9.3986342      9.7126776      0.2            91.285904    
     23600   0.24495405     0.0014328025   0.0014328025   0              0              1282.7109      1900.4949      664.74463      0             -173.73484      0              0              9.3976719      9.724353       0.2            91.386279    
     23700   0.24674597     0.0012245088   0.0012245088   0              0              1299.1184      1980.5099      617.58529      0              5.0214539      0              0              9.3967096      9.7148728      0.2            91.287838    
     23800   0.20750731     0.0013535431   0.0013535431   0              0              1040.6315      1784.006       297.09548      0              103.83655      0              0              9.3957473      9.7222875      0.2            91.348157    
     23900   0.1623316      0.0012291772   0.0012291772   0              0              185.62074      538.56102     -167.49409      0              137.20783      0              0              9.394785       9.7307584      0.2            91.418383    
     24000   0.20368865     0.0009189735   0.0009189735   0              0              95.355637      806.60632     -616.04285      0              388.82274      0              0              9.3938227      9.7295943      0.2            91.398084    
     24100   0.24942045     0.0010548555   0.0010548555   0              0             -564.98805     -245.83131     -884.32109      0             -352.42376      0              0              9.3928603      9.7182297      0.2            91.281975    
     24200   0.22596776     0.0012284007   0.0012284007   0              0             -488.82575     -66.078438     -911.71014      0             -67.148834      0              0              9.391898       9.7187255      0.2            91.277278    
     24300   0.18113026     0.001304004    0.001304004    0              0              111.89706      822.65769     -599.07497      0             -206.20777      0              0              9.3909357      9.7251339      0.2            91.328108    
     24400   0.18416217     0.0012618855   0.0012618855   0              0              611.55321      1327.7897     -104.82884      0              179.30747      0              0              9.3899734      9.7258906      0.2            91.325854    
     24500   0.22138342     0.0012327081   0.0012327081   0              0              914.76526      1614.6492      214.73553      0              667.30076      0              0              9.3890111      9.7220044      0.2            91.280007    
     24600   0.2199114      0.0013052586   0.0013052586   0              0              1545.544       2604.711       486.22463      0             -149.34702      0              0              9.3880488      9.6975358      0.2            91.040939    
     24700   0.21303727     0.0011351798   0.0011351798   0              0              589.9527       398.23532      781.49051      0              62.388649      0              0              9.3870864      9.7035327      0.2            91.0879      
     24800   0.17526743     0.0011471407   0.0011471407   0              0              783.90144      652.57455      915.10424      0             -368.80356      0              0              9.3861241      9.7129903      0.2            91.167333    
     24900   0.23551756     0.0011072845   0.0011072845   0              0              514.45799      242.14892      786.64078      0             -180.99095      0              0              9.3851618      9.7100156      0.2            91.130067    
     25000   0.20992581     0.0011034604   0.0011034604   0              0              769.01392      968.54855      569.33226      0              48.373851      0              0              9.3841995      9.711599       0.2            91.135582    
     25100   0.22625294     0.0010827968   0.0010827968   0              0             -197.86488     -437.49281      41.595324      0             -456.03967      0              0              9.3832372      9.7207664      0.2            91.212256    
     25200   0.23599278     0.0011145065   0.0011145065   0              0              306.74646      965.68773     -352.35753      0             -625.04273      0              0              9.3822748      9.7163842      0.2            91.161787    
     25300   0.18516085     0.0011757466   0.0011757466   0              0             -90.464655      505.13446     -686.23973      0             -159.06672      0              0              9.3813125      9.729496       0.2            91.275442    
     25400   0.15575656     0.0013257944   0.0013257944   0              0              63.399431      906.10921     -779.49704      0             -451.57942      0              0              9.3803502      9.7274475      0.2            91.246864    
     25500   0.18497626     0.0010938737   0.0010938737   0              0             -157.39326      256.49725     -571.46486      0             -741.27444      0              0              9.3793879      9.737384       0.2            91.330702    
     25600   0.19039727     0.0010638743   0.0010638743   0              0              182.14387      503.49278     -139.34191      0              313.13035      0              0              9.3784256      9.7393809      0.2            91.340059    
     25700   0.26578423     0.0011083418   0.0011083418   0              0              634.36777      1029.9932      238.60754      0             -259.90422      0              0              9.3774633      9.7216132      0.2            91.164071    
     25800   0.1729741      0.0011004755   0.0011004755   0              0              100.34065     -488.67932      689.17613      0             -118.80218      0              0              9.3765009      9.7255644      0.2            91.191764    
     25900   0.18340794     0.001314461    0.001314461    0              0              773.86445      776.6454       770.9303       0             -579.51523      0              0              9.3755386      9.7216062      0.2            91.145294    
     26000   0.22403827     0.001357182    0.001357182    0              0              25.600554     -733.09293      784.09946      0             -467.57892      0              0              9.3745763      9.7167255      0.2            91.090185    
     26100   0.19729171     0.00096386746  0.00096386746  0              0              328.13164      348.4903       307.64304      0             -700.1754       0              0              9.373614       9.7244774      0.2            91.153497    
     26200   0.24099018     0.00095232355  0.00095232355  0              0              147.73986      423.85869     -128.51944      0             -856.17718      0              0              9.3726517      9.7375488      0.2            91.266653    
     26300   0.205539       0.0011051111   0.0011051111   0              0              57.868134      546.94412     -431.34686      0             -600.59575      0              0              9.3716894      9.7335186      0.2            91.219513    
     26400   0.19592219     0.00086818007  0.00086818007  0              0             -437.05306     -175.77105     -698.48823      0             -655.10046      0              0              9.370727       9.7310011      0.2            91.186555    
     26500   0.20262751     0.0010054188   0.0010054188   0              0             -227.51911      107.58449     -562.81122      0             -994.28553      0              0              9.3697647      9.7291272      0.2            91.159633    
     26600   0.22516955     0.0012644234   0.0012644234   0              0              235.33925      815.5465      -345.03819      0             -730.64483      0              0              9.3688024      9.7276368      0.2            91.136307    
     26700   0.20194224     0.0010962631   0.0010962631   0              0             -166.9837      -289.7803      -44.334822      0             -158.5036       0              0              9.3678401      9.7235157      0.2            91.08834     
     26800   0.22681491     0.00083671492  0.00083671492  0              0              678.20227      1118.6888      237.57844      0             -78.58876       0              0              9.3668778      9.7337124      0.2            91.174494    
     26900   0.21269629     0.0011691003   0.0011691003   0              0              295.56562      265.81131      325.16697      0             -454.54977      0              0              9.3659155      9.7418756      0.2            91.241584    
     27000   0.165144       0.0011060664   0.0011060664   0              0              1014.4965      1628.9312      399.89032      0             -309.35186      0              0              9.3649531      9.7391723      0.2            91.206892    
     27100   0.22599196     0.00094768723  0.00094768723  0              0              427.89154      604.16941      251.4575       0              318.68388      0              0              9.3639908      9.7392342      0.2            91.198099    
     27200   0.15828341     0.0011153156   0.0011153156   0              0              662.8791       1165.9283      159.65739      0              110.49982      0              0              9.3630285      9.7415249      0.2            91.210176    
     27300   0.17778511     0.00099645386  0.00099645386  0              0              550.29462      1057.3725      43.049791      0             -556.17409      0              0              9.3620662      9.7263381      0.2            91.058621    
     27400   0.18678434     0.00097100574  0.00097100574  0              0              435.65674      873.45713     -2.3283304      0             -895.23192      0              0              9.3611039      9.7300792      0.2            91.084282    
     27500   0.18267538     0.0011857663   0.0011857663   0              0              509.87438      1067.0233     -47.444616      0             -272.09372      0              0              9.3601416      9.7264272      0.2            91.040735    
     27600   0.20684228     0.0010429264   0.0010429264   0              0             -133.01139     -224.88917     -41.255912      0             -726.60578      0              0              9.3591792      9.7231777      0.2            91.000963    
     27700   0.20940307     0.0011383113   0.0011383113   0              0              669.28688      1260.1293      78.339491      0             -940.01403      0              0              9.3582169      9.7180303      0.2            90.943436    
     27800   0.23887581     0.00093183509  0.00093183509  0              0             -177.31141     -450.87092      96.100285      0             -395.2118       0              0              9.3572546      9.7271944      0.2            91.019835    
     27900   0.2474094      0.00098288719  0.00098288719  0              0              181.44261      355.65365      7.0558182      0             -155.88863      0              0              9.3562923      9.730659       0.2            91.04289     
[...]
     42900   0.21195104     0.00091468576  0.00091468576  0              0              264.45638      457.9658       70.78496       0             -129.19821      0              0              9.2119447      9.705956       0.2            89.41073     
     43000   0.23905238     0.00092227864  0.00092227864  0              0              187.64321      949.04833     -573.92671      0              467.58769      0              0              9.2109824      9.7047037      0.2            89.389855    
     43100   0.18763522     0.0011718113   0.0011718113   0              0             -83.463784      500.61007     -667.68791      0             -108.69954      0              0              9.2100201      9.7035154      0.2            89.369571    
     43200   0.28839398     0.00094122258  0.00094122258  0              0             -70.116557      383.22735     -523.58209      0              426.25576      0              0              9.2090578      9.7065966      0.2            89.388609    
     43300   0.1934866      0.0010251705   0.0010251705   0              0             -404.1419      -750.73598     -57.727139      0              135.0394       0              0              9.2080954      9.7133742      0.2            89.441676    
     43400   0.17827511     0.00096570602  0.00096570602  0              0              308.54711      326.11008      290.8692       0              619.92255      0              0              9.2071331      9.7107847      0.2            89.408488    
     43500   0.19559726     0.00089425562  0.00089425562  0              0              640.91976      548.80539      732.91074      0              441.92959      0              0              9.2061708      9.7015254      0.2            89.3139      
     43600   0.17731364     0.00085356844  0.00085356844  0              0              967.42833      1117.2631      817.41435      0             -35.757475      0              0              9.2052085      9.6960189      0.2            89.253875    
     43700   0.22015962     0.00069782757  0.00069782757  0              0              240.13594     -10.519005      490.63988      0              320.25822      0              0              9.2042462      9.6915885      0.2            89.203767    
     43800   0.18503439     0.00087781828  0.00087781828  0              0             -109.811       -249.37501      29.567996      0              664.54737      0              0              9.2032839      9.6978649      0.2            89.252203    
     43900   0.18838919     0.00073015101  0.00073015101  0              0              254.17199      985.59606     -477.42891      0              370.67981      0              0              9.2023215      9.6951179      0.2            89.217592    
     44000   0.1615524      0.00071988848  0.00071988848  0              0             -107.596        537.76086     -753.10923      0              209.77283      0              0              9.2013592      9.6981582      0.2            89.236237    
     44100   0.18170702     0.0010291405   0.0010291405   0              0             -393.36997      121.68082     -908.55244      0             -125.48522      0              0              9.2003969      9.6947756      0.2            89.195784    
     44200   0.25358507     0.00081159118  0.00081159118  0              0              69.916738      642.15058     -502.46833      0              57.300746      0              0              9.1994346      9.6999562      0.2            89.234112    
     44300   0.22304313     0.00101202     0.00101202     0              0              48.048675     -150.69605      246.62869      0              121.16299      0              0              9.1984723      9.7005664      0.2            89.230391    
     44400   0.20794538     0.00085740954  0.00085740954  0              0              940.68063      978.42404      902.80404      0              217.15309      0              0              9.19751        9.6971677      0.2            89.189796    
     44500   0.27626801     0.0010936364   0.0010936364   0              0              1576.0925      1876.8306      1275.155       0             -37.071845      0              0              9.1965476      9.7040551      0.2            89.243805    
     44600   0.24614379     0.00082999454  0.00082999454  0              0              1320.6894      1491.6582      1149.5537      0             -388.97323      0              0              9.1955853      9.6932958      0.2            89.135528    
     44700   0.17865423     0.00082002976  0.00082002976  0              0              110.80559      116.49299      104.95444      0              322.371        0              0              9.194623       9.7007177      0.2            89.194442    
     44800   0.19241013     0.00067516701  0.00067516701  0              0             -479.55799      61.800334     -1021.0589      0             -98.016277      0              0              9.1936607      9.7110227      0.2            89.279847    
     44900   0.22653836     0.00095383676  0.00095383676  0              0             -894.53896     -366.19828     -1423.0797      0             -344.44795      0              0              9.1926984      9.7133393      0.2            89.291798    
     45000   0.18755652     0.0011486219   0.0011486219   0              0             -475.21199      354.88353     -1305.4533      0              456.84412      0              0              9.191736       9.7169846      0.2            89.315958    
     45100   0.22362638     0.00084745153  0.00084745153  0              0              257.22385      1011.662      -497.38147      0              526.69274      0              0              9.1907737      9.7113631      0.2            89.254941    
     45200   0.22485492     0.00077725346  0.00077725346  0              0              739.59607      877.90621      601.14677      0              137.27901      0              0              9.1898114      9.6871325      0.2            89.022921    
     45300   0.16423664     0.00086507668  0.00086507668  0              0              1038.5024      931.49982      1145.3166      0             -2.7019611      0              0              9.1888491      9.6772374      0.2            88.922674    
     45400   0.21905511     0.00078876416  0.00078876416  0              0              1441.3051      1683.0987      1199.3517      0             -106.0313       0              0              9.1878868      9.6772983      0.2            88.913921    
     45500   0.22298211     0.00096813764  0.00096813764  0              0              784.908        1048.237       521.39283      0             -362.85738      0              0              9.1869245      9.6805799      0.2            88.934756    
     45600   0.2448341      0.001075178    0.001075178    0              0             -186.04878     -243.87939     -128.39151      0             -184.01906      0              0              9.1859621      9.6876355      0.2            88.990253    
     45700   0.23179327     0.00087953781  0.00087953781  0              0             -40.257296      587.51212     -668.18017      0              557.8341       0              0              9.1849998      9.6966723      0.2            89.063934    
     45800   0.19809801     0.0010160832   0.0010160832   0              0             -176.82258      469.65556     -823.49608      0              188.76416      0              0              9.1840375      9.7005395      0.2            89.090119    
     45900   0.29467894     0.00090346558  0.00090346558  0              0              108.09351      842.83812     -626.8173       0             -166.49059      0              0              9.1830752      9.6878652      0.2            88.964395    
     46000   0.25935311     0.00081632796  0.00081632796  0              0              118.397        437.13281     -200.50198      0             -194.92567      0              0              9.1821129      9.690719       0.2            88.981276    
     46100   0.22818956     0.00060981178  0.00060981178  0              0              387.2611       524.0527       250.27972      0              37.360056      0              0              9.1811506      9.6797407      0.2            88.871157    
     46200   0.22260249     0.00085175784  0.00085175784  0              0              342.49537     -50.425127      735.2309       0              361.68712      0              0              9.1801882      9.6885687      0.2            88.942885    
     46300   0.18974161     0.00074816852  0.00074816852  0              0              494.53479      32.289556      956.61054      0              511.58451      0              0              9.1792259      9.6944674      0.2            88.987706    
     46400   0.1971648      0.00072692972  0.00072692972  0              0              1029.1935      1391.0358      667.19679      0             -195.92098      0              0              9.1782636      9.7019205      0.2            89.046784    
     46500   0.22966713     0.00081569645  0.00081569645  0              0             -49.054731     -10.725051     -87.548031      0              739.23972      0              0              9.1773013      9.7082506      0.2            89.095541    
     46600   0.222539       0.00084482805  0.00084482805  0              0             -481.67949     -176.93189     -786.61961      0             -138.87061      0              0              9.176339       9.7143076      0.2            89.141779    
     46700   0.22195783     0.00095082372  0.00095082372  0              0             -465.43983      207.70502     -1138.7256      0             -197.83081      0              0              9.1753767      9.7190439      0.2            89.175889    
     46800   0.18295082     0.00076117945  0.00076117945  0              0             -572.48594     -248.61373     -896.48848      0              23.1747        0              0              9.1744143      9.7118605      0.2            89.100632    
     46900   0.23996165     0.0008600795   0.0008600795   0              0              350.94822      818.70768     -116.97991      0              77.561904      0              0              9.173452       9.719593       0.2            89.16222     
     47000   0.18910568     0.0008740332   0.0008740332   0              0              1042.7987      1526.7747      558.63507      0             -468.13296      0              0              9.1724897      9.72466        0.2            89.199344    
     47100   0.23114417     0.00085682631  0.00085682631  0              0              653.15803      246.46572      1059.7097      0              424.02356      0              0              9.1715274      9.7220135      0.2            89.165713    
     47200   0.17622652     0.00078270751  0.00078270751  0              0              1382.3839      1851.2765      913.33409      0             -49.399871      0              0              9.1705651      9.7213103      0.2            89.149908    
     47300   0.24953007     0.00092902729  0.00092902729  0              0              114.59686      97.308849      131.72305      0              382.48373      0              0              9.1696028      9.7299224      0.2            89.219524    
     47400   0.20505762     0.0010289981   0.0010289981   0              0             -229.56155      164.68684     -623.95006      0             -241.04734      0              0              9.1686404      9.7312748      0.2            89.22256     
     47500   0.1748503      0.0010928968   0.0010928968   0              0             -561.68099     -42.326045     -1081.2068      0              612.26738      0              0              9.1676781      9.7448825      0.2            89.337946    
     47600   0.20964415     0.00072029064  0.00072029064  0              0             -804.96388     -736.97323     -873.08624      0             -438.46724      0              0              9.1667158      9.7390335      0.2            89.274952    
     47700   0.21503462     0.00083459577  0.00083459577  0              0             -106.9108      -133.94455     -80.040742      0             -206.12024      0              0              9.1657535      9.722306       0.2            89.11226     
     47800   0.21368288     0.00066104639  0.00066104639  0              0              537.83111      469.56365      605.92115      0             -140.78017      0              0              9.1647912      9.7209448      0.2            89.090429    
     47900   0.19767452     0.00071130482  0.00071130482  0              0              1086.7644      1146.2088      1027.1218      0             -48.977687      0              0              9.1638289      9.7118197      0.2            88.997453    
     48000   0.21265404     0.00097936228  0.00097936228  0              0              839.74834      889.69702      789.64447      0             -565.99436      0              0              9.1628665      9.7110001      0.2            88.980598    
     48100   0.2216423      0.00068297914  0.00068297914  0              0              427.58847      764.42564      90.593295      0             -223.82305      0              0              9.1619042      9.7169125      0.2            89.025422    
     48200   0.18479313     0.000848934    0.000848934    0              0              117.74946      751.95193     -516.61508      0             -245.2993       0              0              9.1609419      9.722404       0.2            89.066378    
     48300   0.18521349     0.00092023873  0.00092023873  0              0              114.73896      1103.505      -874.17905      0             -145.2271       0              0              9.1599796      9.7282831      0.2            89.110875    
     48400   0.19502123     0.00093248586  0.00093248586  0              0             -207.09166      399.13923     -813.47973      0             -37.314878      0              0              9.1590173      9.7334923      0.2            89.149224    
     48500   0.22191776     0.00075686439  0.00075686439  0              0             -260.18351     -248.12147     -272.46518      0             -118.5096       0              0              9.1580549      9.7148635      0.2            88.969254    
     48600   0.2594799      0.00060833827  0.00060833827  0              0              192.41755     -25.307788      409.99585      0             -29.437567      0              0              9.1570926      9.7184442      0.2            88.992694    
     48700   0.19997217     0.00084943428  0.00084943428  0              0              255.61106     -203.06858      714.1307       0              4.4561223      0              0              9.1561303      9.7156843      0.2            88.958072    
     48800   0.18131586     0.0008541814   0.0008541814   0              0              359.03421      19.94183       697.92685      0              441.7522       0              0              9.155168       9.7197683      0.2            88.986112    
     48900   0.17614252     0.0008876844   0.0008876844   0              0              788.22199      1298.6085      277.70249      0              89.671411      0              0              9.1542057      9.7152382      0.2            88.935288    
     49000   0.2061973      0.0008082285   0.0008082285   0              0             -304.18445     -326.97073     -281.53202      0              339.60346      0              0              9.1532434      9.7185257      0.2            88.95603     
     49100   0.20571572     0.00074175727  0.00074175727  0              0              127.24083      839.51943     -585.20499      0              551.08496      0              0              9.152281       9.7175256      0.2            88.937525    
     49200   0.22606444     0.0010877525   0.0010877525   0              0              144.74694      872.88631     -583.57139      0              163.55096      0              0              9.1513187      9.71089        0.2            88.867449    
     49300   0.21090987     0.0010374321   0.0010374321   0              0             -84.883238      370.45674     -540.37264      0              675.39961      0              0              9.1503564      9.7105102      0.2            88.854629    
     49400   0.20770163     0.00085854015  0.00085854015  0              0             -182.43282     -253.31415     -111.70324      0              408.02906      0              0              9.1493941      9.7070762      0.2            88.813866    
     49500   0.23665361     0.0011277586   0.0011277586   0              0              53.172028     -323.72531      429.89313      0              312.14184      0              0              9.1484318      9.7125908      0.2            88.854974    
     49600   0.20792808     0.00089993046  0.00089993046  0              0              312.74088      78.642447      546.66942      0              506.19119      0              0              9.1474695      9.704602       0.2            88.772551    
     49700   0.20060301     0.0010309384   0.0010309384   0              0              197.15777     -26.024063      420.15632      0             -128.21988      0              0              9.1465071      9.7058636      0.2            88.774751    
     49800   0.19469671     0.00087158358  0.00087158358  0              0              440.51268      777.02501      103.82106      0             -352.4265       0              0              9.1455448      9.7027556      0.2            88.736986    
     49900   0.21140204     0.00083300638  0.00083300638  0              0             -388.21156     -330.89512     -445.69269      0             -267.56122      0              0              9.1445825      9.7080339      0.2            88.775917    
     50000   0.15630765     0.0010318877   0.0010318877   0              0             -423.62424     -270.69654     -576.65773      0              371.78409      0              0              9.1436202      9.7112507      0.2            88.795988    
     50100   0.20622103     0.00069238591  0.00069238591  0              0             -339.6689      -179.78074     -499.7388       0             -131.46163      0              0              9.1426579      9.7007533      0.2            88.690669    
     50167   0.22061424     0.00079122856  0.00079122856  0              0              58.244483      535.46382     -419.12206      0             -520.29238      0              0              9.1420131      9.6901171      0.2            88.587177    
Loop time of 0.977903 on 1 procs for 50000 steps with 52 atoms

Performance: 44176.183 ns/day, 0.001 hours/ns, 51129.842 timesteps/s
99.2% CPU use with 1 MPI tasks x 1 OpenMP threads

MPI task timing breakdown:
Section |  min time  |  avg time  |  max time  |%varavg| %total
---------------------------------------------------------------
Pair    | 0          | 0          | 0          |   0.0 |  0.00
Bond    | 0.14181    | 0.14181    | 0.14181    |   0.0 | 14.50
Neigh   | 0          | 0          | 0          |   0.0 |  0.00
Comm    | 0.32293    | 0.32293    | 0.32293    |   0.0 | 33.02
Output  | 0.0063252  | 0.0063252  | 0.0063252  |   0.0 |  0.65
Modify  | 0.48235    | 0.48235    | 0.48235    |   0.0 | 49.33
Other   |            | 0.02449    |            |       |  2.50

Nlocal:             52 ave          52 max          52 min
Histogram: 1 0 0 0 0 0 0 0 0 0
Nghost:            447 ave         447 max         447 min
Histogram: 1 0 0 0 0 0 0 0 0 0
Neighs:              0 ave           0 max           0 min
Histogram: 1 0 0 0 0 0 0 0 0 0

Total # of neighbors = 0
Ave neighs/atom = 0
Ave special neighs/atom = 18.653846
Neighbor list builds = 0
Dangerous builds = 0


Total wall time: 0:00:00
