LAMMPS data file via write_data, version 23 Jun 2022, timestep = 10000

80 atoms
4 atom types

-4.829036199504658 4.829036199504658 xlo xhi
-4.829036199504658 4.829036199504658 ylo yhi
-0.1 0.1 zlo zhi

Atoms # sphere

22 2 1.3 0.4551661356395083 -3.8625240333830204 -3.9040858855119445 0 1 1 0
65 4 0.7 2.915451895043732 -3.6733527093730762 4.6600486406113 0 1 0 0
78 4 0.7 2.915451895043732 -3.2123427387469174 -4.604335318505869 0 0 0 0
58 3 1 1 -2.5681766671724278 -4.238496250256238 0 0 0 0
24 2 1.3 0.4551661356395083 -1.5678357202533233 -4.454846318354145 0 0 1 0
74 4 0.7 2.915451895043732 -0.6242001411564191 -4.201460288404943 0 0 0 0
41 3 1 1 0.13317691295707856 -4.523652360825297 0 0 0 0
42 3 1 1 0.8788099436015475 -3.88861700820188 0 0 1 0
5 1 1.6 0.2441406249999999 1.5632235872246358 -4.781742518755402 0 0 0 0
79 4 0.7 2.915451895043732 2.8008953639540684 4.771144117088435 0 0 0 0
19 1 1.6 0.2441406249999999 3.1977069719983815 -3.9822536404340947 0 0 0 0
20 1 1.6 0.2441406249999999 4.621859790742582 -4.204794958384198 0 -1 1 0
80 4 0.7 2.915451895043732 -3.0691870156921692 -3.674200721424505 0 0 1 0
8 1 1.6 0.2441406249999999 -3.427761789398022 -2.698456150329904 0 1 0 0
43 3 1 1 -2.379644170789213 -3.3510749128129964 0 0 0 0
55 3 1 1 -1.2727928948883118 -3.405926433782666 0 0 0 0
29 2 1.3 0.4551661356395083 -0.1640752450221603 -3.4686527603158868 0 0 0 0
23 2 1.3 0.4551661356395083 0.696097973525581 -2.827114204401218 0 -1 0 0
27 2 1.3 0.4551661356395083 1.958892916406569 -3.546417880063458 0 0 0 0
71 4 0.7 2.915451895043732 2.7457423255230085 -2.9581591264339675 0 -1 0 0
30 2 1.3 0.4551661356395083 3.885411213394959 -2.773952178734608 0 -1 0 0
59 3 1 1 -4.679498979776555 -2.8647039343043534 0 0 1 0
9 1 1.6 0.2441406249999999 4.500625793490403 -1.6322314781211955 0 -1 0 0
62 4 0.7 2.915451895043732 -2.377671462917406 -2.527745181330141 0 0 0 0
4 1 1.6 0.2441406249999999 -2.784551553065331 -1.5097492052780126 0 0 0 0
45 3 1 1 -1.742403141443408 -2.568761955484671 0 0 0 0
11 1 1.6 0.2441406249999999 -0.6380654492801421 -2.11046165237496 0 1 0 0
17 1 1.6 0.2441406249999999 1.862506137327383 -2.1892752886792057 0 0 0 0
63 4 0.7 2.915451895043732 2.7852169365493102 -2.2882995244028765 0 -1 0 0
60 3 1 1 3.2415761500745424 -1.7527910796850166 0 -1 0 0
50 3 1 1 -3.915206551425869 -1.6299277196476067 0 1 0 0
75 4 0.7 2.915451895043732 -1.7647099255166818 -1.92079402635445 0 0 0 0
2 1 1.6 0.2441406249999999 -1.2260385340533335 -0.6531007537746687 0 0 0 0
69 4 0.7 2.915451895043732 -0.23823322435272143 -1.0571529438067202 0 0 0 0
32 2 1.3 0.4551661356395083 0.5481856191133501 -1.5663886328920356 0 0 0 0
21 2 1.3 0.4551661356395083 1.6146092764549067 -0.8362997477731962 0 -1 0 0
54 3 1 1 2.549835406108288 -1.2553357212190086 0 -1 0 0
35 2 1.3 0.4551661356395083 2.9838905621665868 -0.401259272076242 0 0 0 0
77 4 0.7 2.915451895043732 3.528946037772376 -1.0342337558901953 0 -1 0 0
6 1 1.6 0.2441406249999999 -3.959147100637499 -0.49280440004378967 0 1 0 0
25 2 1.3 0.4551661356395083 -2.574762514734771 -0.30133399115046267 0 0 0 0
18 1 1.6 0.2441406249999999 -0.5351556614731878 0.6597320697100688 0 0 0 0
28 2 1.3 0.4551661356395083 0.46970872014227716 -0.4118950656373066 0 0 1 0
38 2 1.3 0.4551661356395083 2.0095198144867634 0.3035613117946445 0 0 0 0
14 1 1.6 0.2441406249999999 4.306064006399715 0.0031258536683642646 0 0 0 0
57 3 1 1 -4.234410686716734 0.6719778418405227 0 0 0 0
72 4 0.7 2.915451895043732 -3.8473348523481863 1.2897687310950259 0 1 -1 0
44 3 1 1 -3.3239851257079467 0.7342083211458617 0 0 0 0
15 1 1.6 0.2441406249999999 -2.0117501980164394 0.9546987645603195 0 1 0 0
51 3 1 1 -1.1962193954639186 1.6895664952356277 0 0 0 0
31 2 1.3 0.4551661356395083 0.7624474847656382 0.8667279617391923 0 0 0 0
67 4 0.7 2.915451895043732 1.210521478246024 2.011769718071541 0 0 0 0
76 4 0.7 2.915451895043732 1.663593408060346 1.246708863225039 0 0 0 0
68 4 0.7 2.915451895043732 2.3176571691766767 1.1187589544950134 0 0 0 0
53 3 1 1 3.0922367620463174 1.0081347540101264 0 0 0 0
33 2 1.3 0.4551661356395083 3.570643095716316 1.9086481114797804 0 0 0 0
39 2 1.3 0.4551661356395083 4.764782080799248 1.4627161834172968 0 0 0 0
64 4 0.7 2.915451895043732 -4.08475371250116 1.8166762300268804 0 1 0 0
40 2 1.3 0.4551661356395083 -3.0336727386055085 1.691924982904622 0 0 0 0
66 4 0.7 2.915451895043732 -2.554328659513545 2.475606514069095 0 0 0 0
46 3 1 1 -1.8819894847239036 2.1451802397879973 0 0 0 0
34 2 1.3 0.4551661356395083 -0.8335308574857798 2.608303818121372 0 0 0 0
26 2 1.3 0.4551661356395083 0.10328964695866905 1.9147489265235107 0 1 0 0
48 3 1 1 0.7368139430798877 2.7495837608757343 0 0 0 0
56 3 1 1 2.084570486929368 1.9391700605529598 0 0 0 0
70 4 0.7 2.915451895043732 1.463580687490734 2.6954129083181124 0 0 -1 0
16 1 1.6 0.2441406249999999 -3.6779069135425866 2.92135211075387 0 1 0 0
47 3 1 1 -2.489496799125368 3.275278544701469 0 0 0 0
7 1 1.6 0.2441406249999999 0.005962875886128316 3.556800053470231 0 0 -1 0
37 2 1.3 0.4551661356395083 1.4432740314072854 3.586169185416579 0 -1 0 0
12 1 1.6 0.2441406249999999 2.792913278708304 2.830517280817202 0 0 0 0
1 1 1.6 0.2441406249999999 4.440296895088108 2.811484362522604 0 0 0 0
13 1 1.6 0.2441406249999999 -4.509221608110581 4.102576790856419 0 1 -1 0
36 2 1.3 0.4551661356395083 -3.0487194889873637 4.123480860023709 0 0 0 0
73 4 0.7 2.915451895043732 -2.364805886372851 4.553047203752993 0 0 -1 0
10 1 1.6 0.2441406249999999 -1.5704817186082836 3.811437386308868 0 1 0 0
52 3 1 1 -0.6609319788534274 4.579942035617905 0 0 0 0
61 4 0.7 2.915451895043732 0.6361695999043944 4.338183501362397 0 0 0 0
49 3 1 1 2.3675614980117423 4.022727997806876 0 0 -1 0
3 1 1.6 0.2441406249999999 3.54556371140274 4.108071373739185 0 0 0 0

Velocities

22 -0.039393317093394165 -0.1757417241096196 0 0 0 0
65 0.046160994095076346 0.030440822092760292 0 0 0 0
78 -0.1486239244059803 -0.059380858810402164 0 0 0 0
58 0.13001966661694217 0.10940957610826757 0 0 0 0
24 -0.06999250887166193 -0.12591469092307234 0 0 0 0
74 0.0330574202206429 -0.037463952198414446 0 0 0 0
41 -0.1030953357597604 0.03683866710752746 0 0 0 0
42 0.16826481774889765 -0.11768902290927806 0 0 0 0
5 -0.06662065755895685 0.003874644974237576 0 0 0 0
79 -0.18166592366837575 0.08310489748957865 0 0 0 0
19 -0.07442770175862073 -0.04197503370364261 0 0 0 0
20 0.0944738611316791 0.058887567346993686 0 0 0 0
80 -0.034128448299321865 0.11400079010254922 0 0 0 0
8 0.2010246481984972 -0.09261773260320111 0 0 0 0
43 -0.0406466453478826 0.01984382407282035 0 0 0 0
55 0.12855969949616772 0.16585612773200656 0 0 0 0
29 -0.0034188487981424436 -0.012875017510456872 0 0 0 0
23 -0.026327736526146884 0.08010946017268515 0 0 0 0
27 -0.22145606800079823 -0.24510745250106214 0 0 0 0
71 -0.03648305499956685 0.11661195633731268 0 0 0 0
30 0.04333283894187861 -0.006834337865744342 0 0 0 0
59 -0.12688233796474374 0.07155558307446866 0 0 0 0
9 -0.12882125545737777 0.1951355795796139 0 0 0 0
62 0.10277609148148943 0.059076905676856195 0 0 0 0
4 0.009420560793642532 -0.05132536992900524 0 0 0 0
45 0.03507014655459834 0.14246764551923247 0 0 0 0
11 0.017542495199881575 -0.027491401994860058 0 0 0 0
17 0.07530974483110121 0.019166882759255086 0 0 0 0
63 0.09911125772066325 0.023880362515841757 0 0 0 0
60 0.07238297957062223 -0.09555492769906677 0 0 0 0
50 -0.14982978958984416 0.024557678989657335 0 0 0 0
75 0.007551937739486043 0.05506249018538597 0 0 0 0
2 -0.03886691447163915 0.028085186820168317 0 0 0 0
69 0.07062153128008745 0.011248863444951032 0 0 0 0
32 0.1585938671653353 0.13933024823427495 0 0 0 0
21 -0.15300110837326297 -0.007921012099529586 0 0 0 0
54 0.10762507836743866 0.030979128224653246 0 0 0 0
35 -0.022380596257440283 0.09513809837148103 0 0 0 0
77 -0.15767711693277014 0.05771084648289936 0 0 0 0
6 0.0641121795257977 -0.05826593404645576 0 0 0 0
25 -0.048156182077138704 -0.027529182052272196 0 0 0 0
18 -0.04575518664702373 0.00317649197144859 0 0 0 0
28 -0.14634319349820235 -0.2821084122379394 0 0 0 0
38 0.1972421521217231 0.03197028909458978 0 0 0 0
14 -0.05626033234263179 0.035470662549765435 0 0 0 0
57 0.07775215446261952 -0.06087942529311771 0 0 0 0
72 0.060612436972918474 -0.09144875539251587 0 0 0 0
44 -0.03047180208883491 -0.06404938834079893 0 0 0 0
15 0.04685445874294401 -0.12149061883638292 0 0 0 0
51 0.009630738271890336 -0.04831337867932169 0 0 0 0
31 0.11224961623506025 -0.05674508660698708 0 0 0 0
67 -0.0992444959967065 -0.028707179976893163 0 0 0 0
76 0.11822294556231312 0.019965945844994094 0 0 0 0
68 -0.05773963582893525 0.2823160452488446 0 0 0 0
53 0.051193829701909555 -0.0027556633230357884 0 0 0 0
33 0.011322483705663074 0.11153996982721115 0 0 0 0
39 -0.08976995861466144 -0.13764336139069874 0 0 0 0
64 0.13407858790521507 -0.07616904601430072 0 0 0 0
40 -0.11406334344148109 -0.004427178192237214 0 0 0 0
66 0.06223692889341578 -0.1424848557551039 0 0 0 0
46 0.09124461976989495 0.043718925326745726 0 0 0 0
34 -0.16786511555416145 0.2628144446513576 0 0 0 0
26 0.00011372970544165527 -0.2210576657056729 0 0 0 0
48 0.16045925971918548 0.06688191800123325 0 0 0 0
56 0.17629155931555618 -0.08123863563741653 0 0 0 0
70 -0.09982290238465605 0.10217418680942565 0 0 0 0
16 -0.05996319201627881 0.09838710681153273 0 0 0 0
47 0.12660489117881235 0.1357972777189456 0 0 0 0
7 -0.021528558689060905 -0.00950784156199656 0 0 0 0
37 0.08003601001154025 -0.13596650003161745 0 0 0 0
12 -0.007665108271281653 0.005670315606682834 0 0 0 0
1 -0.13692266751611548 -0.16264149274317755 0 0 0 0
13 -0.10330060360843521 -0.20931685774869727 0 0 0 0
36 0.050259773878540435 -0.10582351512658475 0 0 0 0
73 -0.03700504864005681 0.08503597802735918 0 0 0 0
10 0.15273554407218656 -0.002184795753060809 0 0 0 0
52 -0.19953253104220076 0.0883223333791973 0 0 0 0
61 0.12237415838573223 0.021400639976412738 0 0 0 0
49 -0.06278043237382358 -0.031441881527755795 0 0 0 0
3 -0.09859811452512254 0.09307282257017246 0 0 0 0
