ITEM: TIMESTEP
0
ITEM: NUMBER OF ATOMS
80
ITEM: BOX BOUNDS pp pp pp
-1.0000000000000000e+01 1.0000000000000000e+01
-1.0000000000000000e+01 1.0000000000000000e+01
-1.0000000000000001e-01 1.0000000000000001e-01
ITEM: ATOMS id type xs ys zs
43 3 0.145716 0.0509165 0.5
55 3 0.430359 0.0485196 0.5
2 1 0.489024 0.0209835 0.5
7 1 0.253589 0.0783563 0.5
74 4 0.458089 0.0988539 0.5
8 1 0.946217 0.065824 0.5
9 1 0.003876 0.143935 0.5
49 3 0.492958 0.147511 0.5
27 2 0.587919 0.156908 0.5
60 3 0.31137 0.189633 0.5
62 4 0.440899 0.192401 0.5
13 1 0.527114 0.210272 0.5
72 4 0.913439 0.171824 0.5
71 4 0.0229211 0.234776 0.5
70 4 0.101163 0.243503 0.5
58 3 0.361531 0.259199 0.5
78 4 0.515393 0.21198 0.5
45 3 0.587508 0.251507 0.5
19 1 0.987877 0.249743 0.5
21 2 0.146385 0.29924 0.5
63 4 0.259134 0.266857 0.5
77 4 0.264073 0.283112 0.5
4 1 0.436682 0.310806 0.5
25 2 0.189048 0.325913 0.5
29 2 0.483032 0.31866 0.5
46 3 0.486425 0.33772 0.5
5 1 0.667659 0.346157 0.5
75 4 0.636065 0.351194 0.5
41 3 0.844668 0.338988 0.5
23 2 0.174711 0.373448 0.5
30 2 0.210471 0.389629 0.5
44 3 0.214815 0.397281 0.5
56 3 0.829321 0.39812 0.5
32 2 0.452457 0.445977 0.5
1 1 0.560806 0.469939 0.5
14 1 0.778153 0.425154 0.5
48 3 0.00919142 0.480218 0.5
73 4 0.334178 0.525113 0.5
51 3 0.517968 0.493947 0.5
39 2 0.546351 0.525663 0.5
38 2 0.666956 0.525178 0.5
6 1 0.847416 0.519521 0.5
17 1 0.938032 0.499681 0.5
34 2 0.455082 0.557202 0.5
69 4 0.753349 0.529654 0.5
15 1 0.984562 0.531159 0.5
18 1 0.287059 0.608782 0.5
53 3 0.580627 0.598032 0.5
68 4 0.644412 0.624259 0.5
16 1 0.878838 0.626921 0.5
26 2 0.888773 0.607886 0.5
64 4 0.96154 0.600135 0.5
47 3 0.318955 0.677658 0.5
31 2 0.543443 0.64652 0.5
61 4 0.672498 0.673717 0.5
57 3 0.282781 0.701252 0.5
40 2 0.422723 0.701847 0.5
12 1 0.490553 0.719219 0.5
33 2 0.820117 0.707999 0.5
50 3 0.915316 0.722893 0.5
76 4 0.312534 0.756073 0.5
24 2 0.376971 0.747325 0.5
66 4 0.484605 0.759673 0.5
11 1 0.974402 0.77862 0.5
54 3 0.0865611 0.833083 0.5
52 3 0.142668 0.823769 0.5
59 3 0.256372 0.838909 0.5
10 1 0.973273 0.794634 0.5
28 2 0.95233 0.815369 0.5
35 2 0.960838 0.7997 0.5
36 2 0.0087988 0.881493 0.5
20 1 0.0733538 0.857129 0.5
3 1 0.449447 0.862846 0.5
37 2 0.421603 0.875281 0.5
67 4 0.522452 0.845126 0.5
79 4 0.675071 0.924096 0.5
65 4 0.845893 0.918755 0.5
80 4 0.285416 0.980141 0.5
42 3 0.55447 0.974474 0.5
22 2 0.874455 0.960986 0.5
ITEM: TIMESTEP
10
ITEM: NUMBER OF ATOMS
80
ITEM: BOX BOUNDS pp pp pp
-9.2606742203836561e+00 9.2606742203836561e+00
-9.2606742203836561e+00 9.2606742203836561e+00
-1.0000000000000001e-01 1.0000000000000001e-01
ITEM: ATOMS id type xs ys zs
43 3 0.145716 0.0509165 0.5
55 3 0.430356 0.0485213 0.5
2 1 0.489027 0.0209818 0.5
7 1 0.253589 0.0783563 0.5
74 4 0.458089 0.0988539 0.5
8 1 0.946217 0.065824 0.5
9 1 0.003876 0.143935 0.5
49 3 0.492958 0.147511 0.5
27 2 0.587919 0.156908 0.5
60 3 0.31137 0.189633 0.5
62 4 0.440899 0.192401 0.5
13 1 0.527281 0.210248 0.5
72 4 0.913439 0.171824 0.5
71 4 0.0229884 0.234747 0.5
70 4 0.101163 0.243503 0.5
58 3 0.361531 0.259199 0.5
78 4 0.515226 0.212004 0.5
45 3 0.587508 0.251507 0.5
19 1 0.98781 0.249772 0.5
21 2 0.146337 0.299211 0.5
63 4 0.259115 0.266793 0.5
77 4 0.264093 0.283176 0.5
4 1 0.436557 0.310774 0.5
25 2 0.189113 0.325886 0.5
29 2 0.483102 0.318537 0.5
46 3 0.486479 0.337875 0.5
5 1 0.667753 0.346142 0.5
75 4 0.635971 0.351209 0.5
41 3 0.844668 0.338988 0.5
23 2 0.17457 0.373443 0.5
30 2 0.210471 0.389513 0.5
44 3 0.21494 0.397459 0.5
56 3 0.829347 0.398107 0.5
32 2 0.452457 0.445977 0.5
1 1 0.560874 0.469854 0.5
14 1 0.778128 0.425167 0.5
48 3 0.00920612 0.480188 0.5
73 4 0.334178 0.525113 0.5
51 3 0.517877 0.493934 0.5
39 2 0.546375 0.525761 0.5
38 2 0.666956 0.525178 0.5
6 1 0.847416 0.519521 0.5
17 1 0.937957 0.49963 0.5
34 2 0.455082 0.557202 0.5
69 4 0.753349 0.529654 0.5
15 1 0.984622 0.53124 0.5
18 1 0.287059 0.608782 0.5
53 3 0.580627 0.598032 0.5
68 4 0.644412 0.624259 0.5
16 1 0.878751 0.627089 0.5
26 2 0.88886 0.607719 0.5
64 4 0.96154 0.600135 0.5
47 3 0.318978 0.677644 0.5
31 2 0.543443 0.64652 0.5
61 4 0.672498 0.673717 0.5
57 3 0.282758 0.701267 0.5
40 2 0.422714 0.701841 0.5
12 1 0.490574 0.71916 0.5
33 2 0.820117 0.707999 0.5
50 3 0.915316 0.722893 0.5
76 4 0.312534 0.756073 0.5
24 2 0.376967 0.747328 0.5
66 4 0.484596 0.759735 0.5
11 1 0.97457 0.778142 0.5
54 3 0.0866283 0.832961 0.5
52 3 0.142668 0.823769 0.5
59 3 0.256372 0.838909 0.5
10 1 0.973572 0.794676 0.5
28 2 0.952077 0.81573 0.5
35 2 0.960624 0.799776 0.5
36 2 0.00878345 0.881499 0.5
20 1 0.073302 0.857246 0.5
3 1 0.44959 0.862782 0.5
37 2 0.42146 0.875345 0.5
67 4 0.522452 0.845126 0.5
79 4 0.675071 0.924096 0.5
65 4 0.845892 0.918754 0.5
80 4 0.285416 0.980141 0.5
42 3 0.55447 0.974474 0.5
22 2 0.874455 0.960987 0.5
ITEM: TIMESTEP
20
ITEM: NUMBER OF ATOMS
80
ITEM: BOX BOUNDS pp pp pp
-8.3377979946276977e+00 8.3377979946276977e+00
-8.3377979946276977e+00 8.3377979946276977e+00
-1.0000000000000001e-01 1.0000000000000001e-01
ITEM: ATOMS id type xs ys zs
43 3 0.145716 0.0509165 0.5
55 3 0.430314 0.048541 0.5
2 1 0.489069 0.0209622 0.5
7 1 0.253589 0.0783563 0.5
74 4 0.458089 0.0988539 0.5
8 1 0.946217 0.065824 0.5
9 1 0.003876 0.143935 0.5
49 3 0.492955 0.147506 0.5
27 2 0.587923 0.156905 0.5
60 3 0.31137 0.189633 0.5
62 4 0.440899 0.192401 0.5
13 1 0.527865 0.210169 0.5
72 4 0.913439 0.171824 0.5
71 4 0.0232407 0.234639 0.5
70 4 0.101163 0.243503 0.5
58 3 0.361531 0.259199 0.5
78 4 0.514639 0.21209 0.5
45 3 0.587511 0.251509 0.5
19 1 0.987557 0.249879 0.5
21 2 0.146149 0.299093 0.5
63 4 0.259044 0.266561 0.5
77 4 0.264163 0.283408 0.5
4 1 0.436076 0.310645 0.5
25 2 0.18936 0.325758 0.5
29 2 0.483369 0.318101 0.5
46 3 0.486693 0.338439 0.5
5 1 0.668097 0.346087 0.5
75 4 0.635627 0.351264 0.5
41 3 0.844668 0.338988 0.5
23 2 0.174032 0.373431 0.5
30 2 0.210496 0.389135 0.5
44 3 0.215394 0.398094 0.5
56 3 0.829462 0.398046 0.5
32 2 0.452457 0.445977 0.5
1 1 0.561138 0.469516 0.5
14 1 0.778012 0.425228 0.5
48 3 0.0092708 0.480056 0.5
73 4 0.334178 0.525113 0.5
51 3 0.517524 0.493886 0.5
39 2 0.546464 0.526147 0.5
38 2 0.666956 0.525178 0.5
6 1 0.847415 0.519521 0.5
17 1 0.937672 0.499438 0.5
34 2 0.455082 0.557202 0.5
69 4 0.753349 0.529654 0.5
15 1 0.984843 0.531564 0.5
18 1 0.287059 0.608782 0.5
53 3 0.580635 0.598022 0.5
68 4 0.644412 0.624259 0.5
16 1 0.878441 0.627681 0.5
26 2 0.88917 0.607126 0.5
64 4 0.96154 0.600135 0.5
47 3 0.319076 0.67758 0.5
31 2 0.543435 0.64653 0.5
61 4 0.672498 0.673717 0.5
57 3 0.282661 0.70133 0.5
40 2 0.422673 0.701786 0.5
12 1 0.490686 0.718941 0.5
33 2 0.820117 0.707999 0.5
50 3 0.915316 0.722893 0.5
76 4 0.312534 0.756073 0.5
24 2 0.376932 0.747363 0.5
66 4 0.484561 0.759973 0.5
11 1 0.975165 0.776446 0.5
54 3 0.0868675 0.832522 0.5
52 3 0.14267 0.823768 0.5
59 3 0.256372 0.838909 0.5
10 1 0.974638 0.794824 0.5
28 2 0.951173 0.817017 0.5
35 2 0.959867 0.800037 0.5
36 2 0.00869684 0.881532 0.5
20 1 0.073148 0.857652 0.5
3 1 0.4501 0.862554 0.5
37 2 0.42095 0.875573 0.5
67 4 0.522452 0.845126 0.5
79 4 0.675071 0.924096 0.5
65 4 0.845878 0.918734 0.5
80 4 0.285416 0.980141 0.5
42 3 0.55447 0.974474 0.5
22 2 0.874469 0.961007 0.5
ITEM: TIMESTEP
30
ITEM: NUMBER OF ATOMS
80
ITEM: BOX BOUNDS pp pp pp
-7.6514028255390594e+00 7.6514028255390594e+00
-7.6514028255390594e+00 7.6514028255390594e+00
-1.0000000000000001e-01 1.0000000000000001e-01
ITEM: ATOMS id type xs ys zs
43 3 0.145716 0.0509165 0.5
55 3 0.430175 0.0486059 0.5
2 1 0.489205 0.0208988 0.5
7 1 0.253589 0.0783563 0.5
74 4 0.458089 0.0988539 0.5
8 1 0.946213 0.0658185 0.5
9 1 0.00388003 0.14394 0.5
49 3 0.49293 0.147461 0.5
27 2 0.587964 0.156869 0.5
60 3 0.31137 0.189633 0.5
62 4 0.440899 0.192401 0.5
13 1 0.528934 0.210063 0.5
72 4 0.913439 0.171824 0.5
71 4 0.0237524 0.234421 0.5
70 4 0.101163 0.243503 0.5
58 3 0.361531 0.259199 0.5
78 4 0.513519 0.212253 0.5
45 3 0.587547 0.251534 0.5
19 1 0.987046 0.250098 0.5
21 2 0.145747 0.29884 0.5
63 4 0.258906 0.266107 0.5
77 4 0.264301 0.283862 0.5
4 1 0.435076 0.310373 0.5
25 2 0.18987 0.325434 0.5
29 2 0.483922 0.317264 0.5
46 3 0.487141 0.339548 0.5
5 1 0.668779 0.345978 0.5
75 4 0.634945 0.351373 0.5
41 3 0.844669 0.338985 0.5
23 2 0.172924 0.373427 0.5
30 2 0.210604 0.388484 0.5
44 3 0.216286 0.399326 0.5
56 3 0.829731 0.397907 0.5
32 2 0.452457 0.445977 0.5
1 1 0.561692 0.468801 0.5
14 1 0.777743 0.425371 0.5
48 3 0.00944282 0.479748 0.5
73 4 0.334178 0.525113 0.5
51 3 0.516789 0.493787 0.5
39 2 0.546646 0.526961 0.5
38 2 0.666956 0.525178 0.5
6 1 0.847387 0.519527 0.5
17 1 0.937088 0.499044 0.5
34 2 0.455082 0.557202 0.5
69 4 0.753349 0.529654 0.5
15 1 0.985283 0.532259 0.5
18 1 0.287052 0.608765 0.5
53 3 0.58068 0.597963 0.5
68 4 0.644412 0.624259 0.5
16 1 0.877847 0.628819 0.5
26 2 0.889764 0.605988 0.5
64 4 0.96154 0.600136 0.5
47 3 0.319304 0.677453 0.5
31 2 0.543392 0.646586 0.5
61 4 0.672498 0.673717 0.5
57 3 0.28244 0.701474 0.5
40 2 0.422572 0.701619 0.5
12 1 0.490971 0.718508 0.5
33 2 0.820117 0.707999 0.5
50 3 0.915314 0.72289 0.5
76 4 0.312534 0.756073 0.5
24 2 0.376819 0.747476 0.5
66 4 0.484488 0.760463 0.5
11 1 0.976292 0.773198 0.5
54 3 0.0873071 0.831674 0.5
52 3 0.142706 0.82376 0.5
59 3 0.256372 0.838909 0.5
10 1 0.976709 0.795125 0.5
28 2 0.949433 0.819498 0.5
35 2 0.958412 0.800505 0.5
36 2 0.0084651 0.881618 0.5
20 1 0.0729035 0.858423 0.5
3 1 0.451092 0.862111 0.5
37 2 0.419958 0.876016 0.5
67 4 0.522452 0.845126 0.5
79 4 0.675071 0.924096 0.5
65 4 0.845825 0.918654 0.5
80 4 0.285416 0.980141 0.5
42 3 0.554472 0.974473 0.5
22 2 0.874523 0.961086 0.5
ITEM: TIMESTEP
40
ITEM: NUMBER OF ATOMS
80
ITEM: BOX BOUNDS pp pp pp
-7.1707838072952237e+00 7.1707838072952237e+00
-7.1707838072952237e+00 7.1707838072952237e+00
-1.0000000000000001e-01 1.0000000000000001e-01
ITEM: ATOMS id type xs ys zs
43 3 0.145716 0.0509165 0.5
55 3 0.429884 0.0487423 0.5
2 1 0.489466 0.0207839 0.5
7 1 0.253589 0.0783563 0.5
74 4 0.458089 0.0988544 0.5
8 1 0.946177 0.0657694 0.5
9 1 0.00391652 0.143988 0.5
49 3 0.492854 0.147327 0.5
27 2 0.588094 0.156752 0.5
60 3 0.31137 0.189633 0.5
62 4 0.440899 0.192401 0.5
13 1 0.530499 0.209978 0.5
72 4 0.913439 0.171824 0.5
71 4 0.0245864 0.234064 0.5
70 4 0.101163 0.243503 0.5
58 3 0.361531 0.259199 0.5
78 4 0.51178 0.212504 0.5
45 3 0.587666 0.251618 0.5
19 1 0.986212 0.250456 0.5
21 2 0.145055 0.298383 0.5
63 4 0.258687 0.265386 0.5
77 4 0.26452 0.284583 0.5
4 1 0.43342 0.309919 0.5
25 2 0.190715 0.324819 0.5
29 2 0.484841 0.315952 0.5
46 3 0.487878 0.341314 0.5
5 1 0.66987 0.345804 0.5
75 4 0.633854 0.351547 0.5
41 3 0.844678 0.338949 0.5
23 2 0.171105 0.373481 0.5
30 2 0.210861 0.387564 0.5
44 3 0.217694 0.401264 0.5
56 3 0.830205 0.397687 0.5
32 2 0.452457 0.445977 0.5
1 1 0.562616 0.467603 0.5
14 1 0.77726 0.425626 0.5
48 3 0.00979628 0.479191 0.5
73 4 0.334178 0.525113 0.5
51 3 0.515567 0.493625 0.5
39 2 0.546943 0.52832 0.5
38 2 0.666956 0.525178 0.5
6 1 0.847264 0.519551 0.5
17 1 0.936149 0.498391 0.5
34 2 0.455082 0.557202 0.5
69 4 0.753349 0.529654 0.5
15 1 0.985999 0.533418 0.5
18 1 0.287015 0.608687 0.5
53 3 0.580794 0.597816 0.5
68 4 0.644412 0.624259 0.5
16 1 0.876921 0.630594 0.5
26 2 0.890693 0.604216 0.5
64 4 0.961531 0.600159 0.5
47 3 0.319729 0.677278 0.5
31 2 0.543305 0.646698 0.5
61 4 0.672498 0.673717 0.5
57 3 0.282052 0.701727 0.5
40 2 0.422386 0.701278 0.5
12 1 0.491487 0.717842 0.5
33 2 0.820116 0.708001 0.5
50 3 0.915278 0.722861 0.5
76 4 0.312526 0.756074 0.5
24 2 0.37659 0.747711 0.5
66 4 0.484367 0.761271 0.5
11 1 0.978027 0.768189 0.5
54 3 0.087942 0.830341 0.5
52 3 0.142861 0.823718 0.5
59 3 0.256372 0.838909 0.5
10 1 0.979978 0.795622 0.5
28 2 0.946732 0.823355 0.5
35 2 0.956134 0.801163 0.5
36 2 0.00802559 0.881809 0.5
20 1 0.0725646 0.859632 0.5
3 1 0.452639 0.861417 0.5
37 2 0.418395 0.876714 0.5
67 4 0.522468 0.845123 0.5
79 4 0.675071 0.924096 0.5
65 4 0.845704 0.918476 0.5
80 4 0.285416 0.980141 0.5
42 3 0.554503 0.974451 0.5
22 2 0.874643 0.961264 0.5
ITEM: TIMESTEP
50
ITEM: NUMBER OF ATOMS
80
ITEM: BOX BOUNDS pp pp pp
-6.8583292998674565e+00 6.8583292998674565e+00
-6.8583292998674565e+00 6.8583292998674565e+00
-1.0000000000000001e-01 1.0000000000000001e-01
ITEM: ATOMS id type xs ys zs
43 3 0.145716 0.0509165 0.5
55 3 0.429391 0.048959 0.5
2 1 0.489855 0.0206247 0.5
7 1 0.253589 0.0783563 0.5
74 4 0.458094 0.0988637 0.5
8 1 0.946076 0.0656328 0.5
9 1 0.00402187 0.144098 0.5
49 3 0.492706 0.147073 0.5
27 2 0.588359 0.156511 0.5
60 3 0.31137 0.189633 0.5
62 4 0.440899 0.192401 0.5
13 1 0.532511 0.209958 0.5
72 4 0.913439 0.171824 0.5
71 4 0.0257701 0.233559 0.5
70 4 0.101161 0.2435 0.5
58 3 0.361514 0.259187 0.5
78 4 0.509404 0.212843 0.5
45 3 0.587915 0.251796 0.5
19 1 0.985023 0.250988 0.5
21 2 0.144025 0.297664 0.5
63 4 0.258383 0.264386 0.5
77 4 0.264824 0.285583 0.5
4 1 0.431066 0.309285 0.5
25 2 0.191942 0.323846 0.5
29 2 0.48617 0.31414 0.5
46 3 0.48892 0.343773 0.5
5 1 0.671397 0.345561 0.5
75 4 0.632328 0.35179 0.5
41 3 0.844704 0.338845 0.5
23 2 0.168513 0.37366 0.5
30 2 0.211321 0.386406 0.5
44 3 0.219633 0.403937 0.5
56 3 0.830913 0.397403 0.5
32 2 0.452448 0.44597 0.5
1 1 0.563946 0.465872 0.5
14 1 0.776526 0.426013 0.5
48 3 0.0103808 0.478337 0.5
73 4 0.334178 0.525113 0.5
51 3 0.513821 0.493402 0.5
39 2 0.547358 0.530261 0.5
38 2 0.666956 0.525178 0.5
6 1 0.846967 0.519573 0.5
17 1 0.934844 0.497447 0.5
34 2 0.455082 0.557202 0.5
69 4 0.753349 0.529654 0.5
15 1 0.987026 0.535066 0.5
18 1 0.286929 0.608505 0.5
53 3 0.581011 0.597565 0.5
68 4 0.644412 0.624259 0.5
16 1 0.875674 0.632997 0.5
26 2 0.891983 0.601823 0.5
64 4 0.961502 0.600246 0.5
47 3 0.320397 0.677081 0.5
31 2 0.543182 0.646853 0.5
61 4 0.672498 0.673717 0.5
57 3 0.28147 0.702106 0.5
40 2 0.422098 0.700718 0.5
12 1 0.49226 0.716968 0.5
33 2 0.820093 0.708032 0.5
50 3 0.915161 0.722774 0.5
76 4 0.312482 0.756079 0.5
24 2 0.376244 0.748097 0.5
66 4 0.484189 0.762429 0.5
11 1 0.980373 0.761455 0.5
54 3 0.0887398 0.8285 0.5
52 3 0.14321 0.823621 0.5
59 3 0.256372 0.838909 0.5
10 1 0.984491 0.796313 0.5
28 2 0.943051 0.828567 0.5
35 2 0.953 0.801951 0.5
36 2 0.00736556 0.882196 0.5
20 1 0.0721494 0.861313 0.5
3 1 0.454722 0.86047 0.5
37 2 0.416236 0.877678 0.5
67 4 0.522544 0.845105 0.5
79 4 0.675071 0.924096 0.5
65 4 0.845498 0.918171 0.5
80 4 0.285416 0.980141 0.5
42 3 0.5546 0.974382 0.5
22 2 0.87485 0.96157 0.5
ITEM: TIMESTEP
60
ITEM: NUMBER OF ATOMS
80
ITEM: BOX BOUNDS pp pp pp
-6.6608700705828179e+00 6.6608700705828179e+00
-6.6608700705828179e+00 6.6608700705828179e+00
-1.0000000000000001e-01 1.0000000000000001e-01
ITEM: ATOMS id type xs ys zs
43 3 0.145716 0.0509165 0.5
55 3 0.428667 0.0492497 0.5
2 1 0.490367 0.0204306 0.5
7 1 0.253589 0.0783563 0.5
74 4 0.458104 0.0988866 0.5
8 1 0.945887 0.0653776 0.5
9 1 0.00422502 0.14427 0.5
49 3 0.49248 0.146693 0.5
27 2 0.588788 0.156113 0.5
60 3 0.31137 0.189633 0.5
62 4 0.440899 0.192401 0.5
13 1 0.534892 0.210034 0.5
72 4 0.913439 0.171824 0.5
71 4 0.0273015 0.232905 0.5
70 4 0.101142 0.243476 0.5
58 3 0.361444 0.259137 0.5
78 4 0.506421 0.213262 0.5
45 3 0.588325 0.252096 0.5
19 1 0.983477 0.251726 0.5
21 2 0.142651 0.296676 0.5
63 4 0.257996 0.263113 0.5
77 4 0.265211 0.286856 0.5
4 1 0.428062 0.308509 0.5
25 2 0.19357 0.322484 0.5
29 2 0.487921 0.311839 0.5
46 3 0.490243 0.346899 0.5
5 1 0.673349 0.34525 0.5
75 4 0.630375 0.352101 0.5
41 3 0.844752 0.338646 0.5
23 2 0.165148 0.374017 0.5
30 2 0.212021 0.385045 0.5
44 3 0.222063 0.407316 0.5
56 3 0.831863 0.397075 0.5
32 2 0.452404 0.445936 0.5
1 1 0.56568 0.463613 0.5
14 1 0.775525 0.426538 0.5
48 3 0.0112148 0.47717 0.5
73 4 0.334178 0.525113 0.5
51 3 0.511581 0.493139 0.5
39 2 0.54787 0.532742 0.5
38 2 0.666956 0.525178 0.5
6 1 0.846431 0.519571 0.5
17 1 0.933202 0.496198 0.5
34 2 0.455081 0.557202 0.5
69 4 0.753349 0.529654 0.5
15 1 0.988378 0.537183 0.5
18 1 0.286779 0.608185 0.5
53 3 0.581365 0.597227 0.5
68 4 0.644412 0.624259 0.5
16 1 0.87415 0.635958 0.5
26 2 0.893621 0.598878 0.5
64 4 0.961458 0.60043 0.5
47 3 0.321332 0.676884 0.5
31 2 0.543035 0.647032 0.5
61 4 0.672498 0.673717 0.5
57 3 0.280684 0.702622 0.5
40 2 0.421697 0.699914 0.5
12 1 0.493291 0.715928 0.5
33 2 0.820016 0.708135 0.5
50 3 0.91492 0.722614 0.5
76 4 0.312375 0.756094 0.5
24 2 0.375789 0.748653 0.5
66 4 0.483952 0.763937 0.5
11 1 0.983271 0.753189 0.5
54 3 0.0896558 0.826164 0.5
52 3 0.143803 0.823458 0.5
59 3 0.256372 0.838909 0.5
10 1 0.990155 0.79716 0.5
28 2 0.93847 0.834979 0.5
35 2 0.949052 0.802784 0.5
36 2 0.00649102 0.882859 0.5
20 1 0.0717235 0.863485 0.5
3 1 0.457277 0.85929 0.5
37 2 0.4135 0.8789 0.5
67 4 0.522725 0.845063 0.5
79 4 0.675071 0.924096 0.5
65 4 0.845194 0.917722 0.5
80 4 0.285416 0.980141 0.5
42 3 0.554791 0.974246 0.5
22 2 0.875153 0.962018 0.5
ITEM: TIMESTEP
70
ITEM: NUMBER OF ATOMS
80
ITEM: BOX BOUNDS pp pp pp
-6.5589976154250369e+00 6.5589976154250369e+00
-6.5589976154250369e+00 6.5589976154250369e+00
-1.0000000000000001e-01 1.0000000000000001e-01
ITEM: ATOMS id type xs ys zs
43 3 0.145716 0.0509165 0.5
55 3 0.427701 0.0496045 0.5
2 1 0.490988 0.0202059 0.5
7 1 0.253589 0.0783563 0.5
74 4 0.458112 0.0989281 0.5
8 1 0.945599 0.0649878 0.5
9 1 0.00454229 0.144499 0.5
49 3 0.492182 0.1462 0.5
27 2 0.589398 0.155536 0.5
60 3 0.31137 0.189633 0.5
62 4 0.440899 0.192401 0.5
13 1 0.537542 0.210226 0.5
72 4 0.913439 0.171824 0.5
71 4 0.0291506 0.232114 0.5
70 4 0.10109 0.24341 0.5
58 3 0.361289 0.259024 0.5
78 4 0.5029 0.213745 0.5
45 3 0.588917 0.252537 0.5
19 1 0.981599 0.252676 0.5
21 2 0.140961 0.295442 0.5
63 4 0.257536 0.261596 0.5
77 4 0.265672 0.288373 0.5
4 1 0.424517 0.30765 0.5
25 2 0.19559 0.320734 0.5
29 2 0.490068 0.309096 0.5
46 3 0.491795 0.350615 0.5
5 1 0.675686 0.344877 0.5
75 4 0.628038 0.352474 0.5
41 3 0.844825 0.338335 0.5
23 2 0.161073 0.37459 0.5
30 2 0.212975 0.383524 0.5
44 3 0.224905 0.411314 0.5
56 3 0.833045 0.396726 0.5
32 2 0.452301 0.445855 0.5
1 1 0.567779 0.460878 0.5
14 1 0.774256 0.427179 0.5
48 3 0.0122863 0.475704 0.5
73 4 0.334178 0.525113 0.5
51 3 0.508929 0.492856 0.5
39 2 0.548461 0.53567 0.5
38 2 0.666956 0.525178 0.5
6 1 0.84562 0.519539 0.5
17 1 0.931285 0.494649 0.5
34 2 0.455065 0.557211 0.5
69 4 0.753349 0.529654 0.5
15 1 0.990044 0.539716 0.5
18 1 0.28656 0.607702 0.5
53 3 0.581879 0.596829 0.5
68 4 0.644412 0.624259 0.5
16 1 0.872412 0.639355 0.5
26 2 0.895559 0.595484 0.5
64 4 0.961414 0.600736 0.5
47 3 0.322532 0.676705 0.5
31 2 0.542879 0.647214 0.5
61 4 0.672498 0.673717 0.5
57 3 0.279696 0.703272 0.5
40 2 0.421182 0.698865 0.5
12 1 0.494563 0.714772 0.5
33 2 0.819859 0.708347 0.5
50 3 0.91453 0.722393 0.5
76 4 0.312191 0.756129 0.5
24 2 0.375245 0.74938 0.5
66 4 0.483653 0.765771 0.5
11 1 0.986609 0.743713 0.5
54 3 0.0906388 0.823374 0.5
52 3 0.144659 0.82323 0.5
59 3 0.256372 0.838909 0.5
10 1 0.996768 0.798104 0.5
28 2 0.933154 0.842328 0.5
35 2 0.944406 0.803577 0.5
36 2 0.00541276 0.883837 0.5
20 1 0.0713696 0.866147 0.5
3 1 0.460205 0.85791 0.5
37 2 0.410252 0.880352 0.5
67 4 0.523045 0.844991 0.5
79 4 0.675071 0.924096 0.5
65 4 0.844793 0.917128 0.5
80 4 0.285416 0.980141 0.5
42 3 0.555094 0.974029 0.5
22 2 0.875555 0.962612 0.5
ITEM: TIMESTEP
80
ITEM: NUMBER OF ATOMS
80
ITEM: BOX BOUNDS pp pp pp
-6.5409289763578302e+00 6.5409289763578302e+00
-6.5409289763578302e+00 6.5409289763578302e+00
-1.0000000000000001e-01 1.0000000000000001e-01
ITEM: ATOMS id type xs ys zs
43 3 0.145716 0.0509165 0.5
55 3 0.426511 0.0500109 0.5
2 1 0.491697 0.0199585 0.5
7 1 0.253589 0.0783563 0.5
74 4 0.458112 0.0989884 0.5
8 1 0.945212 0.0644642 0.5
9 1 0.00497546 0.144784 0.5
49 3 0.491822 0.145619 0.5
27 2 0.590185 0.154772 0.5
60 3 0.31137 0.189633 0.5
62 4 0.440899 0.192401 0.5
13 1 0.540349 0.210526 0.5
72 4 0.913439 0.171824 0.5
71 4 0.0312599 0.231211 0.5
70 4 0.100992 0.243284 0.5
58 3 0.361026 0.258827 0.5
78 4 0.498953 0.214273 0.5
45 3 0.589692 0.253129 0.5
19 1 0.979443 0.253818 0.5
21 2 0.139013 0.294016 0.5
63 4 0.257016 0.259885 0.5
77 4 0.266193 0.290083 0.5
4 1 0.420592 0.306779 0.5
25 2 0.197957 0.318637 0.5
29 2 0.492548 0.306 0.5
46 3 0.493501 0.354787 0.5
5 1 0.678334 0.344455 0.5
75 4 0.625391 0.352896 0.5
41 3 0.844922 0.337906 0.5
23 2 0.156426 0.37539 0.5
30 2 0.214167 0.38189 0.5
44 3 0.228037 0.415797 0.5
56 3 0.834426 0.396378 0.5
32 2 0.452121 0.44571 0.5
1 1 0.570167 0.457766 0.5
14 1 0.772741 0.427909 0.5
48 3 0.0135543 0.473983 0.5
73 4 0.334178 0.525113 0.5
51 3 0.505987 0.492568 0.5
39 2 0.549104 0.538908 0.5
38 2 0.666956 0.525178 0.5
6 1 0.844525 0.519486 0.5
17 1 0.92919 0.492811 0.5
34 2 0.455011 0.557244 0.5
69 4 0.753349 0.529654 0.5
15 1 0.991999 0.542569 0.5
18 1 0.28627 0.607059 0.5
53 3 0.582563 0.596401 0.5
68 4 0.644412 0.624259 0.5
16 1 0.870527 0.643018 0.5
26 2 0.897719 0.59179 0.5
64 4 0.961379 0.60118 0.5
47 3 0.323974 0.67656 0.5
31 2 0.542729 0.647377 0.5
61 4 0.672498 0.673717 0.5
57 3 0.278528 0.704034 0.5
40 2 0.420563 0.697587 0.5
12 1 0.496038 0.713562 0.5
33 2 0.819599 0.708693 0.5
50 3 0.913993 0.722152 0.5
76 4 0.311926 0.756189 0.5
24 2 0.374636 0.750268 0.5
66 4 0.483298 0.767877 0.5
11 1 0.990235 0.733436 0.5
54 3 0.0916509 0.82021 0.5
52 3 0.145768 0.822948 0.5
59 3 0.256372 0.838909 0.5
10 1 0.00402953 0.799078 0.5
28 2 0.927342 0.850289 0.5
35 2 0.939246 0.804254 0.5
36 2 0.00414367 0.885128 0.5
20 1 0.0711648 0.869256 0.5
3 1 0.463378 0.85638 0.5
37 2 0.406593 0.881988 0.5
67 4 0.52353 0.844886 0.5
79 4 0.675071 0.924096 0.5
65 4 0.844302 0.916402 0.5
80 4 0.285416 0.980141 0.5
42 3 0.555515 0.973727 0.5
22 2 0.876046 0.963338 0.5
ITEM: TIMESTEP
90
ITEM: NUMBER OF ATOMS
80
ITEM: BOX BOUNDS pp pp pp
-6.5903420695834587e+00 6.5903420695834587e+00
-6.5903420695834587e+00 6.5903420695834587e+00
-1.0000000000000001e-01 1.0000000000000001e-01
ITEM: ATOMS id type xs ys zs
43 3 0.145716 0.0509165 0.5
55 3 0.425132 0.0504556 0.5
2 1 0.492465 0.0197036 0.5
7 1 0.253589 0.0783563 0.5
74 4 0.458103 0.0990577 0.5
8 1 0.944737 0.0638225 0.5
9 1 0.0055121 0.145121 0.5
49 3 0.49142 0.144982 0.5
27 2 0.591132 0.15383 0.5
60 3 0.31137 0.189633 0.5
62 4 0.440899 0.192401 0.5
13 1 0.543202 0.210902 0.5
72 4 0.913439 0.171824 0.5
71 4 0.0335534 0.230228 0.5
70 4 0.100842 0.243087 0.5
58 3 0.360643 0.258534 0.5
78 4 0.494714 0.214828 0.5
45 3 0.590639 0.253869 0.5
19 1 0.977088 0.255106 0.5
21 2 0.136883 0.292469 0.5
63 4 0.256455 0.25804 0.5
77 4 0.266771 0.291921 0.5
4 1 0.416477 0.305967 0.5
25 2 0.200576 0.316267 0.5
29 2 0.49526 0.302675 0.5
46 3 0.49527 0.359247 0.5
5 1 0.681198 0.343999 0.5
75 4 0.622527 0.353353 0.5
41 3 0.845039 0.337365 0.5
23 2 0.151399 0.376402 0.5
30 2 0.215557 0.380199 0.5
44 3 0.231319 0.420598 0.5
56 3 0.835961 0.396054 0.5
32 2 0.451857 0.445492 0.5
1 1 0.572746 0.454407 0.5
14 1 0.771028 0.428696 0.5
48 3 0.014957 0.472074 0.5
73 4 0.334178 0.525113 0.5
51 3 0.502897 0.492288 0.5
39 2 0.549761 0.542299 0.5
38 2 0.666956 0.525178 0.5
6 1 0.843158 0.519417 0.5
17 1 0.927027 0.490711 0.5
34 2 0.454912 0.557311 0.5
69 4 0.753349 0.529654 0.5
15 1 0.994207 0.545618 0.5
18 1 0.285918 0.606285 0.5
53 3 0.583414 0.595977 0.5
68 4 0.644412 0.624259 0.5
16 1 0.86857 0.646777 0.5
26 2 0.899999 0.587959 0.5
64 4 0.961356 0.601764 0.5
47 3 0.325609 0.676454 0.5
31 2 0.5426 0.647496 0.5
61 4 0.672498 0.673717 0.5
57 3 0.277218 0.70487 0.5
40 2 0.419854 0.696118 0.5
12 1 0.497662 0.71236 0.5
33 2 0.819225 0.709186 0.5
50 3 0.913335 0.721931 0.5
76 4 0.311583 0.756274 0.5
24 2 0.373989 0.751294 0.5
66 4 0.482895 0.770184 0.5
11 1 0.994007 0.722739 0.5
54 3 0.0926887 0.81678 0.5
52 3 0.147088 0.822635 0.5
59 3 0.256372 0.838909 0.5
10 1 0.0115649 0.800014 0.5
28 2 0.921275 0.858577 0.5
35 2 0.933803 0.804754 0.5
36 2 0.00269617 0.886688 0.5
20 1 0.071169 0.872737 0.5
3 1 0.466657 0.854756 0.5
37 2 0.402653 0.88375 0.5
67 4 0.524191 0.844747 0.5
79 4 0.675071 0.924096 0.5
65 4 0.843738 0.915569 0.5
80 4 0.285416 0.980141 0.5
42 3 0.556048 0.973345 0.5
22 2 0.87661 0.964172 0.5
ITEM: TIMESTEP
100
ITEM: NUMBER OF ATOMS
80
ITEM: BOX BOUNDS pp pp pp
-6.6752455018039925e+00 6.6752455018039925e+00
-6.6752455018039925e+00 6.6752455018039925e+00
-1.0000000000000001e-01 1.0000000000000001e-01
ITEM: ATOMS id type xs ys zs
43 3 0.145716 0.0509165 0.5
55 3 0.423609 0.0509279 0.5
2 1 0.493261 0.0194596 0.5
7 1 0.253589 0.0783563 0.5
74 4 0.458082 0.0991202 0.5
8 1 0.944192 0.0630869 0.5
9 1 0.00613076 0.145507 0.5
49 3 0.490995 0.144322 0.5
27 2 0.592212 0.152724 0.5
60 3 0.31137 0.189633 0.5
62 4 0.440899 0.192401 0.5
13 1 0.546008 0.211315 0.5
72 4 0.913439 0.171824 0.5
71 4 0.0359558 0.229196 0.5
70 4 0.100636 0.242814 0.5
58 3 0.360138 0.258135 0.5
78 4 0.490304 0.215391 0.5
45 3 0.591739 0.254752 0.5
19 1 0.974613 0.256488 0.5
21 2 0.134647 0.290873 0.5
63 4 0.255872 0.256121 0.5
77 4 0.267405 0.293822 0.5
4 1 0.412349 0.305279 0.5
25 2 0.203337 0.313705 0.5
29 2 0.498105 0.299245 0.5
46 3 0.497024 0.363833 0.5
5 1 0.684186 0.343522 0.5
75 4 0.619539 0.353829 0.5
41 3 0.845171 0.336725 0.5
23 2 0.146173 0.377575 0.5
30 2 0.217091 0.3785 0.5
44 3 0.234641 0.425573 0.5
56 3 0.837603 0.395767 0.5
32 2 0.45151 0.445196 0.5
1 1 0.575416 0.450934 0.5
14 1 0.769171 0.429516 0.5
48 3 0.0164284 0.470049 0.5
73 4 0.334178 0.525113 0.5
51 3 0.499788 0.492031 0.5
39 2 0.550389 0.545695 0.5
38 2 0.666956 0.525178 0.5
6 1 0.841544 0.519342 0.5
17 1 0.924897 0.488389 0.5
34 2 0.454772 0.557414 0.5
69 4 0.753349 0.529654 0.5
15 1 0.996625 0.548746 0.5
18 1 0.285513 0.60542 0.5
53 3 0.584423 0.595585 0.5
68 4 0.644412 0.624259 0.5
16 1 0.866605 0.650487 0.5
26 2 0.902315 0.584118 0.5
64 4 0.961344 0.602485 0.5
47 3 0.327384 0.676389 0.5
31 2 0.542503 0.647554 0.5
61 4 0.672498 0.673717 0.5
57 3 0.275811 0.705743 0.5
40 2 0.419075 0.694498 0.5
12 1 0.49938 0.711217 0.5
33 2 0.818731 0.70983 0.5
50 3 0.912607 0.721765 0.5
76 4 0.311167 0.75638 0.5
24 2 0.373329 0.75243 0.5
66 4 0.482457 0.772614 0.5
11 1 0.997789 0.71195 0.5
54 3 0.0937608 0.813185 0.5
52 3 0.148565 0.822315 0.5
59 3 0.256372 0.838909 0.5
10 1 0.0190351 0.800861 0.5
28 2 0.915169 0.86696 0.5
35 2 0.928296 0.80503 0.5
36 2 0.00107749 0.888449 0.5
20 1 0.071419 0.876505 0.5
3 1 0.469917 0.853099 0.5
37 2 0.398553 0.885586 0.5
67 4 0.52503 0.844577 0.5
79 4 0.675071 0.924096 0.5
65 4 0.843121 0.914657 0.5
80 4 0.285416 0.980141 0.5
42 3 0.556677 0.972892 0.5
22 2 0.877226 0.965084 0.5
ITEM: TIMESTEP
110
ITEM: NUMBER OF ATOMS
80
ITEM: BOX BOUNDS pp pp pp
-6.7568684577615787e+00 6.7568684577615787e+00
-6.7568684577615787e+00 6.7568684577615787e+00
-1.0000000000000001e-01 1.0000000000000001e-01
ITEM: ATOMS id type xs ys zs
43 3 0.145716 0.0509165 0.5
55 3 0.42198 0.0514219 0.5
2 1 0.494064 0.0192385 0.5
7 1 0.253589 0.0783563 0.5
74 4 0.458048 0.099163 0.5
8 1 0.943593 0.0622798 0.5
9 1 0.00680958 0.145945 0.5
49 3 0.490566 0.143666 0.5
27 2 0.593408 0.151466 0.5
60 3 0.31137 0.189633 0.5
62 4 0.440899 0.192401 0.5
13 1 0.548707 0.211728 0.5
72 4 0.913439 0.171824 0.5
71 4 0.0384128 0.228139 0.5
70 4 0.100372 0.24246 0.5
58 3 0.35951 0.257624 0.5
78 4 0.485806 0.215955 0.5
45 3 0.592979 0.255771 0.5
19 1 0.972076 0.257914 0.5
21 2 0.132364 0.289288 0.5
63 4 0.255278 0.254167 0.5
77 4 0.268098 0.295741 0.5
4 1 0.408312 0.304742 0.5
25 2 0.206144 0.311014 0.5
29 2 0.501002 0.295799 0.5
46 3 0.498729 0.368445 0.5
5 1 0.687234 0.343036 0.5
75 4 0.61649 0.354315 0.5
41 3 0.845312 0.335999 0.5
23 2 0.140861 0.378841 0.5
30 2 0.218724 0.376826 0.5
44 3 0.23796 0.430646 0.5
56 3 0.839317 0.395528 0.5
32 2 0.451079 0.444819 0.5
1 1 0.578102 0.447446 0.5
14 1 0.767216 0.430354 0.5
48 3 0.0179148 0.467965 0.5
73 4 0.334178 0.525113 0.5
51 3 0.496755 0.491807 0.5
39 2 0.550948 0.548987 0.5
38 2 0.666956 0.525178 0.5
6 1 0.839703 0.519267 0.5
17 1 0.922874 0.485879 0.5
34 2 0.454602 0.557552 0.5
69 4 0.753349 0.529654 0.5
15 1 0.999219 0.55187 0.5
18 1 0.285067 0.604489 0.5
53 3 0.585587 0.595245 0.5
68 4 0.644412 0.624259 0.5
16 1 0.864677 0.654057 0.5
26 2 0.904619 0.580338 0.5
64 4 0.961335 0.603337 0.5
47 3 0.329255 0.676361 0.5
31 2 0.542446 0.647535 0.5
61 4 0.672498 0.673717 0.5
57 3 0.274343 0.706634 0.5
40 2 0.418239 0.692759 0.5
12 1 0.501149 0.710173 0.5
33 2 0.818112 0.710628 0.5
50 3 0.911864 0.721672 0.5
76 4 0.310685 0.756499 0.5
24 2 0.372673 0.753657 0.5
66 4 0.481994 0.775096 0.5
11 1 0.00150647 0.701247 0.5
54 3 0.0948887 0.809493 0.5
52 3 0.15015 0.822012 0.5
59 3 0.256372 0.838909 0.5
10 1 0.0262477 0.801562 0.5
28 2 0.909118 0.875334 0.5
35 2 0.922861 0.805089 0.5
36 2 0.999285 0.890349 0.5
20 1 0.0719327 0.880492 0.5
3 1 0.473069 0.851463 0.5
37 2 0.394374 0.887459 0.5
67 4 0.526051 0.844381 0.5
79 4 0.675071 0.924096 0.5
65 4 0.842467 0.91369 0.5
80 4 0.285416 0.980141 0.5
42 3 0.557393 0.972375 0.5
22 2 0.87788 0.966051 0.5
ITEM: TIMESTEP
120
ITEM: NUMBER OF ATOMS
80
ITEM: BOX BOUNDS pp pp pp
-6.8000326073169237e+00 6.8000326073169237e+00
-6.8000326073169237e+00 6.8000326073169237e+00
-1.0000000000000001e-01 1.0000000000000001e-01
ITEM: ATOMS id type xs ys zs
43 3 0.145716 0.0509165 0.5
55 3 0.420263 0.0519372 0.5
2 1 0.494862 0.0190444 0.5
7 1 0.253589 0.0783563 0.5
74 4 0.457997 0.0991787 0.5
8 1 0.942949 0.0614149 0.5
9 1 0.00753326 0.146439 0.5
49 3 0.490148 0.143031 0.5
27 2 0.59471 0.150057 0.5
60 3 0.31137 0.189633 0.5
62 4 0.440891 0.192396 0.5
13 1 0.551274 0.212109 0.5
72 4 0.913439 0.171824 0.5
71 4 0.040898 0.227068 0.5
70 4 0.100048 0.242015 0.5
58 3 0.358755 0.256989 0.5
78 4 0.481255 0.216522 0.5
45 3 0.594358 0.256932 0.5
19 1 0.96951 0.259356 0.5
21 2 0.130062 0.287752 0.5
63 4 0.254679 0.252198 0.5
77 4 0.268862 0.29766 0.5
4 1 0.404398 0.304359 0.5
25 2 0.20893 0.308222 0.5
29 2 0.503905 0.292392 0.5
46 3 0.500398 0.373049 0.5
5 1 0.690311 0.342544 0.5
75 4 0.613412 0.354806 0.5
41 3 0.84546 0.335191 0.5
23 2 0.135521 0.38014 0.5
30 2 0.220421 0.375198 0.5
44 3 0.241277 0.435798 0.5
56 3 0.841087 0.395342 0.5
32 2 0.450564 0.444354 0.5
1 1 0.580761 0.443997 0.5
14 1 0.765186 0.431204 0.5
48 3 0.0193905 0.465854 0.5
73 4 0.334178 0.525113 0.5
51 3 0.493848 0.491625 0.5
39 2 0.55141 0.552114 0.5