ITEM: TIMESTEP
250
ITEM: NUMBER OF ATOMS
65
ITEM: BOX BOUNDS pp pp pp
-4.8090992578870573e+00 4.8090992578870573e+00
-4.8110952281541861e+00 4.8110952281541861e+00
-1.0000000000000001e-01 1.0000000000000001e-01
ITEM: ATOMS id type xs ys zs
28 1 0.0630559 0.0349057 0.500573
2 1 0.194204 0.0559608 0.500105
19 1 0.45386 0.052507 0.499735
38 1 0.593389 0.00534923 0.498808
68 1 0.664405 0.0436164 0.499998
8 1 0.879125 0.0717453 0.500366
18 1 0.163641 0.200178 0.500104
16 1 0.613146 0.242105 0.500753
14 1 0.733181 0.133555 0.499626
27 1 0.871104 0.213957 0.500312
10 1 0.0133187 0.173633 0.49952
21 1 0.095228 0.311287 0.50072
26 1 0.353075 0.258415 0.500193
37 1 0.45981 0.1871 0.500008
49 1 0.504863 0.274759 0.500858
9 1 0.754537 0.277034 0.499811
1 1 0.956662 0.320045 0.500164
62 1 0.0408451 0.399049 0.499687
39 1 0.175899 0.398732 0.499994
24 1 0.289565 0.365658 0.500172
20 1 0.432592 0.373772 0.499797
59 1 0.575359 0.341682 0.49961
17 1 0.690786 0.412177 0.499801
13 1 0.831522 0.397127 0.501182
50 1 0.0776422 0.468692 0.500053
78 1 0.111668 0.538051 0.499786
32 1 0.199569 0.520745 0.498998
15 1 0.336517 0.504211 0.499564
58 1 0.833967 0.52277 0.499929
35 1 0.96795 0.460317 0.500047
52 1 0.0501964 0.563296 0.500772
51 1 0.950521 0.685531 0.500525
40 1 0.156028 0.619615 0.499689
45 1 0.255356 0.62246 0.500127
29 1 0.444605 0.59093 0.499828
43 1 0.34646 0.625681 0.500122
12 1 0.582632 0.654276 0.50067
5 1 0.735597 0.620314 0.499683
79 1 0.840143 0.597424 0.499602
34 1 0.941227 0.575283 0.500089
47 1 0.0491569 0.653051 0.500942
46 1 0.176889 0.724529 0.500334
44 1 0.277872 0.716689 0.500199
60 1 0.365533 0.723642 0.499442
57 1 0.467375 0.704077 0.500125
56 1 0.753123 0.758179 0.499218
31 1 0.850711 0.716547 0.498787
53 1 0.972818 0.780461 0.499623
6 1 0.0115378 0.881535 0.501
30 1 0.0815341 0.76619 0.499608
41 1 0.216852 0.795419 0.500445
25 1 0.418168 0.815782 0.499474
76 1 0.517792 0.789454 0.499935
33 1 0.620159 0.791403 0.500249
11 1 0.734814 0.875948 0.499413
65 1 0.82044 0.796138 0.500154
54 1 0.894217 0.812959 0.500185
22 1 0.870511 0.923544 0.500151
7 1 0.16885 0.910907 0.49995
75 1 0.461825 0.90428 0.499738
63 1 0.496558 0.952339 0.500144
36 1 0.548472 0.878793 0.499296
67 1 0.660438 0.954722 0.500185
23 1 0.753183 0.999628 0.500338
42 1 0.961327 0.976534 0.499991
ITEM: TIMESTEP
500
ITEM: NUMBER OF ATOMS
65
ITEM: BOX BOUNDS pp pp pp
-4.8078968953001162e+00 4.8078968953001162e+00
-4.8076372117476405e+00 4.8076372117476405e+00
-1.0000000000000001e-01 1.0000000000000001e-01
ITEM: ATOMS id type xs ys zs
28 1 0.0636396 0.0358762 0.500663
2 1 0.194178 0.0560922 0.500158
19 1 0.453258 0.0521891 0.498393
38 1 0.592177 0.00502363 0.499978
68 1 0.663638 0.0432496 0.499153
8 1 0.87947 0.0719807 0.50038
18 1 0.164079 0.200026 0.501141
16 1 0.613692 0.241146 0.501454
14 1 0.732887 0.133131 0.500881
27 1 0.871559 0.21464 0.499284
10 1 0.013405 0.174576 0.500437
21 1 0.0955098 0.311538 0.500465
26 1 0.353398 0.258426 0.50114
37 1 0.4605 0.186797 0.500901
49 1 0.505406 0.275077 0.500327
9 1 0.754413 0.276507 0.500112
1 1 0.956922 0.320504 0.501789
62 1 0.0418688 0.39904 0.49918
39 1 0.175838 0.399133 0.501539
24 1 0.289039 0.365279 0.499396
20 1 0.432226 0.374261 0.498656
59 1 0.576556 0.341908 0.49936
17 1 0.691605 0.412152 0.498673
13 1 0.83218 0.397114 0.501802
50 1 0.0781991 0.469045 0.500013
78 1 0.11123 0.538706 0.501251
32 1 0.198797 0.520913 0.497453
15 1 0.336372 0.504742 0.501585
58 1 0.832979 0.522623 0.500927
35 1 0.96869 0.46021 0.500831
52 1 0.049652 0.564045 0.499325
51 1 0.950587 0.685144 0.499493
40 1 0.1561 0.620125 0.500317
45 1 0.255448 0.621997 0.500175
29 1 0.444666 0.591159 0.499851
43 1 0.346687 0.626122 0.50056
12 1 0.583171 0.654674 0.498968
5 1 0.735176 0.622362 0.500545
79 1 0.838863 0.598126 0.497116
34 1 0.940304 0.575053 0.500699
47 1 0.0494095 0.654111 0.500133
46 1 0.17759 0.725227 0.498833
44 1 0.278459 0.716323 0.502439
60 1 0.366589 0.72389 0.497987
57 1 0.467987 0.704512 0.500429
56 1 0.753054 0.75829 0.499336
31 1 0.851038 0.716512 0.499855
53 1 0.973507 0.7803 0.498766
6 1 0.0112928 0.881377 0.500549
30 1 0.0823487 0.76696 0.500099
41 1 0.217739 0.796005 0.501297
25 1 0.417076 0.816787 0.499963
76 1 0.517033 0.790582 0.500851
33 1 0.619859 0.791301 0.499524
11 1 0.735006 0.876172 0.499111
65 1 0.820901 0.795697 0.502012
54 1 0.894476 0.812648 0.500277
22 1 0.870461 0.923592 0.50055
7 1 0.169451 0.911115 0.502363
75 1 0.461853 0.905474 0.499517
63 1 0.497651 0.953202 0.498289
36 1 0.548361 0.879201 0.498946
67 1 0.660575 0.954944 0.500991
23 1 0.753362 0.999954 0.500365
42 1 0.961584 0.97685 0.50128
ITEM: TIMESTEP
750
ITEM: NUMBER OF ATOMS
65
ITEM: BOX BOUNDS pp pp pp
-4.8066945327131760e+00 4.8066945327131760e+00
-4.8085421213704729e+00 4.8085421213704729e+00
-1.0000000000000001e-01 1.0000000000000001e-01
ITEM: ATOMS id type xs ys zs
28 1 0.0637232 0.036037 0.503675
2 1 0.194943 0.056098 0.500313
19 1 0.453583 0.0519384 0.49752
38 1 0.592883 0.00507736 0.501864
68 1 0.663935 0.0433937 0.500367
8 1 0.879731 0.0726151 0.49997
18 1 0.164177 0.20035 0.50076
16 1 0.613303 0.240279 0.500411
14 1 0.732777 0.133058 0.503049
27 1 0.871522 0.214424 0.497982
10 1 0.0132628 0.174193 0.500581
21 1 0.0954299 0.310677 0.499141
26 1 0.354803 0.258458 0.500863
37 1 0.461022 0.186056 0.500059
49 1 0.504904 0.275041 0.500779
9 1 0.7533 0.276613 0.498494
1 1 0.957112 0.320477 0.502672
62 1 0.0421427 0.399561 0.498341
39 1 0.175407 0.398966 0.501235
24 1 0.289765 0.366299 0.499892
20 1 0.432844 0.37486 0.49863
59 1 0.577065 0.34061 0.501068
17 1 0.691026 0.412907 0.499625
13 1 0.83139 0.396599 0.501167
50 1 0.0786529 0.469359 0.499769
78 1 0.111636 0.539093 0.501805
32 1 0.199508 0.520918 0.495674
15 1 0.337127 0.505445 0.500308
58 1 0.833704 0.521564 0.499963
35 1 0.968977 0.460463 0.501186
52 1 0.0500573 0.564172 0.500106
51 1 0.950826 0.685678 0.499376
40 1 0.156916 0.619688 0.49937
45 1 0.256326 0.621845 0.499359
29 1 0.445297 0.590821 0.499908
43 1 0.347363 0.626933 0.502625
12 1 0.583418 0.655403 0.499393
5 1 0.735371 0.622731 0.500604
79 1 0.838756 0.596805 0.499269
34 1 0.940358 0.575362 0.49698
47 1 0.0497623 0.654053 0.501987
46 1 0.17763 0.725386 0.498302
44 1 0.278219 0.716019 0.50438
60 1 0.366139 0.725648 0.498561
57 1 0.467643 0.703798 0.499506
56 1 0.753685 0.758384 0.498822
31 1 0.851312 0.717387 0.502343
53 1 0.973095 0.781106 0.497517
6 1 0.0116633 0.882184 0.501407
30 1 0.082711 0.766931 0.498786
41 1 0.218311 0.795681 0.500783
25 1 0.419423 0.817247 0.500371
76 1 0.51881 0.788372 0.501226
33 1 0.621254 0.791304 0.499163
11 1 0.735308 0.876633 0.501822
65 1 0.820939 0.796641 0.502449
54 1 0.894447 0.813166 0.501876
22 1 0.871073 0.924314 0.500329
7 1 0.1692 0.91092 0.502588
75 1 0.462259 0.906269 0.499191
63 1 0.498295 0.953097 0.49876
36 1 0.548389 0.87792 0.498761
67 1 0.661232 0.955773 0.500682
23 1 0.753671 1.0004 0.500818
42 1 0.961791 0.977571 0.502307
ITEM: TIMESTEP
1000
ITEM: NUMBER OF ATOMS
65
ITEM: BOX BOUNDS pp pp pp
-4.8054921701262350e+00 4.8054921701262350e+00
-4.8060906643093455e+00 4.8060906643093455e+00
-1.0000000000000001e-01 1.0000000000000001e-01
ITEM: ATOMS id type xs ys zs
28 1 0.0641783 0.0348262 0.501782
2 1 0.195317 0.0559868 0.50094
19 1 0.453727 0.0519894 0.499768
38 1 0.592682 0.00555707 0.501934
68 1 0.664521 0.0433448 0.498962
8 1 0.880564 0.0732488 0.500182
18 1 0.164154 0.200051 0.501093
16 1 0.612192 0.239011 0.501252
14 1 0.733683 0.133339 0.502443
27 1 0.870749 0.21499 0.497487
10 1 0.0139693 0.173123 0.500956
21 1 0.0963608 0.311391 0.499618
26 1 0.355131 0.259863 0.502127
37 1 0.460937 0.186955 0.500192
49 1 0.504326 0.275321 0.501185
9 1 0.752603 0.277524 0.497879
1 1 0.957349 0.319892 0.50197
62 1 0.0417511 0.399046 0.497173
39 1 0.176654 0.398339 0.500541
24 1 0.290243 0.366189 0.501032
20 1 0.433613 0.375718 0.499155
59 1 0.576899 0.340472 0.499107
17 1 0.690847 0.413839 0.498802
13 1 0.832095 0.396161 0.501731
50 1 0.0784777 0.468806 0.498457
78 1 0.112081 0.538705 0.500921
32 1 0.199405 0.520372 0.494407
15 1 0.336925 0.504993 0.501911
58 1 0.834196 0.52186 0.500001
35 1 0.968596 0.460427 0.502132
52 1 0.050424 0.563466 0.49842
51 1 0.950952 0.685954 0.500612
40 1 0.157188 0.620156 0.501477
45 1 0.256747 0.620567 0.497912
29 1 0.445681 0.590011 0.502938
43 1 0.347826 0.62655 0.502135
12 1 0.582965 0.654349 0.49802
5 1 0.73594 0.621467 0.499038
79 1 0.839375 0.596561 0.499619
34 1 0.940811 0.575514 0.49646
47 1 0.049327 0.653115 0.501721
46 1 0.177641 0.725617 0.497174
44 1 0.278645 0.714785 0.504843
60 1 0.366316 0.725033 0.496823
57 1 0.467728 0.703241 0.49973
56 1 0.753613 0.759043 0.498227
31 1 0.851065 0.71733 0.502206
53 1 0.973368 0.780915 0.496296
6 1 0.0121391 0.882037 0.50254
30 1 0.0820029 0.766209 0.497414
41 1 0.219448 0.795397 0.501825
25 1 0.419444 0.816403 0.500462
76 1 0.518612 0.787744 0.503954
33 1 0.62078 0.791629 0.499979
11 1 0.735249 0.877045 0.501663
65 1 0.821081 0.796929 0.501839
54 1 0.894544 0.813775 0.501773
22 1 0.870992 0.924434 0.499506
7 1 0.170825 0.910497 0.502368
75 1 0.460769 0.906362 0.499354
63 1 0.498049 0.952721 0.496229
36 1 0.546873 0.877843 0.500496
67 1 0.661238 0.956499 0.501032
23 1 0.754784 1.0009 0.499321
42 1 0.962066 0.977576 0.502029
ITEM: TIMESTEP
1250
ITEM: NUMBER OF ATOMS
65
ITEM: BOX BOUNDS pp pp pp
-4.8042898075392948e+00 4.8042898075392948e+00
-4.8019090708831049e+00 4.8019090708831049e+00
-1.0000000000000001e-01 1.0000000000000001e-01
ITEM: ATOMS id type xs ys zs
28 1 0.0644129 0.0361056 0.501695
2 1 0.196152 0.0554069 0.500858
19 1 0.452701 0.0525552 0.498462
38 1 0.592904 0.00590228 0.502944
68 1 0.664894 0.0430281 0.497814
8 1 0.88051 0.0733393 0.500929
18 1 0.164153 0.199286 0.501891
16 1 0.612975 0.239457 0.503774
14 1 0.733737 0.133109 0.504052
27 1 0.870259 0.214691 0.496826
10 1 0.0129293 0.174059 0.500179
21 1 0.0950895 0.310264 0.501667
26 1 0.355041 0.259008 0.500427
37 1 0.460405 0.186959 0.501129
49 1 0.504902 0.275206 0.500374
9 1 0.753569 0.277135 0.497028
1 1 0.956534 0.319862 0.503316
62 1 0.041301 0.398919 0.497236
39 1 0.175698 0.397929 0.500277
24 1 0.289967 0.365576 0.502481
20 1 0.433929 0.37531 0.499387
59 1 0.577204 0.340075 0.500914
17 1 0.690579 0.413169 0.500997
13 1 0.831421 0.396972 0.502805
50 1 0.0780091 0.468639 0.496825
78 1 0.111053 0.538529 0.500883
32 1 0.198831 0.519576 0.49466
15 1 0.336034 0.505231 0.501057
58 1 0.831966 0.522423 0.499386
35 1 0.968075 0.459811 0.50172
52 1 0.049213 0.563293 0.498529
51 1 0.950713 0.685676 0.502418
40 1 0.156879 0.619971 0.500793
45 1 0.256832 0.619569 0.4967
29 1 0.445217 0.591356 0.503789
43 1 0.347247 0.626472 0.501741
12 1 0.583141 0.653881 0.499086
5 1 0.735413 0.620205 0.498944
79 1 0.838715 0.597407 0.500222
34 1 0.939834 0.574628 0.496637
47 1 0.0497052 0.653602 0.50041
46 1 0.178195 0.725376 0.497466
44 1 0.279043 0.713888 0.5043
60 1 0.366254 0.725453 0.496285
57 1 0.467879 0.704464 0.49958
56 1 0.752904 0.758309 0.497022
31 1 0.85078 0.716619 0.502598
53 1 0.973348 0.78152 0.499539
6 1 0.0128367 0.882635 0.50197
30 1 0.082114 0.766322 0.498066
41 1 0.220514 0.794674 0.501238
25 1 0.419301 0.817108 0.49949
76 1 0.518481 0.78801 0.503144
33 1 0.620612 0.791348 0.499812
11 1 0.735247 0.876384 0.499899
65 1 0.820802 0.795869 0.50264
54 1 0.894194 0.813659 0.502688
22 1 0.870742 0.92519 0.500624
7 1 0.171396 0.909879 0.502433
75 1 0.460955 0.906403 0.498219
63 1 0.497662 0.953561 0.49826
36 1 0.547169 0.878276 0.499248
67 1 0.661385 0.956503 0.501285
23 1 0.754679 1.0006 0.501207
42 1 0.961807 0.978056 0.500711
ITEM: TIMESTEP
1500
ITEM: NUMBER OF ATOMS
65
ITEM: BOX BOUNDS pp pp pp
-4.8030874449523537e+00 4.8030874449523537e+00
-4.8028518820970048e+00 4.8028518820970048e+00
-1.0000000000000001e-01 1.0000000000000001e-01
ITEM: ATOMS id type xs ys zs
28 1 0.0647512 0.0362467 0.501789
2 1 0.196057 0.0558538 0.500234
19 1 0.452907 0.0517915 0.499135
38 1 0.593244 0.00543487 0.503321
68 1 0.664326 0.0442465 0.499364
8 1 0.88063 0.072778 0.498051
18 1 0.162872 0.199818 0.501736
16 1 0.612835 0.239227 0.503302
14 1 0.734593 0.13369 0.504467
27 1 0.870621 0.214621 0.497951
10 1 0.0117944 0.174561 0.500789
21 1 0.0943515 0.31039 0.49895
26 1 0.353932 0.258171 0.500194
37 1 0.460332 0.185826 0.501297
49 1 0.504672 0.274319 0.501656
9 1 0.753755 0.277795 0.497193
1 1 0.955736 0.32102 0.503763
62 1 0.0414131 0.39902 0.498249
39 1 0.176199 0.397318 0.500605
24 1 0.289433 0.365264 0.503391
20 1 0.432639 0.374374 0.500154
59 1 0.576776 0.340184 0.500684
17 1 0.69002 0.413182 0.500732
13 1 0.830859 0.398152 0.502639
50 1 0.0780005 0.46913 0.495281
78 1 0.111361 0.538666 0.50243
32 1 0.199214 0.519297 0.495429
15 1 0.335823 0.50526 0.501799
58 1 0.832741 0.523822 0.499417
35 1 0.968329 0.460813 0.503783
52 1 0.0498351 0.563384 0.497407
51 1 0.951098 0.686454 0.504196
40 1 0.156842 0.619235 0.499678
45 1 0.256465 0.620022 0.496212
29 1 0.445547 0.590196 0.504122
43 1 0.348093 0.626864 0.503911
12 1 0.582675 0.65501 0.500372
5 1 0.734758 0.620631 0.497217
79 1 0.838986 0.599085 0.500815
34 1 0.940449 0.575635 0.494996
47 1 0.0495507 0.653267 0.500825
46 1 0.177104 0.724773 0.499785
44 1 0.278112 0.714481 0.505267
60 1 0.365826 0.725089 0.496597
57 1 0.467355 0.703535 0.500535
56 1 0.75251 0.758126 0.497794
31 1 0.850665 0.715954 0.501484
53 1 0.972723 0.782168 0.500756
6 1 0.0129228 0.882492 0.503437
30 1 0.0813337 0.766159 0.498412
41 1 0.218504 0.794689 0.50131
25 1 0.41893 0.817109 0.499562
76 1 0.517836 0.787911 0.504889
33 1 0.620709 0.791596 0.498974
11 1 0.736341 0.876623 0.497902
65 1 0.820234 0.795627 0.503314
54 1 0.893114 0.813057 0.502236
22 1 0.871047 0.924286 0.500788
7 1 0.171105 0.909889 0.504202
75 1 0.461149 0.906361 0.496502
63 1 0.497961 0.953082 0.498583
36 1 0.54694 0.877568 0.498799
67 1 0.661909 0.956468 0.502961
23 1 0.754106 1.00156 0.501255
42 1 0.962639 0.977494 0.501845
ITEM: TIMESTEP
1750
ITEM: NUMBER OF ATOMS
65
ITEM: BOX BOUNDS pp pp pp
-4.8018850823654136e+00 4.8018850823654136e+00
-4.8033317953932819e+00 4.8033317953932819e+00
-1.0000000000000001e-01 1.0000000000000001e-01
ITEM: ATOMS id type xs ys zs
28 1 0.0646892 0.0360719 0.501162
2 1 0.196537 0.0558418 0.499592
19 1 0.453955 0.0524056 0.498956
38 1 0.593794 0.00645734 0.503394
68 1 0.665488 0.0444917 0.499754
8 1 0.88001 0.0735066 0.498011
18 1 0.162606 0.19976 0.501707
16 1 0.612672 0.240334 0.504132
14 1 0.734139 0.134342 0.503502
27 1 0.869572 0.214366 0.49838
10 1 0.0116946 0.173279 0.500948
21 1 0.0946247 0.310482 0.49987
26 1 0.354721 0.25942 0.499571
37 1 0.460616 0.186315 0.500749
49 1 0.504483 0.274804 0.501486
9 1 0.753108 0.278281 0.496521
1 1 0.955852 0.319864 0.504122
62 1 0.04078 0.398695 0.498465
39 1 0.176174 0.396838 0.500985
24 1 0.291039 0.366659 0.504007
20 1 0.433883 0.37491 0.5016
59 1 0.575833 0.341332 0.499646
17 1 0.690099 0.41385 0.501831
13 1 0.831179 0.397721 0.502918
50 1 0.0778364 0.468212 0.495298
78 1 0.111461 0.537641 0.501521
32 1 0.199387 0.519092 0.495302
15 1 0.336636 0.505591 0.499586
58 1 0.833015 0.523569 0.500867
35 1 0.967956 0.460542 0.502271
52 1 0.0497759 0.563007 0.49661
51 1 0.950385 0.686491 0.505665
40 1 0.156668 0.619303 0.497542
45 1 0.257103 0.619353 0.495718
29 1 0.446441 0.590695 0.503784
43 1 0.348015 0.627136 0.502904
12 1 0.582857 0.654392 0.5
5 1 0.735497 0.62033 0.498033
79 1 0.839707 0.598869 0.499945
34 1 0.940791 0.57582 0.493474
47 1 0.0490274 0.653098 0.500511
46 1 0.177621 0.724471 0.497969
44 1 0.278756 0.714077 0.504691
60 1 0.366215 0.725788 0.496959
57 1 0.467156 0.704709 0.501189
56 1 0.752892 0.75822 0.496791
31 1 0.850607 0.716398 0.503929
53 1 0.973409 0.78184 0.498979
6 1 0.0122634 0.882889 0.502329
30 1 0.0821877 0.766493 0.498315
41 1 0.218874 0.794403 0.499649
25 1 0.420085 0.816882 0.497583
76 1 0.518936 0.787746 0.504442
33 1 0.621387 0.79134 0.500021
11 1 0.734584 0.876469 0.501145
65 1 0.820364 0.795635 0.502651
54 1 0.89388 0.813177 0.500946
22 1 0.87083 0.924273 0.499606
7 1 0.170745 0.910634 0.50516
75 1 0.46094 0.906775 0.496199
63 1 0.498096 0.953445 0.498905
36 1 0.547084 0.877776 0.499887
67 1 0.661377 0.956358 0.502186
23 1 0.754875 0.999772 0.500334
42 1 0.961398 0.978011 0.504385
ITEM: TIMESTEP
2000
ITEM: NUMBER OF ATOMS
65
ITEM: BOX BOUNDS pp pp pp
-4.8006827197784725e+00 4.8006827197784725e+00
-4.8076278696801520e+00 4.8076278696801520e+00
-1.0000000000000001e-01 1.0000000000000001e-01
ITEM: ATOMS id type xs ys zs
28 1 0.0641525 0.0360818 0.501837
2 1 0.195037 0.0563486 0.500114
19 1 0.453616 0.05213 0.495905
38 1 0.593776 0.00697071 0.503073
68 1 0.664609 0.0462232 0.499852
8 1 0.880104 0.0724649 0.49845
18 1 0.163415 0.200465 0.504388
16 1 0.611515 0.239981 0.5062
14 1 0.733912 0.135184 0.502823
27 1 0.868731 0.214694 0.50121
10 1 0.0126978 0.173243 0.50133
21 1 0.0942469 0.310904 0.500552
26 1 0.355525 0.260727 0.498598
37 1 0.460207 0.18623 0.500949
49 1 0.503535 0.274999 0.499375
9 1 0.751923 0.279002 0.494967
1 1 0.955568 0.319711 0.502425
62 1 0.0410482 0.399008 0.498915
39 1 0.176026 0.39719 0.500813
24 1 0.290009 0.366779 0.504315
20 1 0.43447 0.376384 0.502282
59 1 0.575229 0.341095 0.502334
17 1 0.689197 0.414187 0.501537
13 1 0.830161 0.397667 0.503927
50 1 0.0779437 0.468939 0.493548
78 1 0.111789 0.538417 0.50212
32 1 0.199704 0.519206 0.494267
15 1 0.336904 0.505858 0.500834
58 1 0.833668 0.522432 0.501187
35 1 0.967703 0.459936 0.501992
52 1 0.0500869 0.563481 0.497346
51 1 0.951084 0.685567 0.504091
40 1 0.157691 0.619479 0.499073
45 1 0.257553 0.619371 0.494468
29 1 0.44632 0.592433 0.50265
43 1 0.348503 0.627572 0.501714
12 1 0.582568 0.654104 0.498516
5 1 0.735773 0.620958 0.498781
79 1 0.84001 0.596918 0.502046
34 1 0.941351 0.575123 0.492135
47 1 0.0502381 0.65339 0.500896
46 1 0.176716 0.724714 0.495314
44 1 0.277666 0.714624 0.505706
60 1 0.36542 0.725877 0.499989
57 1 0.466935 0.70513 0.502001
56 1 0.753053 0.758688 0.498539
31 1 0.851347 0.716491 0.503028
53 1 0.972559 0.780976 0.500508
6 1 0.0119007 0.882223 0.501205
30 1 0.0817575 0.766761 0.497017
41 1 0.2175 0.79441 0.498103
25 1 0.418847 0.817724 0.4971
76 1 0.517899 0.787312 0.50513
33 1 0.620195 0.79116 0.498032
11 1 0.735388 0.876859 0.501333
65 1 0.821091 0.795393 0.50349
54 1 0.894125 0.81318 0.498986
22 1 0.871068 0.924265 0.499314
7 1 0.170303 0.910826 0.505205
75 1 0.4604 0.906992 0.493966
63 1 0.498402 0.952974 0.498237
36 1 0.546463 0.876986 0.498569
67 1 0.660846 0.955939 0.504032
23 1 0.753665 1.0012 0.500614
42 1 0.962085 0.977397 0.504541
ITEM: TIMESTEP
2250
ITEM: NUMBER OF ATOMS
65
ITEM: BOX BOUNDS pp pp pp
-4.7994803571915323e+00 4.7994803571915323e+00
-4.8065401042336422e+00 4.8065401042336422e+00
-1.0000000000000001e-01 1.0000000000000001e-01
ITEM: ATOMS id type xs ys zs
28 1 0.0644651 0.0352102 0.500787
2 1 0.196427 0.0555227 0.500975
19 1 0.453615 0.0520244 0.495609
38 1 0.593354 0.0072565 0.502744
68 1 0.665033 0.0445986 0.499754
8 1 0.880781 0.0729444 0.497152
18 1 0.163049 0.198819 0.503804
16 1 0.611915 0.239869 0.50501
14 1 0.733933 0.134489 0.502603
27 1 0.868731 0.214087 0.500958
10 1 0.0130174 0.174072 0.501418
21 1 0.0935138 0.30918 0.500275
26 1 0.355271 0.260536 0.496836
37 1 0.46024 0.185846 0.500599
49 1 0.503002 0.275065 0.49813
9 1 0.752257 0.278243 0.495947
1 1 0.954776 0.319579 0.500997
62 1 0.039968 0.397848 0.499406
39 1 0.175796 0.395552 0.500073
24 1 0.290805 0.36745 0.501611
20 1 0.433752 0.376611 0.502861
59 1 0.575165 0.340612 0.502141
17 1 0.689035 0.413815 0.501623
13 1 0.830257 0.39784 0.503294
50 1 0.0775885 0.467686 0.494551
78 1 0.111975 0.537054 0.502231
32 1 0.199696 0.518176 0.493731
15 1 0.336832 0.50619 0.5007
58 1 0.833917 0.523048 0.501113
35 1 0.967687 0.45962 0.502552
52 1 0.0508773 0.563141 0.496532
51 1 0.950317 0.684831 0.503509
40 1 0.15735 0.617932 0.499052
45 1 0.256984 0.618899 0.493605
29 1 0.445759 0.591144 0.503637
43 1 0.348036 0.627293 0.499096
12 1 0.582202 0.654386 0.499668
5 1 0.735692 0.62154 0.498327
79 1 0.840274 0.598205 0.502667
34 1 0.941598 0.574765 0.49272
47 1 0.0496721 0.65315 0.503341
46 1 0.176895 0.723626 0.494834
44 1 0.278 0.714026 0.505797
60 1 0.365541 0.725681 0.498701
57 1 0.467332 0.705044 0.501664
56 1 0.752733 0.758923 0.499646
31 1 0.851119 0.717008 0.504073
53 1 0.972517 0.780144 0.5007
6 1 0.0116558 0.881612 0.499399
30 1 0.0816282 0.765701 0.498875
41 1 0.217276 0.793949 0.496394
25 1 0.418941 0.81633 0.497701
76 1 0.518445 0.787037 0.505573
33 1 0.620528 0.791226 0.496622
11 1 0.734641 0.876494 0.50007
65 1 0.820522 0.796374 0.502215
54 1 0.893812 0.813442 0.500055
22 1 0.87041 0.924385 0.499282
7 1 0.169682 0.909671 0.507297
75 1 0.460588 0.905971 0.495464
63 1 0.497151 0.952814 0.498023
36 1 0.546491 0.87706 0.499024
67 1 0.660742 0.956406 0.504382
23 1 0.754665 1.00044 0.501158
42 1 0.962064 0.977397 0.505066
ITEM: TIMESTEP
2500
ITEM: NUMBER OF ATOMS
65
ITEM: BOX BOUNDS pp pp pp
-4.7982779946045913e+00 4.7982779946045913e+00
-4.8063563125477078e+00 4.8063563125477078e+00
-1.0000000000000001e-01 1.0000000000000001e-01
ITEM: ATOMS id type xs ys zs
28 1 0.0639178 0.0358619 0.501652
2 1 0.196267 0.0550235 0.499959
19 1 0.453019 0.0525595 0.495206
38 1 0.592634 0.00619119 0.502034
68 1 0.664159 0.0446395 0.498707
8 1 0.880886 0.0724466 0.496122
18 1 0.16252 0.198863 0.502577
16 1 0.612143 0.239914 0.505816
14 1 0.733891 0.13358 0.50444
27 1 0.868679 0.213742 0.501152
10 1 0.011849 0.172676 0.501355
21 1 0.0936518 0.309144 0.500514
26 1 0.353518 0.260427 0.496448
37 1 0.459441 0.186434 0.500704
49 1 0.503717 0.274244 0.498005
9 1 0.751842 0.277845 0.495665
1 1 0.954613 0.319384 0.502128
62 1 0.0401728 0.397481 0.498555
39 1 0.175014 0.39636 0.502211
24 1 0.289785 0.367395 0.501711
20 1 0.434037 0.375722 0.502705
59 1 0.57452 0.340508 0.501291
17 1 0.688391 0.413384 0.501997
13 1 0.829389 0.397768 0.5041
50 1 0.0777133 0.466632 0.495441
78 1 0.111566 0.53641 0.502013
32 1 0.199822 0.517909 0.494136
15 1 0.33788 0.505814 0.50035
58 1 0.832843 0.523195 0.501618
35 1 0.967746 0.459624 0.501422
52 1 0.0498659 0.562009 0.498598
51 1 0.949965 0.685283 0.502128
40 1 0.156197 0.617692 0.501723
45 1 0.255986 0.619662 0.494105
29 1 0.445505 0.592674 0.503866
43 1 0.346524 0.627042 0.498151
12 1 0.582059 0.655968 0.499333
5 1 0.734971 0.620963 0.499002
79 1 0.839318 0.598278 0.502904
34 1 0.940799 0.575062 0.492429
47 1 0.0485799 0.651905 0.504408
46 1 0.176623 0.723029 0.494484
44 1 0.277547 0.713981 0.504393
60 1 0.365077 0.72537 0.496841
57 1 0.466785 0.706417 0.502129
56 1 0.752281 0.759172 0.498113
31 1 0.850486 0.71709 0.504066
53 1 0.972842 0.779902 0.501247
6 1 0.0121052 0.88105 0.498554
30 1 0.0818338 0.765186 0.500092
41 1 0.217263 0.793441 0.495434
25 1 0.419411 0.816176 0.497346
76 1 0.518661 0.786757 0.506341
33 1 0.620827 0.791703 0.496369
11 1 0.734972 0.876894 0.501007
65 1 0.82008 0.79667 0.501273
54 1 0.893996 0.813242 0.499324
22 1 0.870982 0.924061 0.500362
7 1 0.169977 0.910136 0.506947
75 1 0.460169 0.906547 0.495921
63 1 0.496835 0.952975 0.497518
36 1 0.545542 0.877376 0.499903
67 1 0.660635 0.956193 0.502667
23 1 0.753772 1.00133 0.500512
42 1 0.962148 0.976565 0.50501
ITEM: TIMESTEP
2750
ITEM: NUMBER OF ATOMS
65
ITEM: BOX BOUNDS pp pp pp
-4.7970756320176511e+00 4.7970756320176511e+00
-4.8065787134210929e+00 4.8065787134210929e+00
-1.0000000000000001e-01 1.0000000000000001e-01
ITEM: ATOMS id type xs ys zs
28 1 0.0647099 0.0363449 0.502521
2 1 0.195818 0.055272 0.500966
19 1 0.452339 0.0512414 0.495006
38 1 0.593407 0.00610721 0.502621
68 1 0.664017 0.0456453 0.499753
8 1 0.879905 0.0724868 0.497167
18 1 0.161702 0.199315 0.503491
16 1 0.611063 0.239423 0.506208
14 1 0.733429 0.134687 0.504704
27 1 0.867928 0.214507 0.502728
10 1 0.0106623 0.173136 0.499949
21 1 0.0929772 0.309479 0.500483
26 1 0.353532 0.259865 0.494417
37 1 0.458325 0.185723 0.499445
49 1 0.502519 0.274024 0.49994
9 1 0.75129 0.278434 0.495492
1 1 0.954156 0.319193 0.500737
62 1 0.039363 0.398047 0.500028
39 1 0.175113 0.396395 0.504183
24 1 0.289864 0.367103 0.5014
20 1 0.433455 0.375404 0.501029
59 1 0.574811 0.340147 0.501707
17 1 0.687981 0.41449 0.501104
13 1 0.82933 0.39762 0.504541
50 1 0.0765963 0.467327 0.494742
78 1 0.110977 0.53624 0.502115
32 1 0.199201 0.518243 0.49492
15 1 0.337202 0.505795 0.502037
58 1 0.83224 0.523217 0.502999
35 1 0.966726 0.459871 0.50089
52 1 0.0498447 0.562369 0.498761
51 1 0.949092 0.68538 0.503963
40 1 0.155313 0.61763 0.501835
45 1 0.255481 0.620092 0.495938
29 1 0.445833 0.592445 0.503464
43 1 0.346963 0.627012 0.498761
12 1 0.582136 0.656092 0.50006
5 1 0.73459 0.620371 0.497526
79 1 0.838994 0.598459 0.504402
34 1 0.940097 0.574773 0.491705
47 1 0.0479903 0.652431 0.503327
46 1 0.176046 0.722771 0.493892
44 1 0.277704 0.71462 0.504136
60 1 0.365851 0.725948 0.498222
57 1 0.467574 0.70634 0.501743
56 1 0.752069 0.758663 0.49735
31 1 0.849736 0.716497 0.504948
53 1 0.972391 0.780702 0.501141
6 1 0.0120554 0.881361 0.498519
30 1 0.0812157 0.765679 0.500585
41 1 0.216226 0.793842 0.49536
25 1 0.419152 0.817387 0.496783
76 1 0.517956 0.78606 0.506332
33 1 0.620258 0.792696 0.497844
11 1 0.735775 0.876944 0.500035
65 1 0.819745 0.796023 0.500092
54 1 0.893217 0.812944 0.499353
22 1 0.871369 0.924283 0.500742
7 1 0.170323 0.909832 0.506649
75 1 0.459115 0.907677 0.495122
63 1 0.497611 0.952646 0.496189
36 1 0.544311 0.87667 0.498298
67 1 0.660502 0.955014 0.502206
23 1 0.752983 1.00131 0.499986
42 1 0.962503 0.977451 0.505191
ITEM: TIMESTEP
3000
ITEM: NUMBER OF ATOMS
65
ITEM: BOX BOUNDS pp pp pp
-4.7958732694307100e+00 4.7958732694307100e+00
-4.8056817340088536e+00 4.8056817340088536e+00
-1.0000000000000001e-01 1.0000000000000001e-01
ITEM: ATOMS id type xs ys zs
28 1 0.0644022 0.0361392 0.500886
2 1 0.195987 0.0556858 0.501618
19 1 0.451557 0.0512286 0.493174
38 1 0.593152 0.00662055 0.503516
68 1 0.664256 0.0447897 0.500116
8 1 0.880741 0.0725096 0.497028
18 1 0.161323 0.199054 0.503739
16 1 0.610338 0.238982 0.506169
14 1 0.734391 0.134095 0.504201
27 1 0.867352 0.214244 0.502576
10 1 0.0106929 0.172475 0.499966
21 1 0.0931232 0.310197 0.50152
26 1 0.351924 0.259783 0.495465
37 1 0.457995 0.18527 0.499926
49 1 0.502094 0.273505 0.497931
9 1 0.750486 0.27828 0.495654
1 1 0.954234 0.319225 0.501962
62 1 0.0396805 0.398348 0.500893
39 1 0.174645 0.397669 0.503662
24 1 0.289036 0.367893 0.501
20 1 0.432419 0.374803 0.502986
59 1 0.574275 0.340105 0.50246
17 1 0.687955 0.41363 0.500264
13 1 0.82906 0.397556 0.50285
50 1 0.0770069 0.467751 0.494794
78 1 0.1111 0.537038 0.502157
32 1 0.199935 0.519192 0.496035
15 1 0.337293 0.505813 0.501655
58 1 0.832126 0.523646 0.501557
35 1 0.966885 0.459706 0.500726
52 1 0.0494207 0.562696 0.500534
51 1 0.949903 0.685356 0.503743
40 1 0.156171 0.617999 0.501217
45 1 0.255777 0.620437 0.496205
29 1 0.445218 0.593424 0.50255
43 1 0.346662 0.626882 0.499927
12 1 0.582152 0.655062 0.497709
5 1 0.735343 0.619362 0.498918
79 1 0.839661 0.59846 0.504424
34 1 0.940192 0.574541 0.493324
47 1 0.0484496 0.652871 0.506627
46 1 0.176625 0.723384 0.493231
44 1 0.27776 0.714929 0.502695
60 1 0.365234 0.72562 0.498116
57 1 0.467713 0.706761 0.502005
56 1 0.752112 0.758879 0.49858
31 1 0.849827 0.715854 0.505047
53 1 0.972372 0.780392 0.501298
6 1 0.0115832 0.881428 0.497732
30 1 0.0819131 0.766175 0.500383
41 1 0.216877 0.794067 0.494749
25 1 0.419536 0.816734 0.497795
76 1 0.518165 0.785078 0.508323
33 1 0.620662 0.791858 0.497549
11 1 0.735163 0.876597 0.500717
65 1 0.820477 0.79546 0.498922
54 1 0.893819 0.812951 0.497482
22 1 0.870686 0.923854 0.500361
7 1 0.170071 0.91035 0.504951
75 1 0.458899 0.907465 0.492077
63 1 0.497305 0.952959 0.49707
36 1 0.543707 0.875907 0.498825
67 1 0.661171 0.956716 0.50351
23 1 0.754048 1.00083 0.500016
42 1 0.962058 0.976948 0.503756
ITEM: TIMESTEP
3250
ITEM: NUMBER OF ATOMS
65
ITEM: BOX BOUNDS pp pp pp
-4.7946709068437698e+00 4.7946709068437698e+00
-4.8072863417857095e+00 4.8072863417857095e+00
-1.0000000000000001e-01 1.0000000000000001e-01
ITEM: ATOMS id type xs ys zs
28 1 0.0633261 0.0371041 0.498634
2 1 0.195094 0.0550634 0.501264
19 1 0.451782 0.0505279 0.493139
38 1 0.593245 0.0070764 0.504604
68 1 0.664669 0.0456213 0.502349
8 1 0.88073 0.0724737 0.498674
18 1 0.160542 0.197701 0.504467
16 1 0.611714 0.238728 0.507076
14 1 0.734865 0.13418 0.506244
27 1 0.86819 0.213825 0.500821
10 1 0.00876791 0.173132 0.499311
21 1 0.0935767 0.309882 0.502587
26 1 0.352348 0.259232 0.494283
37 1 0.45728 0.184816 0.499061
49 1 0.503105 0.272667 0.498221
9 1 0.751795 0.277831 0.494412
1 1 0.954169 0.319784 0.501549
62 1 0.0394884 0.39793 0.499353
39 1 0.174774 0.397069 0.504258
24 1 0.289059 0.367104 0.501122
20 1 0.432698 0.374221 0.50497
59 1 0.573576 0.339347 0.502007
17 1 0.687615 0.413208 0.49967
13 1 0.828872 0.3981 0.502403
50 1 0.0772574 0.467695 0.493828
78 1 0.11172 0.536538 0.500758
32 1 0.200383 0.519212 0.495291
15 1 0.337923 0.505592 0.502568
58 1 0.833012 0.522953 0.499877
35 1 0.96684 0.45933 0.498757
52 1 0.0506821 0.5631 0.501015
51 1 0.949434 0.685367 0.503793
40 1 0.156036 0.618171 0.501684
45 1 0.255548 0.621042 0.495723
29 1 0.445979 0.594435 0.501923
43 1 0.346931 0.627253 0.499944
12 1 0.582071 0.654968 0.49921
5 1 0.735561 0.621244 0.498577
79 1 0.839614 0.597938 0.504655
34 1 0.941285 0.574573 0.492858
47 1 0.0485505 0.653281 0.508178
46 1 0.177675 0.723375 0.493356
44 1 0.278199 0.715344 0.501773
60 1 0.36584 0.725846 0.500201
57 1 0.468519 0.707869 0.503088
56 1 0.751343 0.75874 0.499817
31 1 0.849936 0.71664 0.504869
53 1 0.972678 0.780469 0.499579
6 1 0.0120677 0.881269 0.500684
30 1 0.0821513 0.766043 0.501326
41 1 0.217319 0.794196 0.495706
25 1 0.420516 0.816245 0.498493
76 1 0.518741 0.783505 0.508183
33 1 0.620653 0.791214 0.49537
11 1 0.734419 0.877434 0.499564
65 1 0.819733 0.795818 0.497545
54 1 0.893517 0.812485 0.497713
22 1 0.870748 0.923625 0.500535
7 1 0.169908 0.909932 0.504981
75 1 0.458907 0.907225 0.490112
63 1 0.497722 0.951982 0.496854
36 1 0.543843 0.874838 0.499088
67 1 0.660849 0.956534 0.502465
23 1 0.753841 1.00088 0.499352
42 1 0.962091 0.977024 0.505251