LAMMPS (23 Jun 2022 - Update 4)
  using 1 OpenMP thread(s) per MPI task
# Compute elastic constant tensor for a crystal
#
# Written by Aidan Thompson (Sandia, athomps@sandia.gov)
#
#  This script uses the following three include files.
#
#   init.mod      (must be modified for different crystal structures)
# 	       	  Define units, deformation parameters and initial
#		  configuration of the atoms and simulation cell.
#
#
#   potential.mod    (must be modified for different pair styles)
# 		     Define pair style and other attributes
#		     not stored in restart file
#
#
#   displace.mod    (displace.mod should not need to be modified)
# 		    Perform positive and negative box displacements
# 		    in direction ${dir} and size ${up}.
# 		    It uses the resultant changes
#		    in stress to compute one
# 		    row of the elastic stiffness tensor
#
#		    Inputs variables:
#		    	   dir = the Voigt deformation component
#		    		    (1,2,3,4,5,6)
#		    Global constants:
#       	    	   up = the deformation magnitude (strain units)
#       		   cfac = conversion from LAMMPS pressure units to
#               	   output units for elastic constants
#
#
#  To run this on a different system, it should only be necessary to
#  modify the files init.mod and potential.mod. In order to calculate
#  the elastic constants correctly, care must be taken to specify
#  the correct units in init.mod (units, cfac and cunits). It is also
#  important to verify that the minimization of energy w.r.t atom
#  positions in the deformed cell is fully converged.
#  One indication of this is that the elastic constants are insensitive
#  to the choice of the variable ${up} in init.mod. Another is to check
#  the final max and two-norm forces reported in the log file. If you know
#  that minimization is not required, you can set maxiter = 0.0 in
#  init.mod.
#



variable dt equal 0.01
variable strain equal 0.05
variable srate equal 1e-4
variable M equal 1000 # averaging time for properties
variable strainsteps equal ${strain}/${dt}/${srate}
variable strainsteps equal 0.05/${dt}/${srate}
variable strainsteps equal 0.05/0.01/${srate}
variable strainsteps equal 0.05/0.01/0.0001


dimension 2
include init.mod
# NOTE: This script can be modified for different atomic structures,
# units, etc. See in.elastic for more info.
#

# Define the finite deformation size. Try several values of this
# variable to verify that results do not depend on it.
variable up equal 1.0e-1

# Define the amount of random jiggle for atoms
# This prevents atoms from staying on saddle points
variable atomjiggle equal 1.0e-6

# Uncomment one of these blocks, depending on what units
# you are using in LAMMPS and for output

# metal units, elastic constants in eV/A^3
#units		metal
#variable cfac equal 6.2414e-7
#variable cunits string eV/A^3

# Choose potential
# metal units, elastic constants in GPa
units		metal
atom_style	full
#pair_style      lj/cut 1.0
#pair_style      yukawa 1.0 2.0
#pair_modify     mix arithmetic
bond_style      harmonic
angle_style     harmonic
dihedral_style  zero
special_bonds   amber
variable cfac equal 1.0e-4
variable cunits string GPa
boundary	p p p

# Need to set mass to something, just to satisfy LAMMPS
#mass 1 1.0e-20
read_data network.lmp
Reading data file ...
  orthogonal box = (-4.809451 -4.809451 -0.1) to (4.809451 4.809451 0.1)
  1 by 1 by 1 MPI processor grid
WARNING: Atom style in data file differs from currently defined atom style (src/read_data.cpp:538)
  reading atoms ...
  65 atoms
WARNING: Bond style in data file differs from currently defined bond style (src/read_data.cpp:630)
  scanning bonds ...
  5 = max bonds/atom
  reading bonds ...
  142 bonds
Finding 1-2 1-3 1-4 neighbors ...
  special bond factors lj:    0        0        0.5     
  special bond factors coul:  0        0        0.8333333333333334
     9 = max # of 1-2 neighbors
    37 = max # of 1-3 neighbors
   215 = max # of 1-4 neighbors
    32 = max # of special neighbors
  special bonds CPU = 0.000 seconds
  read_data CPU = 0.003 seconds

# real units, elastic constants in GPa
#units		real
#variable cfac equal 1.01325e-4
#variable cunits string GPa

# Define minimization parameters
variable etol equal 0.0
variable ftol equal 5.0e-10
variable maxiter equal 100000
variable maxeval equal 20000
variable dmax equal 1.0e-2


include potential.mod
# NOTE: This script can be modified for different pair styles
# See in.elastic for more info.

# Setup neighbor style
neighbor 3.0 nsq
neigh_modify once no every 1 delay 0 check yes
comm_modify cutoff 2.0

# Setup minimization style
min_style	     cg
min_modify	     dmax ${dmax} line quadratic
min_modify	     dmax 0.01 line quadratic

timestep	0.001


# Setup output
thermo		500
thermo_style custom step temp pe ebond eangle edihed press pxx pyy pzz pxy pxz pyz lx ly lz vol
thermo_modify norm no


#change_box all triclinic
comm_modify mode single cutoff 10.0 vel yes
atom_modify sort 0 0



# Compute initial state

#dump rela all atom 1 traj_relax.lmpstrj
fix 3 all box/relax x 0 y 0 # xy 0  #MS comment: relax if the network is periodic
minimize ${etol} ${ftol} ${maxiter} ${maxeval}
minimize 0 ${ftol} ${maxiter} ${maxeval}
minimize 0 5e-10 ${maxiter} ${maxeval}
minimize 0 5e-10 100000 ${maxeval}
minimize 0 5e-10 100000 20000
Neighbor list info ...
  update every 1 steps, delay 0 steps, check yes
  max neighbors/atom: 2000, page size: 100000
  master list distance cutoff = 0
  ghost atom cutoff = 10
  0 neighbor lists, perpetual/occasional/extra = 0 0 0
WARNING: Inconsistent image flags (src/domain.cpp:819)
Per MPI rank memory allocation (min/avg/max) = 8.97 | 8.97 | 8.97 Mbytes
   Step          Temp          PotEng         E_bond        E_angle        E_dihed         Press           Pxx            Pyy            Pzz            Pxy            Pxz            Pyz             Lx             Ly             Lz           Volume    
         0   0              2.8571636e-11  2.8571636e-11  0              0             -0.10986429    -0.20347664    -0.01625193     0              0.020534562    0              0              9.618902       9.618902       0.2            92.523276    
       177   0              7.115254e-20   7.115254e-20   0              0             -7.9586307e-08  1.0111172e-06 -1.1702898e-06  0              1.4559144e-06  0              0              9.6189007      9.618902       0.2            92.523263    
Loop time of 0.00913121 on 1 procs for 177 steps with 65 atoms

100.0% CPU use with 1 MPI tasks x 1 OpenMP threads

Minimization stats:
  Stopping criterion = force tolerance
  Energy initial, next-to-last, final = 
    2.85716363600764e-11 1.13012757869585e-19 7.11525396213469e-20
  Force two-norm initial, final = 2.4150399e-05 4.1894707e-10
  Force max component initial, final = 1.1750469e-05 1.0710164e-10
  Final line search alpha, max atom move = 1 1.0710164e-10
  Iterations, force evaluations = 177 354

MPI task timing breakdown:
Section |  min time  |  avg time  |  max time  |%varavg| %total
---------------------------------------------------------------
Pair    | 0          | 0          | 0          |   0.0 |  0.00
Bond    | 0.0012659  | 0.0012659  | 0.0012659  |   0.0 | 13.86
Neigh   | 0          | 0          | 0          |   0.0 |  0.00
Comm    | 0.0027857  | 0.0027857  | 0.0027857  |   0.0 | 30.51
Output  | 0          | 0          | 0          |   0.0 |  0.00
Modify  | 0          | 0          | 0          |   0.0 |  0.00
Other   |            | 0.00508    |            |       | 55.63

Nlocal:             65 ave          65 max          65 min
Histogram: 1 0 0 0 0 0 0 0 0 0
Nghost:            548 ave         548 max         548 min
Histogram: 1 0 0 0 0 0 0 0 0 0
Neighs:              0 ave           0 max           0 min
Histogram: 1 0 0 0 0 0 0 0 0 0

Total # of neighbors = 0
Ave neighs/atom = 0
Ave special neighs/atom = 22.769231
Neighbor list builds = 0
Dangerous builds = 0
#dump rela all atom 1 traj_relax.lmpstrj
thermo 100
unfix 3

fix 2d all enforce2d



#dump dump0 all xyz 1000000 cfg0.xyz
#dump_modify dump0 format line "%d %20.10g %20.10g %20.10g"
#minimize ${etol} ${ftol} ${maxiter} ${maxeval}

#undump rela

#write_restart restart.equil

# These formulas define the derivatives w.r.t. strain components
# Constants uses $, variables use v_


timestep        ${dt}
timestep        0.01
variable nsteps equal round(${strainsteps})
variable nsteps equal round(50000)

fix             4 all nve
fix             5 all langevin 0.1 0.1 1 904297
#fix		6 all press/berendsen y  0.0 0.0 1 x 0.0 0.0 10
fix             6 all nph y 0.0 0.0 10 ptemp 0.1 # x 0.0 0.0 10

# For PLUMED2
# fix 22 all plumed plumedfile plumed.dat outfile plumed.out

#fix             6 all nph x 0.0 0.0 10
fix     	9 all deform 1 x erate -${srate} units box remap x
fix     	9 all deform 1 x erate -0.0001 units box remap x

#fix     8 all deform 1 xy erate ${srate} units box remap x



#fix    10 all ave/time

dump 1 all atom 250 deform_dump.lammpstrj


#To avoid flying ice cube phenomenon:
#fix 21 all momentum 100 linear 1 1 1 angular


run  ${nsteps}
run  50000
WARNING: One or more atoms are time integrated more than once (src/modify.cpp:292)
WARNING: Inconsistent image flags (src/domain.cpp:819)
Per MPI rank memory allocation (min/avg/max) = 7.845 | 7.845 | 7.845 Mbytes
   Step          Temp          PotEng         E_bond        E_angle        E_dihed         Press           Pxx            Pyy            Pzz            Pxy            Pxz            Pyz             Lx             Ly             Lz           Volume    
       177   0              7.115254e-20   7.115254e-20   0              0             -7.9586307e-08  1.0111172e-06 -1.1702898e-06  0              1.4559144e-06  0              0              9.6189007      9.618902       0.2            92.523263    
       200   0.11707134     0.00015022727  0.00015022727  0              0              11.401535      51.312194     -28.7266        0             -10.66378       0              0              9.6186795      9.6200866      0.2            92.532529    
       300   0.172495       0.00082227589  0.00082227589  0              0              497.11546      1072.017      -77.984185      0              352.58104      0              0              9.6177176      9.6193035      0.2            92.515744    
       400   0.16515133     0.001134713    0.001134713    0              0              660.85859      1426.4817     -104.97104      0             -159.1682       0              0              9.6167557      9.6178356      0.2            92.492375    
       500   0.22309474     0.0010346174   0.0010346174   0              0              346.76568      775.01633     -81.650674      0             -245.9169       0              0              9.6157938      9.6152744      0.2            92.458496    
       600   0.21466033     0.0011323049   0.0011323049   0              0             -143.79093     -162.53418     -125.25045      0             -281.27298      0              0              9.6148319      9.6155667      0.2            92.452057    
       700   0.20423162     0.0010833618   0.0010833618   0              0              102.06738      389.96578     -186.0243       0              160.83928      0              0              9.61387        9.6135494      0.2            92.423414    
       800   0.21783714     0.0010849651   0.0010849651   0              0              114.49172      396.3366      -167.57812      0              449.00942      0              0              9.6129081      9.6165949      0.2            92.443443    
       900   0.21953759     0.0011560934   0.0011560934   0              0              304.74056      771.83271     -162.57731      0              113.40773      0              0              9.6119462      9.6140976      0.2            92.410189    
      1000   0.2203066      0.0009138136   0.0009138136   0              0              220.0526       475.06239     -35.149866      0              185.50347      0              0              9.6109843      9.6121813      0.2            92.382524    
      1100   0.20487469     0.0013213962   0.0013213962   0              0              357.89725      676.07407      39.55034       0             -456.45876      0              0              9.6100225      9.6068842      0.2            92.322373    
      1200   0.1807346      0.00095565347  0.00095565347  0              0              633.16823      1129.311       136.81254      0             -165.60642      0              0              9.6090606      9.6052008      0.2            92.296956    
      1300   0.22261485     0.00095514083  0.00095514083  0              0              145.75185      109.73215      181.55098      0             -450.93793      0              0              9.6080987      9.6035591      0.2            92.271944    
      1400   0.21143492     0.001045315    0.001045315    0              0              358.5389       501.75888      215.10936      0             -6.8594007      0              0              9.6071368      9.6039256      0.2            92.266227    
      1500   0.20994637     0.0011714522   0.0011714522   0              0              711.85792      1152.3506      271.16933      0             -361.21099      0              0              9.6061749      9.6057038      0.2            92.27407     
      1600   0.18683854     0.0011945577   0.0011945577   0              0              548.54886      798.43553      298.46585      0             -8.4347532      0              0              9.605213       9.6041359      0.2            92.249771    
      1700   0.22158375     0.0012806886   0.0012806886   0              0              1327.812       2318.8106      336.62192      0             -181.1127       0              0              9.6042511      9.601032       0.2            92.210723    
      1800   0.20761847     0.0011101264   0.0011101264   0              0              524.60115      720.24662      328.74273      0             -174.43446      0              0              9.6032892      9.606244       0.2            92.251539    
      1900   0.17725391     0.0011067574   0.0011067574   0              0              157.54564     -171.42982      486.33475      0             -423.07517      0              0              9.6023273      9.6092393      0.2            92.271061    
      2000   0.21002238     0.0012393939   0.0012393939   0              0              214.39729      14.744634      413.85025      0             -276.19093      0              0              9.6013654      9.6152557      0.2            92.319584    
      2100   0.25219485     0.000814114    0.000814114    0              0              221.64188      110.14921      332.93814      0              24.608618      0              0              9.6004035      9.6098252      0.2            92.2582      
      2200   0.16345915     0.001032672    0.001032672    0              0              219.17132      220.8285       217.34118      0              288.73271      0              0              9.5994417      9.6160702      0.2            92.308905    
      2300   0.17470274     0.00093766179  0.00093766179  0              0              437.61735      648.95783      226.08995      0             -19.711298      0              0              9.5984798      9.6118193      0.2            92.258853    
      2400   0.24801895     0.00080918386  0.00080918386  0              0              236.79808      322.5013       150.91521      0              341.06143      0              0              9.5975179      9.614386       0.2            92.274241    
      2500   0.1698103      0.0010574274   0.0010574274   0              0              242.73417      369.41968      115.85751      0              688.79864      0              0              9.596556       9.6127126      0.2            92.248935    
      2600   0.22613709     0.00097775276  0.00097775276  0              0              558.57248      1112.1826      4.739623       0              71.73369       0              0              9.5955941      9.6206308      0.2            92.315669    
      2700   0.21246838     0.0011430791   0.0011430791   0              0              162.75544      449.49387     -124.16227      0             -164.1186       0              0              9.5946322      9.6200708      0.2            92.301041    
      2800   0.18536565     0.0012488156   0.0012488156   0              0              42.201932      225.60809     -141.39256      0             -319.42906      0              0              9.5936703      9.6167187      0.2            92.259628    
      2900   0.22476035     0.0010543269   0.0010543269   0              0             -166.19635     -228.36897     -104.21482      0              2.4104631      0              0              9.5927084      9.6149021      0.2            92.232953    
      3000   0.21472244     0.0010850037   0.0010850037   0              0              337.82954      786.91228     -111.44748      0             -384.0467       0              0              9.5917465      9.6113635      0.2            92.189762    
      3100   0.20419863     0.0010352355   0.0010352355   0              0             -69.528472      101.15204     -240.42212      0             -269.21224      0              0              9.5907846      9.6132372      0.2            92.198488    
      3200   0.22805783     0.0011598804   0.0011598804   0              0              167.87608      740.70127     -405.16551      0             -383.11464      0              0              9.5898228      9.6199358      0.2            92.253479    
      3300   0.18589543     0.001079361    0.001079361    0              0             -634.92914     -837.63751     -432.41681      0              392.79713      0              0              9.5888609      9.6184855      0.2            92.230319    
      3400   0.20993998     0.0012220577   0.0012220577   0              0             -816.64668     -1058.9949     -574.49071      0              203.43292      0              0              9.587899       9.6169883      0.2            92.206712    
      3500   0.22757813     0.001148795    0.001148795    0              0             -594.38237     -488.7515      -700.23125      0             -180.97978      0              0              9.5869371      9.6254175      0.2            92.278272    
      3600   0.19746104     0.0011344284   0.0011344284   0              0             -60.618113      617.5888      -739.04342      0             -313.93218      0              0              9.5859752      9.6238238      0.2            92.253737    
      3700   0.26815291     0.0011224616   0.0011224616   0              0             -527.59103     -271.92852     -783.45682      0             -528.27558      0              0              9.5850133      9.6182014      0.2            92.190588    
      3800   0.18832246     0.00089544326  0.00089544326  0              0             -582.17764     -380.31943     -784.22185      0              176.48858      0              0              9.5840514      9.6160638      0.2            92.16085     
      3900   0.20773801     0.0011204155   0.0011204155   0              0             -168.67427      488.66201     -826.2104       0              1007.6751      0              0              9.5830895      9.6192203      0.2            92.181849    
      4000   0.21181094     0.0012749649   0.0012749649   0              0              47.953067      948.59771     -852.9321       0              537.14332      0              0              9.5821276      9.6182567      0.2            92.163364    
      4100   0.19437862     0.0014575657   0.0014575657   0              0             -123.34462      552.73087     -799.62252      0              235.07868      0              0              9.5811657      9.6235335      0.2            92.20467     
      4200   0.25659464     0.0012164547   0.0012164547   0              0             -98.312379      573.59472     -770.38424      0             -343.49334      0              0              9.5802039      9.6184125      0.2            92.146353    
      4300   0.27178375     0.0011909409   0.0011909409   0              0             -344.00282      102.82689     -791.00236      0             -324.7675       0              0              9.579242       9.6189517      0.2            92.142266    
      4400   0.27167771     0.0012330007   0.0012330007   0              0             -733.2357      -721.03641     -745.65529      0             -361.7138       0              0              9.5782801      9.6266485      0.2            92.206736    
      4500   0.18625049     0.0012601301   0.0012601301   0              0             -903.20594     -1127.2769     -679.34708      0             -711.73921      0              0              9.5773182      9.6287768      0.2            92.217859    
      4600   0.18010635     0.0013642697   0.0013642697   0              0             -832.09395     -1074.3322     -590.03103      0              58.85856       0              0              9.5763563      9.6260889      0.2            92.182857    
      4700   0.22504309     0.0011323617   0.0011323617   0              0             -66.392413      369.42333     -502.38585      0             -31.836542      0              0              9.5753944      9.6270054      0.2            92.182374    
      4800   0.21457625     0.0010669388   0.0010669388   0              0              46.528565      536.54806     -443.69501      0             -194.12351      0              0              9.5744325      9.6249044      0.2            92.152998    
      4900   0.1798285      0.001017751    0.001017751    0              0             -21.540837      274.90312     -318.18813      0              107.03504      0              0              9.5734706      9.6249633      0.2            92.144304    
      5000   0.21946289     0.0010918223   0.0010918223   0              0              319.66145      688.26378     -49.156239      0             -268.89006      0              0              9.5725087      9.6283641      0.2            92.167599    
      5100   0.22405924     0.001280095    0.001280095    0              0             -237.75725     -568.62116      92.938081      0             -89.396907      0              0              9.5715468      9.6299122      0.2            92.173155    
      5200   0.21306584     0.0010359398   0.0010359398   0              0              571.58383      960.73448      182.21902      0              887.27399      0              0              9.570585       9.6255543      0.2            92.122185    
      5300   0.24269977     0.001165149    0.001165149    0              0              908.6371       1566.3764      250.70503      0              382.99929      0              0              9.5696231      9.623447       0.2            92.09276     
      5400   0.19747465     0.0012616694   0.0012616694   0              0              893.06241      1555.7585      230.20322      0             -391.43318      0              0              9.5686612      9.6237306      0.2            92.086217    
      5500   0.20775532     0.001026808    0.001026808    0              0              353.64461      507.21602      199.89015      0             -74.038022      0              0              9.5676993      9.6274309      0.2            92.112364    
      5600   0.2091943      0.0010170447   0.0010170447   0              0              707.50346      1101.3129      313.48893      0              19.259908      0              0              9.5667374      9.6250166      0.2            92.080006    
      5700   0.2050129      0.0012001073   0.0012001073   0              0              866.73114      1364.6844      368.59316      0             -642.21243      0              0              9.5657755      9.621323       0.2            92.035416    
      5800   0.22826145     0.00096669693  0.00096669693  0              0              909.6127       1460.3098      358.73609      0              285.57655      0              0              9.5648136      9.619401       0.2            92.007778    
      5900   0.1573234      0.00094341027  0.00094341027  0              0              419.52963      547.42365      291.43914      0              131.84988      0              0              9.5638517      9.6217537      0.2            92.021026    
      6000   0.20869058     0.00090044218  0.00090044218  0              0              64.137844     -140.89317      268.93896      0              77.654598      0              0              9.5628898      9.6274246      0.2            92.066001    
      6100   0.14647919     0.0010502479   0.0010502479   0              0              462.53688      700.46182      224.39314      0             -635.53451      0              0              9.5619279      9.6279183      0.2            92.061461    
      6200   0.17560707     0.0011379872   0.0011379872   0              0              557.4431       807.10939      307.61315      0             -134.23238      0              0              9.5609661      9.6251627      0.2            92.025854    
      6300   0.20766171     0.00094820833  0.00094820833  0              0              401.1689       499.99475      302.13157      0             -63.831227      0              0              9.5600042      9.625264       0.2            92.017564    
      6400   0.21174444     0.0012554928   0.0012554928   0              0              641.01439      929.16083      352.67099      0              255.60838      0              0              9.5590423      9.628707       0.2            92.041218    
      6500   0.18698206     0.0012652512   0.0012652512   0              0              496.15886      515.55602      476.5928       0             -516.76997      0              0              9.5580804      9.6279881      0.2            92.025084    
      6600   0.20451913     0.0010173579   0.0010173579   0              0              1046.3232      1486.0702      606.39259      0             -165.3768       0              0              9.5571185      9.6264271      0.2            92.000905    
      6700   0.2113026      0.0014260242   0.0014260242   0              0              1006.2365      1527.6733      484.5988       0             -0.44433207     0              0              9.5561566      9.6259784      0.2            91.987357    
      6800   0.20347122     0.0010094268   0.0010094268   0              0              479.56541      318.4664       640.44645      0             -235.37485      0              0              9.5551947      9.6275625      0.2            91.993234    
      6900   0.193492       0.0010679302   0.0010679302   0              0              256.0978      -133.3269       645.37618      0              366.13034      0              0              9.5542328      9.6253593      0.2            91.962924    
      7000   0.20791566     0.0012259547   0.0012259547   0              0              348.36778      203.69093      492.84578      0              427.2194       0              0              9.5532709      9.6224399      0.2            91.925776    
      7100   0.2270281      0.0010730287   0.0010730287   0              0              545.22508      629.05494      461.20527      0             -922.8494       0              0              9.552309       9.6224915      0.2            91.917013    
      7200   0.23304611     0.0011238962   0.0011238962   0              0              262.09911      224.2164       299.76084      0              259.94698      0              0              9.5513472      9.6274525      0.2            91.955141    
      7300   0.18587819     0.0014373001   0.0014373001   0              0              306.88724      256.61003      356.98001      0             -227.52704      0              0              9.5503853      9.6254451      0.2            91.926709    
      7400   0.20653107     0.0011189198   0.0011189198   0              0              571.25227      755.85929      386.45489      0              570.80545      0              0              9.5494234      9.628945       0.2            91.950873    
      7500   0.17517766     0.0014669762   0.0014669762   0              0              955.09357      1527.3168      382.65634      0              170.60195      0              0              9.5484615      9.6321511      0.2            91.972224    
      7600   0.22328215     0.0012655611   0.0012655611   0              0              71.598573     -192.69829      335.71321      0              426.91085      0              0              9.5474996      9.6373027      0.2            92.012143    
      7700   0.17275552     0.0011984524   0.0011984524   0              0              460.67548      565.89651      355.2357       0              63.928235      0              0              9.5465377      9.6369197      0.2            91.999217    
      7800   0.20380259     0.0013052035   0.0013052035   0              0              1120.3158      1853.7178      386.71887      0              67.565488      0              0              9.5455758      9.6404575      0.2            92.023718    
      7900   0.21195978     0.0012883326   0.0012883326   0              0              766.31153      1131.6851      400.74751      0              203.1802       0              0              9.5446139      9.6417872      0.2            92.027136    
      8000   0.17634438     0.0012047426   0.0012047426   0              0              612.00248      894.38958      329.38863      0             -34.17911       0              0              9.543652       9.6462314      0.2            92.060276    
      8100   0.16533449     0.0015555859   0.0015555859   0              0              754.76973      1114.1708      395.21348      0             -25.377063      0              0              9.5426901      9.6424295      0.2            92.014717    
      8200   0.17845951     0.0015262096   0.0015262096   0              0              246.24905      129.85856      362.46614      0              458.34249      0              0              9.5417283      9.6473058      0.2            92.05197     
      8300   0.19160205     0.0014293129   0.0014293129   0              0              640.03216      929.62453      350.21633      0              270.91834      0              0              9.5407664      9.6463267      0.2            92.03335     
      8400   0.2327824      0.0011328725   0.0011328725   0              0              1391.0994      2396.7577      385.25904      0             -71.810428      0              0              9.5398045      9.6490525      0.2            92.050075    
      8500   0.19896516     0.0011927693   0.0011927693   0              0              857.70484      1301.6384      413.54548      0             -60.216128      0              0              9.5388426      9.6468713      0.2            92.019987    
      8600   0.19769153     0.00090820653  0.00090820653  0              0              664.25514      967.2828       361.01152      0              156.36839      0              0              9.5378807      9.6491312      0.2            92.032262    
      8700   0.18249487     0.0012950919   0.0012950919   0              0              673.79204      934.2425       413.1406       0              343.27492      0              0              9.5369188      9.6475461      0.2            92.007863    
      8800   0.24470365     0.0011640442   0.0011640442   0              0              344.40395      361.68657      326.93046      0              365.98055      0              0              9.5359569      9.6445084      0.2            91.969617    
      8900   0.18140866     0.0010995353   0.0010995353   0              0              524.66312      754.0161       295.05205      0              281.90896      0              0              9.534995       9.6395045      0.2            91.912627    
      9000   0.17985968     0.0015109728   0.0015109728   0              0              308.77054      233.05462      384.25657      0              558.08857      0              0              9.5340331      9.6383578      0.2            91.892423    
      9100   0.20696245     0.0011315751   0.0011315751   0              0              334.94656      284.6957       384.99126      0             -86.162849      0              0              9.5330712      9.6405158      0.2            91.903724    
      9200   0.20291        0.0011016567   0.0011016567   0              0              423.40585      494.32198      352.254        0             -359.84606      0              0              9.5321094      9.6422342      0.2            91.910831    
      9300   0.20554105     0.0013248181   0.0013248181   0              0              788.34415      1295.2884      281.20626      0             -106.73005      0              0              9.5311475      9.6514728      0.2            91.98961     
      9400   0.21697067     0.0010258346   0.0010258346   0              0              1001.0487      1692.5738      309.32538      0              236.48011      0              0              9.5301856      9.6419832      0.2            91.889889    
      9500   0.1995766      0.0010642011   0.0010642011   0              0              293.76726      355.2388       232.09092      0              780.34873      0              0              9.5292237      9.6409515      0.2            91.870783    
      9600   0.16328366     0.0010995565   0.0010995565   0              0              462.08786      712.31609      211.67736      0              342.78965      0              0              9.5282618      9.6417752      0.2            91.869359    
      9700   0.21282465     0.0013112219   0.0013112219   0              0              176.43735      264.72686      87.959778      0              360.10778      0              0              9.5272999      9.6479194      0.2            91.918622    
      9800   0.1968658      0.0010491489   0.0010491489   0              0             -121.19264     -340.69807      98.128979      0              694.87561      0              0              9.526338       9.653513       0.2            91.962628    
      9900   0.23421565     0.0011470185   0.0011470185   0              0             -57.402841     -99.942995     -15.049767      0              566.20665      0              0              9.5253761      9.6561386      0.2            91.978352    
     10000   0.20340815     0.00099533855  0.00099533855  0              0             -220.85467     -437.13508     -4.8066995      0              469.88152      0              0              9.5244142      9.6531656      0.2            91.940748    
     10100   0.18004757     0.0010563068   0.0010563068   0              0              344.44634      743.45177     -54.772668      0              350.66989      0              0              9.5234523      9.645732       0.2            91.860669    
     10200   0.20976392     0.0012027625   0.0012027625   0              0              339.75006      767.95217     -88.645479      0              35.958101      0              0              9.5224905      9.6486767      0.2            91.879432    
     10300   0.17944291     0.0010375245   0.0010375245   0              0             -200.95745     -144.06663     -258.07435      0             -12.863772      0              0              9.5215286      9.6514213      0.2            91.896284    
     10400   0.18668572     0.0010994667   0.0010994667   0              0              444.40199      1168.0848     -279.5271       0              1155.0955      0              0              9.5205667      9.652516       0.2            91.897422    
     10500   0.19726925     0.001069999    0.001069999    0              0              101.99162      521.82178     -318.00793      0             -240.76275      0              0              9.5196048      9.657636       0.2            91.936877    
     10600   0.20530892     0.00082634858  0.00082634858  0              0             -12.770965      361.9323      -387.65162      0             -47.865009      0              0              9.5186429      9.6586704      0.2            91.937435    
     10700   0.15805424     0.0011075826   0.0011075826   0              0              145.56354      637.15929     -346.19801      0              196.77165      0              0              9.517681       9.6555031      0.2            91.897998    
     10800   0.25290788     0.0010863157   0.0010863157   0              0             -366.6939      -338.9743      -394.57931      0              217.26448      0              0              9.5167191      9.6538319      0.2            91.872807    
     10900   0.25355695     0.00097656377  0.00097656377  0              0             -456.73524     -478.60398     -435.06472      0              210.16232      0              0              9.5157572      9.6546306      0.2            91.87112     
     11000   0.15729816     0.00091232091  0.00091232091  0              0             -834.67791     -1156.8873     -512.6524       0             -251.51564      0              0              9.5147953      9.6556088      0.2            91.871142    
     11100   0.2041331      0.00073941477  0.00073941477  0              0             -536.32958     -551.47605     -521.37094      0              150.09003      0              0              9.5138334      9.6573714      0.2            91.878623    
     11200   0.15649979     0.00098437546  0.00098437546  0              0             -378.69519     -290.31253     -467.25414      0             -106.71521      0              0              9.5128716      9.6599986      0.2            91.894326    
     11300   0.21814444     0.00097826997  0.00097826997  0              0             -16.6008        420.14521     -453.56124      0             -324.91         0              0              9.5119097      9.6580629      0.2            91.866622    
     11400   0.20068996     0.0012482884   0.0012482884   0              0              322.5776       1088.8879     -443.95553      0              612.13079      0              0              9.5109478      9.6633962      0.2            91.908057    
     11500   0.24203647     0.0011516947   0.0011516947   0              0              73.842423      517.15383     -369.65133      0              167.67732      0              0              9.5099859      9.6579751      0.2            91.847207    
     11600   0.21340398     0.0011778936   0.0011778936   0              0             -192.20501     -1.3759084     -383.23431      0              191.51167      0              0              9.509024       9.6586979      0.2            91.84479     
     11700   0.21929206     0.0011727379   0.0011727379   0              0              148.4749       671.2399      -374.46321      0             -446.23833      0              0              9.5080621      9.6554795      0.2            91.804899    
     11800   0.21312997     0.0011578472   0.0011578472   0              0              395.84825      1156.4729     -364.9931       0              3.0664507      0              0              9.5071002      9.656704       0.2            91.807253    
     11900   0.19933089     0.00090025037  0.00090025037  0              0              128.28723      544.56707     -288.2161       0              477.51884      0              0              9.5061383      9.6568597      0.2            91.799444    
     12000   0.15558996     0.0011050206   0.0011050206   0              0              433.68506      1077.8131     -210.60177      0             -468.90343      0              0              9.5051764      9.6528637      0.2            91.752172    
     12100   0.19925345     0.00086076244  0.00086076244  0              0             -149.15581     -94.300164     -204.17461      0              181.52421      0              0              9.5042145      9.657331       0.2            91.785346    
     12200   0.22916454     0.0010347372   0.0010347372   0              0             -35.273598      92.120636     -162.84404      0             -242.56676      0              0              9.5032527      9.6604287      0.2            91.805495    
     12300   0.17547622     0.0010427679   0.0010427679   0              0              264.99229      512.07179      17.7184        0             -143.34311      0              0              9.5022908      9.6498982      0.2            91.696138    
     12400   0.17884126     0.0012269281   0.0012269281   0              0              149.12747      283.6314       14.417307      0              260.93538      0              0              9.5013289      9.6498939      0.2            91.686815    
     12500   0.21643903     0.0014116252   0.0014116252   0              0              346.58235      534.26472      158.72048      0              531.18253      0              0              9.500367       9.6506602      0.2            91.684813    
     12600   0.22529461     0.0010085516   0.0010085516   0              0              906.95711      1554.6106      259.07044      0              13.92067       0              0              9.4994051      9.6491944      0.2            91.661606    
     12700   0.19645895     0.00092399955  0.00092399955  0              0              214.05202      46.363587      381.56102      0              329.85977      0              0              9.4984432      9.6421302      0.2            91.585226    
     12800   0.23039316     0.001139845    0.001139845    0              0              225.8341       29.676701      421.8154       0              73.399031      0              0              9.4974813      9.6409838      0.2            91.565063    
     12900   0.26112957     0.0010898724   0.0010898724   0              0              462.46576      468.4085       456.3716       0              117.60914      0              0              9.4965194      9.6462759      0.2            91.606047    
     13000   0.20892746     0.0011299393   0.0011299393   0              0              358.44584      232.91718      483.77217      0              212.01345      0              0              9.4955575      9.6463186      0.2            91.597173    
     13100   0.21772656     0.0011291824   0.0011291824   0              0              904.76752      1264.5094      544.87027      0             -724.17869      0              0              9.4945956      9.642558       0.2            91.552189    
     13200   0.20134526     0.001485698    0.001485698    0              0              621.70399      529.21654      714.00246      0             -574.88912      0              0              9.4936338      9.6405511      0.2            91.523861    
     13300   0.24923475     0.0010475243   0.0010475243   0              0              1220.3629      1590.2999      850.2211       0             -1117.2222      0              0              9.4926719      9.6439418      0.2            91.546775    
     13400   0.21211165     0.00094839664  0.00094839664  0              0              1322.1751      1693.0636      951.07961      0             -607.06189      0              0              9.49171        9.6400642      0.2            91.500694    
     13500   0.21099575     0.0010066908   0.0010066908   0              0              1390.0882      1724.3036      1055.6833      0              330.15977      0              0              9.4907481      9.6387617      0.2            91.479059    
     13600   0.20974468     0.0010270942   0.0010270942   0              0              1034.5682      988.88326      1080.0601      0             -158.13038      0              0              9.4897862      9.6384726      0.2            91.467044    
     13700   0.1883631      0.001118994    0.001118994    0              0              775.16265      372.88838      1177.222       0              731.61146      0              0              9.4888243      9.640303       0.2            91.475142    
     13800   0.24925063     0.0010652205   0.0010652205   0              0              919.27833      602.90536      1235.4531      0              444.12858      0              0              9.4878624      9.6470008      0.2            91.529416    
     13900   0.18039419     0.0011358715   0.0011358715   0              0              131.12221     -1105.4282      1367.4463      0              195.39213      0              0              9.4869005      9.6427411      0.2            91.479726    
     14000   0.19759479     0.001163006    0.001163006    0              0              846.69775      357.34338      1335.8752      0             -34.048782      0              0              9.4859386      9.6460417      0.2            91.50176     
     14100   0.20057608     0.0011311162   0.0011311162   0              0              493.78255     -272.1951       1259.583       0             -220.60742      0              0              9.4849767      9.6467716      0.2            91.499404    
     14200   0.22543349     0.0010026229   0.0010026229   0              0              335.30573     -483.0527       1153.4962      0              645.33959      0              0              9.4840149      9.6444931      0.2            91.468515    
     14300   0.27413509     0.00094622497  0.00094622497  0              0              572.8063       87.443764      1057.9645      0              120.47684      0              0              9.483053       9.6363736      0.2            91.382241    
     14400   0.19820191     0.0012737677   0.0012737677   0              0             -228.24331     -1379.4469      922.76398      0              1140.9057      0              0              9.4820911      9.6310598      0.2            91.322587    
     14500   0.21749616     0.0011892173   0.0011892173   0              0              287.81323     -110.66739      686.09749      0             -562.72887      0              0              9.4811292      9.641481       0.2            91.412126    
     14600   0.22381119     0.0010234717   0.0010234717   0              0              306.75764      123.85308      489.45555      0              139.56202      0              0              9.4801673      9.6460258      0.2            91.445938    
     14700   0.22255583     0.0011817163   0.0011817163   0              0              79.568306     -195.29273      354.22137      0             -419.45003      0              0              9.4792054      9.6433505      0.2            91.4113      
     14800   0.25021716     0.0010439581   0.0010439581   0              0              549.46273      879.49613      219.24324      0             -309.18401      0              0              9.4782435      9.6477455      0.2            91.443681    
     14900   0.18145966     0.00090938113  0.00090938113  0              0              310.87251      529.97738      91.553542      0             -435.6196       0              0              9.4772816      9.646444       0.2            91.422067    
     15000   0.17350552     0.0010947411   0.0010947411   0              0              241.7117       474.51315      8.7177431      0              148.11909      0              0              9.4763197      9.6503563      0.2            91.449862    
     15100   0.2046059      0.0010895535   0.0010895535   0              0             -428.44141     -660.9579      -196.13925      0              10.861434      0              0              9.4753578      9.6540925      0.2            91.475981    
     15200   0.21244331     0.0011190048   0.0011190048   0              0              330.5902       895.37913     -234.41347      0              737.88879      0              0              9.474396       9.6487417      0.2            91.415999    
     15300   0.21012581     0.0010583679   0.0010583679   0              0              320.67116      812.18182     -171.02129      0              273.73845      0              0              9.4734341      9.6494492      0.2            91.413421    
     15400   0.23616356     0.0012376901   0.0012376901   0              0             -448.76282     -716.54012     -181.19768      0              218.76761      0              0              9.4724722      9.6501332      0.2            91.410618    
     15500   0.22435056     0.0013734132   0.0013734132   0              0             -243.02384     -230.11747     -256.11654      0             -250.12634      0              0              9.4715103      9.6519304      0.2            91.418358    
     15600   0.19564906     0.0012835881   0.0012835881   0              0              136.15909      687.22114     -415.08135      0              256.09364      0              0              9.4705484      9.6526351      0.2            91.415748    
     15700   0.21368444     0.0011294177   0.0011294177   0              0              37.115654      535.8282      -461.80904      0             -390.49386      0              0              9.4695865      9.6557455      0.2            91.435917    
     15800   0.1977474      0.0012445972   0.0012445972   0              0              129.32855      804.16423     -545.72593      0             -57.944021      0              0              9.4686246      9.6591846      0.2            91.459193    
     15900   0.18690539     0.0008857214   0.0008857214   0              0              737.34022      1995.9593     -521.45157      0             -46.270613      0              0              9.4676627      9.6617896      0.2            91.474565    
     16000   0.1590526      0.0011028528   0.0011028528   0              0              103.39309      796.54323     -589.96571      0              176.08801      0              0              9.4667008      9.6612419      0.2            91.460087    
     16100   0.17483106     0.0011486953   0.0011486953   0              0             -153.86675      299.86044     -607.78531      0             -162.92464      0              0              9.4657389      9.6569519      0.2            91.410186    
     16200   0.21129512     0.0011366015   0.0011366015   0              0             -514.29846     -533.49379     -495.27461      0              513.56712      0              0              9.464777       9.654854       0.2            91.381041    
     16300   0.18900532     0.0011227768   0.0011227768   0              0             -695.82857     -956.82602     -435.04367      0              616.29986      0              0              9.4638152      9.6489455      0.2            91.315837    
     16400   0.17237448     0.0012571182   0.0012571182   0              0             -222.78377     -106.85225     -338.88707      0              432.24717      0              0              9.4628533      9.6504758      0.2            91.321037    
     16500   0.21427748     0.0011486513   0.0011486513   0              0             -31.680185      208.85233     -272.44507      0             -183.3651       0              0              9.4618914      9.6532799      0.2            91.338286    
     16600   0.17888688     0.0011114366   0.0011114366   0              0             -461.59993     -793.398       -129.98199      0              274.26504      0              0              9.4609295      9.6566082      0.2            91.36049     
     16700   0.19473043     0.0011505151   0.0011505151   0              0              336.38448      697.85832     -25.271393      0             -353.79868      0              0              9.4599676      9.6520114      0.2            91.307716    
     16800   0.20896923     0.0013687518   0.0013687518   0              0             -73.439054     -270.73833      123.61992      0             -398.8226       0              0              9.4590057      9.6607467      0.2            91.381059    
     16900   0.20135798     0.0010556359   0.0010556359   0              0              719.68736      1245.596       193.57599      0             -462.27991      0              0              9.4580438      9.6577717      0.2            91.343628    
     17000   0.20725109     0.0012220488   0.0012220488   0              0              757.20363      1117.469       396.72434      0             -34.705217      0              0              9.4570819      9.6581455      0.2            91.337873    
     17100   0.20357804     0.0010338619   0.0010338619   0              0              1085.6996      1550.3094      620.90761      0              175.23597      0              0              9.45612        9.6620414      0.2            91.365424    
     17200   0.23728301     0.0011232597   0.0011232597   0              0              1249.0956      1816.3779      681.62323      0              16.291936      0              0              9.4551581      9.6585482      0.2            91.323101    
     17300   0.21269641     0.001068321    0.001068321    0              0              1491.8151      2254.9937      728.42809      0             -109.164        0              0              9.4541963      9.6627146      0.2            91.353201    
     17400   0.25032347     0.0012206174   0.0012206174   0              0              1164.4192      1509.1107      819.57664      0              4.3680491      0              0              9.4532344      9.660042       0.2            91.318641    
     17500   0.2640948      0.0013740139   0.0013740139   0              0              1001.5474      1147.3381      855.57486      0             -574.03942      0              0              9.4522725      9.6597813      0.2            91.306884    
     17600   0.2639149      0.0013539781   0.0013539781   0              0              1029.9006      1161.6382      897.98463      0             -948.93458      0              0              9.4513106      9.6586884      0.2            91.287264    
     17700   0.21408701     0.0012657655   0.0012657655   0              0              1273.1257      1558.4416      987.60796      0             -601.01104      0              0              9.4503487      9.663464       0.2            91.323105    
     17800   0.20459851     0.0012041704   0.0012041704   0              0              950.15513      940.5801       959.53817      0             -182.02565      0              0              9.4493868      9.6670797      0.2            91.347975    
     17900   0.23385391     0.00095809179  0.00095809179  0              0              1170.6699      1525.2629      815.84467      0             -262.64885      0              0              9.4484249      9.6678496      0.2            91.345951    
     18000   0.19512997     0.0013064717   0.0013064717   0              0              645.89532      591.77324      699.80617      0             -678.54879      0              0              9.447463       9.6647118      0.2            91.307007    
     18100   0.24239584     0.0012299969   0.0012299969   0              0              809.45109      1114.8071      503.91113      0             -228.20213      0              0              9.4465011      9.6742569      0.2            91.387879    
     18200   0.21327138     0.0010120295   0.0010120295   0              0              423.46072      554.20609      292.53084      0             -424.86364      0              0              9.4455392      9.672434       0.2            91.361355    
     18300   0.23214965     0.0010621229   0.0010621229   0              0              521.92099      847.58923      196.07295      0              44.654929      0              0              9.4445774      9.6707757      0.2            91.336389    
     18400   0.21779599     0.00097671087  0.00097671087  0              0              88.429         271.39583     -94.707829      0             -604.33892      0              0              9.4436155      9.6717091      0.2            91.335902    
     18500   0.18654128     0.0010432588   0.0010432588   0              0              729.39384      1832.314      -373.72503      0             -463.25047      0              0              9.4426536      9.6734054      0.2            91.342616    
     18600   0.1669981      0.0011368395   0.0011368395   0              0             -29.750474      420.33322     -480.03894      0             -46.739763      0              0              9.4416917      9.6720979      0.2            91.320967    
     18700   0.18473284     0.0013347299   0.0013347299   0              0              78.833823      727.83766     -570.34088      0             -974.06206      0              0              9.4407298      9.6738367      0.2            91.328078    
     18800   0.21205407     0.0012332288   0.0012332288   0              0              164.33666      961.662       -633.15837      0              54.728777      0              0              9.4397679      9.6774855      0.2            91.353217    
     18900   0.24385579     0.0011453875   0.0011453875   0              0              51.59604       709.74116     -606.71087      0              65.955201      0              0              9.438806       9.6717234      0.2            91.289521    
     19000   0.19426361     0.0012565396   0.0012565396   0              0              148.0139       879.52237     -583.67494      0             -318.57094      0              0              9.4378441      9.6727847      0.2            91.290234    
     19100   0.19330218     0.0011034566   0.0011034566   0              0             -409.7034      -271.74824     -547.87266      0              26.53165       0              0              9.4368822      9.6719247      0.2            91.272814    
     19200   0.18373068     0.0014351159   0.0014351159   0              0              410.04224      1201.5224     -381.62083      0              309.73125      0              0              9.4359203      9.6682365      0.2            91.228709    
     19300   0.21208644     0.0011696243   0.0011696243   0              0              861.65174      2040.4148     -317.33342      0              12.18648       0              0              9.4349585      9.6668274      0.2            91.206115    
     19400   0.19236667     0.0010606457   0.0010606457   0              0              387.55072      945.22039     -170.31268      0             -221.99944      0              0              9.4339966      9.6636405      0.2            91.166751    
     19500   0.19624936     0.0010101223   0.0010101223   0              0              773.82125      1572.5234     -25.054143      0             -204.1749       0              0              9.4330347      9.6680841      0.2            91.199373    
     19600   0.16835114     0.0011461111   0.0011461111   0              0              1157.6425      2162.548       152.56148      0             -406.03422      0              0              9.4320728      9.664242       0.2            91.153834    
     19700   0.17645287     0.0011451386   0.0011451386   0              0             -142.00352     -478.99391      194.77134      0             -500.81699      0              0              9.4311109      9.662043       0.2            91.123799    
     19800   0.26367423     0.0010878016   0.0010878016   0              0              725.85029      1088.4194      363.07596      0              574.08234      0              0              9.430149       9.6734185      0.2            91.221778    
     19900   0.20539957     0.0010878032   0.0010878032   0              0              927.8689       1470.7568      384.75987      0             -48.54939       0              0              9.4291871      9.6600529      0.2            91.086447    
     20000   0.20126492     0.00095749355  0.00095749355  0              0              329.3375       277.46432      381.02609      0             -546.68666      0              0              9.4282252      9.6598588      0.2            91.075325    
     20100   0.19343939     0.00096127833  0.00096127833  0              0              700.83142      957.84021      443.63127      0             -152.48754      0              0              9.4272633      9.6515103      0.2            90.987329    
     20200   0.19250816     0.00098041275  0.00098041275  0              0              1127.6899      1807.333       447.87395      0             -645.63446      0              0              9.4263014      9.6476759      0.2            90.941901    
     20300   0.19938494     0.0009735198   0.0009735198   0              0              894.17532      1369.6612      418.45732      0             -402.19798      0              0              9.4253396      9.653207       0.2            90.984753    
     20400   0.21946757     0.0011960237   0.0011960237   0              0              603.98971      797.90817      409.86881      0             -819.99398      0              0              9.4243777      9.65317        0.2            90.975119    
     20500   0.23454266     0.0012906618   0.0012906618   0              0              309.47986      241.51726      377.26054      0             -601.44979      0              0              9.4234158      9.6556701      0.2            90.989394    
     20600   0.20674648     0.0011666791   0.0011666791   0              0              775.89137      1304.6175      246.97871      0             -40.773076      0              0              9.4224539      9.6534791      0.2            90.959461    
     20700   0.20025401     0.0012604788   0.0012604788   0              0              707.00607      1309.6272      104.20042      0             -1220.8082      0              0              9.421492       9.6568058      0.2            90.981519    
     20800   0.18615038     0.00096397178  0.00096397178  0              0              307.28631      660.05116     -45.689937      0             -605.04232      0              0              9.4205301      9.6586832      0.2            90.989916    
     20900   0.24249137     0.00094271089  0.00094271089  0              0              68.960631      362.77194     -225.03672      0             -214.63044      0              0              9.4195682      9.6627537      0.2            91.018967    
     21000   0.23003558     0.0012454689   0.0012454689   0              0              52.878789      398.74856     -293.19258      0             -649.79337      0              0              9.4186063      9.6548838      0.2            90.935549    
     21100   0.2377433      0.0012597757   0.0012597757   0              0              239.44699      841.08715     -362.37046      0             -632.61557      0              0              9.4176444      9.6540788      0.2            90.918682    
     21200   0.17013803     0.00099107361  0.00099107361  0              0              153.52644      807.35954     -500.51463      0             -270.58923      0              0              9.4166825      9.6564541      0.2            90.931763    
     21300   0.19672026     0.0010055162   0.0010055162   0              0             -118.5702       309.57948     -546.93378      0              283.58713      0              0              9.4157207      9.6594103      0.2            90.950309    
     21400   0.20164412     0.0010245085   0.0010245085   0              0              40.431713      602.81492     -522.11694      0              38.893916      0              0              9.4147588      9.6554761      0.2            90.903978    
     21500   0.20362133     0.0012319216   0.0012319216   0              0             -242.07655     -26.431408     -457.92838      0             -456.11992      0              0              9.4137969      9.652307       0.2            90.864858    
     21600   0.20776542     0.00094842327  0.00094842327  0              0             -73.391281      249.79731     -396.80326      0             -91.508508      0              0              9.412835       9.6531859      0.2            90.863846    
     21700   0.16317233     0.0010426213   0.0010426213   0              0              11.515941      362.60841     -339.76178      0              115.80358      0              0              9.4118731      9.6565093      0.2            90.88584     
     21800   0.16341301     0.0011401906   0.0011401906   0              0              20.034202      187.08533     -147.23259      0             -276.48241      0              0              9.4109112      9.6594152      0.2            90.903899    
     21900   0.21817868     0.0010324757   0.0010324757   0              0             -31.557027      28.194929     -91.526278      0             -302.43932      0              0              9.4099493      9.6566154      0.2            90.868262    
     22000   0.21896472     0.0014368561   0.0014368561   0              0              916.53134      1860.1108     -27.208941      0             -184.37515      0              0              9.4089874      9.6606427      0.2            90.896865    
     22100   0.15829111     0.00097302413  0.00097302413  0              0              667.9752       1283.5328      52.263755      0              199.27018      0              0              9.4080255      9.6615958      0.2            90.89654     
     22200   0.17031836     0.0010717305   0.0010717305   0              0              716.80432      1290.5111      142.9202       0              570.28688      0              0              9.4070636      9.667194       0.2            90.939909    
     22300   0.2174761      0.0011568917   0.0011568917   0              0             -196.76634     -541.72956      147.99228      0             -379.78567      0              0              9.4061018      9.6609749      0.2            90.872113    
     22400   0.18186325     0.0012218995   0.0012218995   0              0             -60.809821     -267.27488      145.45201      0              13.695541      0              0              9.4051399      9.6655586      0.2            90.90593     
     22500   0.21675979     0.0010412635   0.0010412635   0              0              296.45666      492.42894      100.28795      0              961.19344      0              0              9.404178       9.6651004      0.2            90.892324    
     22600   0.15857585     0.00075836167  0.00075836167  0              0             -653.9179      -1305.3182     -2.7317688      0              471.82427      0              0              9.4032161      9.6704411      0.2            90.933248    
     22700   0.19593226     0.0011387309   0.0011387309   0              0              176.17181      396.329       -44.205634      0              474.09947      0              0              9.4022542      9.6717181      0.2            90.935952    
     22800   0.22585631     0.001254407    0.001254407    0              0              275.41726      669.8733      -119.22883      0             -73.072037      0              0              9.4012923      9.6693809      0.2            90.904676    
     22900   0.25227041     0.0011770974   0.0011770974   0              0              290.56703      614.3405      -33.417036      0             -254.80917      0              0              9.4003304      9.6676473      0.2            90.879079    
     23000   0.25117859     0.00095072142  0.00095072142  0              0              230.65069      484.97234     -23.866842      0             -593.39054      0              0              9.3993685      9.6624667      0.2            90.821086    
     23100   0.20965994     0.0012494053   0.0012494053   0              0              280.54572      611.35776     -50.425049      0              300.84746      0              0              9.3984066      9.6655074      0.2            90.840369    
     23200   0.25028825     0.00096219726  0.00096219726  0              0              165.60845      427.68298     -96.676208      0             -102.81203      0              0              9.3974447      9.6628916      0.2            90.80649     
     23300   0.24555841     0.00099342193  0.00099342193  0              0             -62.255061     -23.927581     -100.79011      0             -135.7923       0              0              9.3964829      9.6550853      0.2            90.723843    
     23400   0.20643605     0.001068177    0.001068177    0              0             -196.80591     -369.36305     -24.448777      0              619.68592      0              0              9.395521       9.6544169      0.2            90.708276    
     23500   0.23665096     0.00099963845  0.00099963845  0              0             -37.337321      16.912929     -91.826504      0             -747.99235      0              0              9.3945591      9.6561688      0.2            90.715449    
     23600   0.20961177     0.00095635627  0.00095635627  0              0             -31.616728      33.209743     -96.606685      0             -140.00543      0              0              9.3935972      9.6563869      0.2            90.708209    
     23700   0.18775297     0.0012181379   0.0012181379   0              0              917.67033      1991.4812     -156.35222      0             -479.59102      0              0              9.3926353      9.6572864      0.2            90.707369    
     23800   0.2185584      0.0011440819   0.0011440819   0              0              702.26137      1572.0719     -167.75809      0             -487.21685      0              0              9.3916734      9.6572846      0.2            90.698063    
     23900   0.18973175     0.0010996263   0.0010996263   0              0              373.19873      794.93284     -48.759027      0             -404.63694      0              0              9.3907115      9.6628782      0.2            90.741302    
     24000   0.21107949     0.0011396269   0.0011396269   0              0              21.087261      84.377953     -42.40567       0              310.14786      0              0              9.3897496      9.6647123      0.2            90.749229    
     24100   0.20941239     0.001155164    0.001155164    0              0              186.42414      416.00053     -43.343391      0             -99.67786       0              0              9.3887877      9.6570262      0.2            90.66777     
     24200   0.15108447     0.0011370894   0.0011370894   0              0              784.65488      1508.6519      60.465657      0             -364.45421      0              0              9.3878258      9.6547733      0.2            90.637331    
     24300   0.22188825     0.0012364875   0.0012364875   0              0             -204.71684     -504.17943      94.561448      0              7.0565882      0              0              9.386864       9.6569991      0.2            90.648937    
     24400   0.17846811     0.0011961124   0.0011961124   0              0              134.64564      173.89786      95.232215      0             -317.90986      0              0              9.3859021      9.6550504      0.2            90.621358    
     24500   0.22832528     0.0010840562   0.0010840562   0              0              59.331271     -5.7403828      124.26485      0              231.24843      0              0              9.3849402      9.6530992      0.2            90.593759    
     24600   0.2292703      0.0010340403   0.0010340403   0              0              434.82571      792.08848      77.383611      0              279.46393      0              0              9.3839783      9.6601956      0.2            90.651066    
     24700   0.23878304     0.0010110615   0.0010110615   0              0              209.84821      383.97783      35.54507       0              402.82146      0              0              9.3830164      9.6634628      0.2            90.672429    
     24800   0.17709649     0.0010406002   0.0010406002   0              0              790.27301      1531.1705      49.194485      0             -51.114836      0              0              9.3820545      9.6617383      0.2            90.646956    
     24900   0.19984592     0.0011063612   0.0011063612   0              0              778.18768      1409.869       146.28555      0             -1158.6604      0              0              9.3810926      9.6592411      0.2            90.614235    
     25000   0.2305238      0.0010498767   0.0010498767   0              0              556.48264      1043.5468      69.22231       0             -456.24694      0              0              9.3801307      9.658994       0.2            90.602626    
     25100   0.19995713     0.0013777974   0.0013777974   0              0             -227.30907     -445.3937      -9.4291937      0             -217.98469      0              0              9.3791688      9.6638187      0.2            90.638587    
     25200   0.2299171      0.0010468083   0.0010468083   0              0              707.10203      1475.4823     -61.452063      0             -247.16682      0              0              9.3782069      9.6723236      0.2            90.709052    
     25300   0.21810433     0.0013765881   0.0013765881   0              0              535.04633      1101.8922     -31.994068      0             -163.7978       0              0              9.3772451      9.6742818      0.2            90.718112    
     25400   0.2214775      0.0014251396   0.0014251396   0              0              958.01679      1946.0241     -30.135912      0              156.20493      0              0              9.3762832      9.6702712      0.2            90.671201    
     25500   0.22149364     0.0009984969   0.0009984969   0              0              327.84856      720.33029     -64.849895      0              318.94936      0              0              9.3753213      9.6752246      0.2            90.708339    
     25600   0.20343335     0.0012901549   0.0012901549   0              0              735.31037      1519.0005     -48.55566       0              502.3159       0              0              9.3743594      9.6821088      0.2            90.763567    
     25700   0.24147544     0.001037282    0.001037282    0              0              345.18195      618.46314      71.698277      0             -220.66548      0              0              9.3733975      9.6793063      0.2            90.727985    
     25800   0.17194468     0.0012280512   0.0012280512   0              0              709.05532      1325.1771      92.741542      0             -1350.6623      0              0              9.3724356      9.6713029      0.2            90.643664    
     25900   0.17675086     0.0010196886   0.0010196886   0              0              200.32473      412.5667      -12.140174      0             -20.666765      0              0              9.3714737      9.6752653      0.2            90.671494    
     26000   0.22088371     0.0010760494   0.0010760494   0              0              681.59135      1463.4132     -100.41473      0              210.74299      0              0              9.3705118      9.6736423      0.2            90.64698     
     26100   0.23789863     0.0011596181   0.0011596181   0              0              528.3736       1216.8926     -160.32964      0              0.10217164     0              0              9.3695499      9.6760173      0.2            90.659927    
     26200   0.19307099     0.00099285977  0.00099285977  0              0              1027.3821      2052.2825      2.2381905      0              133.98709      0              0              9.368588       9.6755834      0.2            90.646555    
     26300   0.15095503     0.00098565294  0.00098565294  0              0              1097.1022      2231.0516     -37.017368      0             -53.018235      0              0              9.3676262      9.6729312      0.2            90.612404    
     26400   0.20001851     0.0011988965   0.0011988965   0              0              351.28699      645.25563      57.105412      0             -213.42281      0              0              9.3666643      9.6738499      0.2            90.611704    
     26500   0.22310929     0.0011362672   0.0011362672   0              0              174.93877      280.55927      69.124457      0             -450.01194      0              0              9.3657024      9.6693171      0.2            90.559946    
     26600   0.1947463      0.0010329266   0.0010329266   0              0             -79.765304     -239.67338      79.91061       0             -114.35986      0              0              9.3647405      9.6625858      0.2            90.487608    
     26700   0.20186271     0.0012203499   0.0012203499   0              0              393.07767      701.42482      84.556219      0             -223.07359      0              0              9.3637786      9.6677052      0.2            90.526251    
     26800   0.21165875     0.00091959006  0.00091959006  0              0              50.776811      117.48783     -16.130121      0              320.53011      0              0              9.3628167      9.669798       0.2            90.536546    
     26900   0.20406292     0.0011814304   0.0011814304   0              0             -264.267       -452.58048     -76.11997       0              144.53823      0              0              9.3618548      9.6680504      0.2            90.510884    
     27000   0.21586346     0.0010822208   0.0010822208   0              0             -236.87788     -325.70318     -148.30185      0             -582.26228      0              0              9.3608929      9.668672       0.2            90.507404    
     27100   0.20830855     0.00097336879  0.00097336879  0              0             -18.156132      93.997131     -130.51614      0              504.28157      0              0              9.359931       9.67216        0.2            90.530751    
     27200   0.20749202     0.0010237983   0.0010237983   0              0             -20.059458      50.367867     -90.717075      0              7.162074       0              0              9.3589691      9.672178       0.2            90.521616    
     27300   0.22635135     0.0013593912   0.0013593912   0              0              35.193263      77.527427     -7.3554509      0              28.613166      0              0              9.3580073      9.6753043      0.2            90.541567    
     27400   0.19039072     0.0013201297   0.0013201297   0              0             -7.3034898     -243.80391      229.03343      0              501.77646      0              0              9.3570454      9.6713128      0.2            90.494913    
     27500   0.22456354     0.0010296955   0.0010296955   0              0              1101.8434      1834.9036      368.57822      0             -84.150093      0              0              9.3560835      9.6749607      0.2            90.51974     
     27600   0.22418048     0.0010684879   0.0010684879   0              0              495.965        439.32513      552.39917      0              61.546561      0              0              9.3551216      9.6714184      0.2            90.477295    
     27700   0.18346187     0.00098600743  0.00098600743  0              0              325.46732      114.64839      536.08627      0             -178.97355      0              0              9.3541597      9.6675714      0.2            90.432007    
     27800   0.25343183     0.0010197      0.0010197      0              0              473.4581       497.70809      448.99846      0             -8.5515987      0              0              9.3531978      9.671752       0.2            90.46181     
     27900   0.19677882     0.00087836498  0.00087836498  0              0              470.1378       571.6345       368.46762      0              355.61136      0              0              9.3522359      9.6732605      0.2            90.466614    
[...]
     42900   0.17977333     0.0010802211   0.0010802211   0              0              750.37412      690.24422      810.31519      0              870.09547      0              0              9.2079524      9.678971       0.2            89.123504    
     43000   0.17517181     0.0009590744   0.0009590744   0              0              155.65611     -112.29613      423.41786      0              779.69134      0              0              9.2069905      9.6849026      0.2            89.168806    
     43100   0.19986971     0.00094346003  0.00094346003  0              0             -198.32481     -240.36686     -156.44257      0              1038.0256      0              0              9.2060286      9.6866418      0.2            89.175502    
     43200   0.26391653     0.00086978824  0.00086978824  0              0             -289.09429      17.775405     -596.17171      0              317.4624       0              0              9.2050667      9.6926974      0.2            89.221926    
     43300   0.19253685     0.000955111    0.000955111    0              0             -98.155053      711.02174     -907.50481      0             -185.55143      0              0              9.2041048      9.6916838      0.2            89.203274    
     43400   0.18853072     0.001060603    0.001060603    0              0             -406.08995     -66.639706     -745.75454      0              26.553908      0              0              9.203143       9.6896646      0.2            89.175368    
     43500   0.20228236     0.0010635224   0.0010635224   0              0              129.47761      661.92723     -403.17494      0              520.02661      0              0              9.2021811      9.6866941      0.2            89.138713    
     43600   0.19398413     0.00094558548  0.00094558548  0              0              27.064031      144.82505     -90.897027      0              117.30271      0              0              9.2012192      9.6872725      0.2            89.134717    
     43700   0.17324357     0.001276195    0.001276195    0              0             -240.40714     -629.73675      148.71772      0              741.07679      0              0              9.2002573      9.685644       0.2            89.110417    
     43800   0.22272088     0.0012383184   0.0012383184   0              0              653.15225      879.25502      426.83054      0              367.47542      0              0              9.1992954      9.6871383      0.2            89.114847    
     43900   0.2313397      0.0010071508   0.0010071508   0              0              899.77833      1237.8723      561.47496      0             -87.89383       0              0              9.1983335      9.6916663      0.2            89.147178    
     44000   0.18322524     0.0011389283   0.0011389283   0              0              585.28903      705.69141      464.68075      0             -543.18869      0              0              9.1973716      9.6892786      0.2            89.115896    
     44100   0.22453884     0.00091628726  0.00091628726  0              0              310.84853      442.2854       179.22541      0              370.58254      0              0              9.1964097      9.690693       0.2            89.119583    
     44200   0.20919003     0.0010782099   0.0010782099   0              0              453.74051      962.82456     -55.519756      0              415.7273       0              0              9.1954478      9.687357       0.2            89.079586    
     44300   0.19737842     0.00094081172  0.00094081172  0              0             -179.31984     -13.987692     -344.86644      0             -6.8699002      0              0              9.1944859      9.6916341      0.2            89.109594    
     44400   0.22714795     0.0012538842   0.0012538842   0              0             -293.40323     -151.31531     -435.69753      0              620.3105       0              0              9.1935241      9.6895314      0.2            89.08094     
     44500   0.20454009     0.0012706068   0.0012706068   0              0              161.43234      801.79534     -479.1416       0              184.85875      0              0              9.1925622      9.6902892      0.2            89.078586    
     44600   0.18697071     0.0012837059   0.0012837059   0              0              789.86844      1698.4372     -118.90263      0              191.60326      0              0              9.1916003      9.692745       0.2            89.091837    
     44700   0.20380799     0.0011541151   0.0011541151   0              0              705.31411      1215.1047      195.30437      0              278.32401      0              0              9.1906384      9.6958529      0.2            89.111078    
     44800   0.22013689     0.0012745194   0.0012745194   0              0              820.43603      1225.7752      414.90673      0              227.89382      0              0              9.1896765      9.6916107      0.2            89.062767    
     44900   0.22882687     0.0011992329   0.0011992329   0              0              726.09912      966.94976      485.08535      0             -236.87819      0              0              9.1887146      9.6927265      0.2            89.063697    
     45000   0.21002938     0.0011123031   0.0011123031   0              0              1192.6974      1993.0019      392.20406      0             -684.61442      0              0              9.1877527      9.691012       0.2            89.038621    
     45100   0.25100832     0.0011321598   0.0011321598   0              0              837.64386      1477.3922      197.71722      0              139.07869      0              0              9.1867908      9.6967511      0.2            89.082024    
     45200   0.19513327     0.00096016859  0.00096016859  0              0              887.04605      1821.26       -47.342598      0              312.38438      0              0              9.1858289      9.6979164      0.2            89.083401    
     45300   0.17124375     0.0013308558   0.0013308558   0              0              336.6464       966.6816      -293.5963       0             -368.08421      0              0              9.184867       9.7009886      0.2            89.10229     
     45400   0.19612243     0.0011023527   0.0011023527   0              0             -23.79076       466.14841     -513.94248      0             -627.03902      0              0              9.1839051      9.704261       0.2            89.123012    
     45500   0.22299552     0.0010537284   0.0010537284   0              0             -22.561261      494.66794     -540.00312      0              350.88715      0              0              9.1829433      9.6972549      0.2            89.049342    
     45600   0.25251473     0.0012745308   0.0012745308   0              0              498.18908      1281.507      -285.30899      0              710.5151       0              0              9.1819814      9.6957279      0.2            89.025993    
     45700   0.22492252     0.0011088507   0.0011088507   0              0              446.70653      887.45179      5.7674763      0              215.53957      0              0              9.1810195      9.6966277      0.2            89.024928    
     45800   0.20108741     0.0011381246   0.0011381246   0              0              640.88228      900.78553      380.79686      0              1221.5814      0              0              9.1800576      9.6955257      0.2            89.005484    
     45900   0.18988538     0.0011706592   0.0011706592   0              0              334.41286      113.09982      555.52655      0              285.55507      0              0              9.1790957      9.6926385      0.2            88.969656    
     46000   0.24241094     0.0011398016   0.0011398016   0              0              1106.0291      1643.3721      568.50242      0             -48.821221      0              0              9.1781338      9.6988689      0.2            89.017516    
     46100   0.17285303     0.0011604584   0.0011604584   0              0              120.72037     -177.88322      419.0828       0              407.16443      0              0              9.1771719      9.6948105      0.2            88.970943    
     46200   0.22552715     0.001093774    0.001093774    0              0              672.06129      1265.0958      78.841814      0              561.45243      0              0              9.17621        9.6904676      0.2            88.921766    
     46300   0.21790621     0.0013157194   0.0013157194   0              0              546.26429      1450.2041     -357.84909      0             -314.55725      0              0              9.1752481      9.6942133      0.2            88.946813    
     46400   0.24948383     0.0013125494   0.0013125494   0              0             -354.31848     -15.704294     -693.12363      0              199.14902      0              0              9.1742862      9.6923123      0.2            88.920048    
     46500   0.17597773     0.0010405395   0.0010405395   0              0             -505.81973     -89.359888     -922.44949      0              444.47646      0              0              9.1733244      9.6916518      0.2            88.904666    
     46600   0.18742437     0.0011072207   0.0011072207   0              0             -310.17736      92.084003     -712.66361      0             -302.0461       0              0              9.1723625      9.6958265      0.2            88.933635    
     46700   0.17922815     0.00097200781  0.00097200781  0              0              20.350223      238.9943      -198.48836      0              183.81606      0              0              9.1714006      9.6974348      0.2            88.939059    
     46800   0.21360511     0.0012483917   0.0012483917   0              0              680.72013      795.03152      566.23426      0              310.40044      0              0              9.1704387      9.6927399      0.2            88.886677    
     46900   0.17173704     0.0013590575   0.0013590575   0              0              1069.0612      1060.6914      1077.2361      0             -461.12854      0              0              9.1694768      9.6912003      0.2            88.863237    
     47000   0.26022506     0.0012766291   0.0012766291   0              0              1408.5265      1564.1898      1252.6628      0             -648.07984      0              0              9.1685149      9.6869751      0.2            88.815175    
     47100   0.26132805     0.0011496642   0.0011496642   0              0              1226.9685      1640.2884      813.46183      0              880.2799       0              0              9.167553       9.6844738      0.2            88.782927    
     47200   0.21535495     0.0011981647   0.0011981647   0              0              105.04079      167.68892      42.165702      0             -194.52337      0              0              9.1665911      9.6937273      0.2            88.858435    
     47300   0.25598568     0.0011017993   0.0011017993   0              0             -702.47612     -549.28318     -855.87687      0              137.06495      0              0              9.1656292      9.6925752      0.2            88.83855     
     47400   0.19203162     0.0013057273   0.0013057273   0              0             -339.05233      783.71969     -1462.0117      0             -642.77755      0              0              9.1646673      9.692281       0.2            88.826531    
     47500   0.21164197     0.0013575267   0.0013575267   0              0             -722.73558      29.907526     -1475.6048      0             -785.37837      0              0              9.1637055      9.6983232      0.2            88.872577    
     47600   0.23464104     0.0013981473   0.0013981473   0              0             -863.33997     -723.96544     -1002.9425      0             -97.57225       0              0              9.1627436      9.6956731      0.2            88.838966    
     47700   0.20079925     0.0011793671   0.0011793671   0              0              245.55136      579.61771     -88.699889      0             -143.80489      0              0              9.1617817      9.6816873      0.2            88.701505    
     47800   0.2717702      0.00093933703  0.00093933703  0              0              716.48428      740.93308      691.84309      0             -102.05597      0              0              9.1608198      9.6796833      0.2            88.673834    
     47900   0.17927915     0.0011589484   0.0011589484   0              0              577.78949     -43.097157      1198.4721      0              191.90295      0              0              9.1598579      9.6790078      0.2            88.658336    
     48000   0.21420906     0.0012724103   0.0012724103   0              0              1382.6246      1470.9158      1294.1114      0             -301.45091      0              0              9.158896       9.6776979      0.2            88.637028    
     48100   0.22929184     0.0011184748   0.0011184748   0              0              1024.9536      1159.6267      890.06743      0             -196.73212      0              0              9.1579341      9.6703208      0.2            88.56016     
     48200   0.21708686     0.0013966269   0.0013966269   0              0              647.67351      1097.7623      197.39856      0             -193.72842      0              0              9.1569722      9.6832728      0.2            88.66946     
     48300   0.16198854     0.0012928085   0.0012928085   0              0              491.09459      1444.2776     -462.27161      0              315.76037      0              0              9.1560103      9.6906606      0.2            88.727789    
     48400   0.23210498     0.0011858612   0.0011858612   0              0             -546.83982     -305.87755     -788.0289       0              377.3688       0              0              9.1550484      9.6945195      0.2            88.753795    
     48500   0.24220562     0.001418941    0.001418941    0              0              93.745111      971.68222     -784.42209      0             -303.81982      0              0              9.1540866      9.6937892      0.2            88.737785    
     48600   0.24417946     0.0011415299   0.0011415299   0              0              262.63816      1015.3334     -490.25356      0             -149.10418      0              0              9.1531247      9.6825124      0.2            88.625243    
     48700   0.26682246     0.0010578008   0.0010578008   0              0              355.20469      780.95497     -70.749013      0             -464.04851      0              0              9.1521628      9.6816358      0.2            88.607907    
     48800   0.22959541     0.001202403    0.001202403    0              0              1080.2574      1998.608       161.69445      0             -5.4072604      0              0              9.1512009      9.6792297      0.2            88.576576    
     48900   0.20310486     0.001196558    0.001196558    0              0              100.1731      -175.29564      375.46762      0             -776.63828      0              0              9.150239       9.6753954      0.2            88.53218     
     49000   0.20481703     0.0012009906   0.0012009906   0              0              333.09198      241.70226      424.29446      0             -218.31851      0              0              9.1492771      9.6747783      0.2            88.517228    
     49100   0.19852175     0.0014369598   0.0014369598   0              0              733.04154      1094.7863      371.08728      0              86.221243      0              0              9.1483152      9.6757635      0.2            88.516934    
     49200   0.19594625     0.0011830679   0.0011830679   0              0              174.90226      222.221        127.39774      0             -6.0072106      0              0              9.1473533      9.6794376      0.2            88.541236    
     49300   0.19468997     0.0011813492   0.0011813492   0              0              128.04189      409.06488     -153.20085      0              648.33568      0              0              9.1463914      9.6798691      0.2            88.535872    
     49400   0.17874139     0.0012647461   0.0012647461   0              0              33.795179      269.62093     -202.2433       0             -774.17166      0              0              9.1454295      9.6829594      0.2            88.554823    
     49500   0.22671399     0.0011641362   0.0011641362   0              0             -339.48928     -385.75885     -293.4115       0             -624.15807      0              0              9.1444677      9.6915685      0.2            88.624235    
     49600   0.23328809     0.0010594531   0.0010594531   0              0              78.315951      424.47899     -268.02821      0             -330.51839      0              0              9.1435058      9.6976514      0.2            88.670531    
     49700   0.20026556     0.0011818319   0.0011818319   0              0              134.72759      453.71359     -184.48525      0              94.761121      0              0              9.1425439      9.6952428      0.2            88.639183    
     49800   0.27208587     0.0013148154   0.0013148154   0              0             -51.785662     -26.099531     -77.702398      0              219.21795      0              0              9.141582       9.6967161      0.2            88.643326    
     49900   0.22019424     0.00098974703  0.00098974703  0              0             -257.59956     -635.3434       119.89839      0              472.34884      0              0              9.1406201      9.6879752      0.2            88.554101    
     50000   0.25275575     0.0013804096   0.0013804096   0              0              639.62416      1091.6052      187.38273      0             -385.62354      0              0              9.1396582      9.6891651      0.2            88.555657    
     50100   0.18181843     0.0012574807   0.0012574807   0              0             -294.03968     -792.87802      204.62545      0              292.03506      0              0              9.1386963      9.6883668      0.2            88.539042    
     50177   0.23387749     0.0013000995   0.0013000995   0              0             -196.45814     -150.14342     -242.96329      0              601.54716      0              0              9.1379557      9.6943342      0.2            88.586396    
Loop time of 1.17036 on 1 procs for 50000 steps with 65 atoms

Performance: 36911.859 ns/day, 0.001 hours/ns, 42722.059 timesteps/s
100.0% CPU use with 1 MPI tasks x 1 OpenMP threads

MPI task timing breakdown:
Section |  min time  |  avg time  |  max time  |%varavg| %total
---------------------------------------------------------------
Pair    | 0          | 0          | 0          |   0.0 |  0.00
Bond    | 0.17267    | 0.17267    | 0.17267    |   0.0 | 14.75
Neigh   | 0          | 0          | 0          |   0.0 |  0.00
Comm    | 0.3947     | 0.3947     | 0.3947     |   0.0 | 33.73
Output  | 0.0071907  | 0.0071907  | 0.0071907  |   0.0 |  0.61
Modify  | 0.56755    | 0.56755    | 0.56755    |   0.0 | 48.49
Other   |            | 0.02825    |            |       |  2.41

Nlocal:             65 ave          65 max          65 min
Histogram: 1 0 0 0 0 0 0 0 0 0
Nghost:            548 ave         548 max         548 min
Histogram: 1 0 0 0 0 0 0 0 0 0
Neighs:              0 ave           0 max           0 min
Histogram: 1 0 0 0 0 0 0 0 0 0

Total # of neighbors = 0
Ave neighs/atom = 0
Ave special neighs/atom = 22.769231
Neighbor list builds = 0
Dangerous builds = 0


Total wall time: 0:00:01
