LAMMPS data file.

     65 atoms
    142 bonds
      0 angles
      0 dihedrals
      0 impropers
      1 atom types
    142 bond types
      0 angle types
      0 dihedral types
      0 improper types
  -4.809451   4.809451 xlo xhi
  -4.809451   4.809451 ylo yhi
  -0.100000   0.100000 zlo zhi

Masses # ['atom_id', 'mass']

1 10000.0

Atoms # ['atomID', 'moleculeID', 'atomType', 'charge', 'x', 'y', 'z']

     28      1      1   0.000000  -4.202209  -4.471409   0.000000
      2      1      1   0.000000  -2.940855  -4.269489   0.000000
     19      1      1   0.000000  -0.444649  -4.306437   0.000000
     38      1      1   0.000000   0.898344  -4.757465   0.000000
     68      1      1   0.000000   1.582294  -4.388087   0.000000
      8      1      1   0.000000   3.648669  -4.117988   0.000000
     18      1      1   0.000000  -3.234905  -2.883624   0.000000
     16      1      1   0.000000   1.093971  -2.483158   0.000000
     14      1      1   0.000000   2.244212  -3.523670   0.000000
     27      1      1   0.000000   3.571602  -2.754038   0.000000
     10      1      1   0.000000  -4.683891  -3.139180   0.000000
     21      1      1   0.000000  -3.893780  -1.818451   0.000000
     26      1      1   0.000000  -1.413647  -2.325679   0.000000
     37      1      1   0.000000  -0.387259  -3.013985   0.000000
     49      1      1   0.000000   0.046926  -2.170147   0.000000
      9      1      1   0.000000   2.449056  -2.145471   0.000000
      1      1      1   0.000000   4.390753  -1.733142   0.000000
     62      1      1   0.000000  -4.413249  -0.973144   0.000000
     39      1      1   0.000000  -3.119215  -0.973936   0.000000
     24      1      1   0.000000  -2.026851  -1.292016   0.000000
     20      1      1   0.000000  -0.649532  -1.215321   0.000000
     59      1      1   0.000000   0.722264  -1.521459   0.000000
     17      1      1   0.000000   1.832274  -0.846783   0.000000
     13      1      1   0.000000   3.187429  -0.988839   0.000000
     50      1      1   0.000000  -4.059368  -0.302040   0.000000
     78      1      1   0.000000  -3.733393   0.365144   0.000000
     32      1      1   0.000000  -2.886286   0.198135   0.000000
     15      1      1   0.000000  -1.571249   0.040032   0.000000
     58      1      1   0.000000   3.209035   0.217893   0.000000
     35      1      1   0.000000   4.504210  -0.385263   0.000000
     52      1      1   0.000000  -4.325070   0.609282   0.000000
     51      1      1   0.000000   4.331676   1.781130   0.000000
     40      1      1   0.000000  -3.305252   1.150180   0.000000
     45      1      1   0.000000  -2.349820   1.174031   0.000000
     29      1      1   0.000000  -0.528583   0.872369   0.000000
     43      1      1   0.000000  -1.473270   1.206563   0.000000
     12      1      1   0.000000   0.795797   1.480426   0.000000
      5      1      1   0.000000   2.265593   1.158791   0.000000
     79      1      1   0.000000   3.266973   0.939232   0.000000
     34      1      1   0.000000   4.241958   0.720207   0.000000
     47      1      1   0.000000  -4.336157   1.474774   0.000000
     46      1      1   0.000000  -3.107364   2.161364   0.000000
     44      1      1   0.000000  -2.136135   2.082419   0.000000
     60      1      1   0.000000  -1.290173   2.149811   0.000000
     57      1      1   0.000000  -0.311166   1.961979   0.000000
     56      1      1   0.000000   2.434023   2.480883   0.000000
     31      1      1   0.000000   3.374258   2.079075   0.000000
     53      1      1   0.000000   4.547968   2.696496   0.000000
      6      1      1   0.000000  -4.700442   3.670228   0.000000
     30      1      1   0.000000  -4.023427   2.561305   0.000000
     41      1      1   0.000000  -2.724137   2.840837   0.000000
     25      1      1   0.000000  -0.793573   3.038521   0.000000
     76      1      1   0.000000   0.169237   2.792302   0.000000
     33      1      1   0.000000   1.153953   2.797823   0.000000
     11      1      1   0.000000   2.258172   3.612959   0.000000
     65      1      1   0.000000   3.084458   2.842923   0.000000
     54      1      1   0.000000   3.789893   3.006192   0.000000
     22      1      1   0.000000   3.561403   4.072981   0.000000
      7      1      1   0.000000  -3.183726   3.952847   0.000000
     75      1      1   0.000000  -0.369432   3.887863   0.000000
     63      1      1   0.000000  -0.035583   4.350587   0.000000
     36      1      1   0.000000   0.467390   3.647308   0.000000
     67      1      1   0.000000   1.544193   4.373199   0.000000
     23      1      1   0.000000   2.438194   4.803828   0.000000
     42      1      1   0.000000   4.434621   4.585525   0.000000

Bond Coeffs # ['bondID', 'bondCoeff', 'd']

      1   0.837325   1.092831
      2   0.994608   1.002707
      3   1.388518   0.848642
      4   0.559341   1.337093
      5   0.559341   1.337093
      6   0.761893   1.145653
      7   0.613322   1.276896
      8   0.415676   1.551038
      9   0.956488   1.022493
     10   1.006304   0.996863
     11   0.570022   1.324506
     12   0.805375   1.114297
     13   0.499507   1.414912
     14   1.813586   0.742559
     15   1.498244   0.816975
     16   0.805375   1.114297
     17   1.907322   0.724082
     18   0.498234   1.416717
     19   0.686976   1.206506
     20   1.130356   0.940573
     21   0.686976   1.206506
     22   1.334757   0.865563
     23   0.546553   1.352646
     24   1.337644   0.864629
     25   0.561818   1.334143
     26   0.499049   1.415560
     27   1.109748   0.949266
     28   0.932950   1.035311
     29   0.932950   1.035311
     30   0.592396   1.299254
     31   0.530857   1.372497
     32   1.643260   0.780094
     33   1.000876   0.999562
     34   0.498242   1.416706
     35   0.915295   1.045248
     36   0.686219   1.207171
     37   0.919345   1.042943
     38   0.840162   1.090984
     39   0.498293   1.416634
     40   0.523551   1.382039
     41   0.761524   1.145931
     42   1.909540   0.723662
     43   0.838228   1.092242
     44   0.429976   1.525029
     45   0.538612   1.362580
     46   0.512511   1.396846
     47   0.512511   1.396846
     48   1.525561   0.809627
     49   0.715949   1.181841
     50   0.941928   1.030365
     51   1.525561   0.809627
     52   0.692291   1.201865
     53   0.893860   1.057707
     54   0.781083   1.131492
     55   0.893860   1.057707
     56   0.781083   1.131492
     57   1.299717   0.877154
     58   0.525516   1.379453
     59   1.219617   0.905500
     60   0.924280   1.040156
     61   1.341411   0.863414
     62   0.597470   1.293725
     63   1.001435   0.999283
     64   0.975410   1.012527
     65   0.535820   1.366125
     66   1.804603   0.744405
     67   0.592659   1.298965
     68   0.550428   1.347875
     69   1.083142   0.960854
     70   1.491226   0.818895
     71   1.001619   0.999192
     72   0.783881   1.129471
     73   1.015560   0.992310
     74   1.012528   0.993794
     75   0.461922   1.471349
     76   1.053167   0.974432
     77   1.085842   0.959658
     78   0.856071   1.080800
     79   1.110397   0.948988
     80   0.892352   1.058600
     81   0.892352   1.058600
     82   0.968712   1.016021
     83   0.951504   1.025167
     84   0.515094   1.393339
     85   0.476595   1.448522
     86   0.481681   1.440854
     87   0.940707   1.031034
     88   0.686497   1.206926
     89   0.758008   1.148585
     90   1.737282   0.758691
     91   1.140409   0.936418
     92   0.654776   1.235815
     93   0.488614   1.430597
     94   0.488614   1.430597
     95   0.637467   1.252481
     96   0.782259   1.130641
     97   1.109536   0.949357
     98   0.772539   1.137732
     99   0.700278   1.194992
    100   0.896422   1.056194
    101   0.896422   1.056194
    102   0.512745   1.396527
    103   0.504560   1.407808
    104   0.690709   1.203240
    105   0.536535   1.365215
    106   0.583690   1.308907
    107   0.995897   1.002058
    108   0.964862   1.018046
    109   0.612826   1.277413
    110   0.439916   1.507700
    111   0.439916   1.507700
    112   0.774690   1.136151
    113   1.093035   0.956496
    114   1.093035   0.956496
    115   0.806342   1.113628
    116   1.148329   0.933183
    117   0.420115   1.542822
    118   1.655007   0.777320
    119   3.071547   0.570586
    120   1.015855   0.992166
    121   1.031251   0.984731
    122   0.483790   1.437710
    123   0.810031   1.111090
    124   0.441745   1.504576
    125   2.440902   0.640066
    126   0.729717   1.170639
    127   0.497665   1.417527
    128   0.843631   1.088739
    129   0.921304   1.041834
    130   0.689382   1.204398
    131   0.412291   1.557393
    132   0.921304   1.041834
    133   1.193851   0.915219
    134   1.193851   0.915219
    135   1.094789   0.955729
    136   0.882140   1.064710
    137   0.531070   1.372222
    138   1.319023   0.870711
    139   0.915295   1.045248
    140   1.001619   0.999192
    141   1.250644   0.894197
    142   0.497665   1.417527

Bonds # ['ID', 'type', 'atom1', 'atom2']

         1         1        16        49
         2         2        51        31
         3         3        44        60
         4         4        21         1
         5         5         1        21
         6         6        56        11
         7         7        27         9
         8         8        16        14
         9         9        56        31
        10        10        60        57
        11        11        32        15
        12        12        62         1
        13        13         1        13
        14        14        50        78
        15        15        31        65
        16        16         1        62
        17        17        65        54
        18        18         2        18
        19        19         8        42
        20        20        51        53
        21        21        42         8
        22        22        52        47
        23        23         1        35
        24        24        63        36
        25        25        15        29
        26        26        22         6
        27        27        50        52
        28        28         6        42
        29        29        42         6
        30        30         6        30
        31        31        33        11
        32        32        46        41
        33        33        46        30
        34        34        19        38
        35        35        19        63
        36        36        12        57
        37        37        11        67
        38        38        54        22
        39        39        28        10
        40        40        11        22
        41        41        21        39
        42        42        58        79
        43        43        33        36
        44        44         8        14
        45        45        17        13
        46        46         8        23
        47        47        23         8
        48        48        38        67
        49        49        49        20
        50        50        40        46
        51        51        67        38
        52        52        26        24
        53        53        52        34
        54        54        28        42
        55        55        34        52
        56        56        42        28
        57        57        45        43
        58        58        24        20
        59        59        76        36
        60        60        32        40
        61        61        78        32
        62        62        19        37
        63        63        79        34
        64        64        22        42
        65        65         8        27
        66        66        56        65
        67        67        59        17
        68        68        26        20
        69        69        43        60
        70        70        53        54
        71        71        51        47
        72        72        11        65
        73        73        67        23
        74        74        25        76
        75        75        18        10
        76        76        46        44
        77        77        44        41
        78        78        40        47
        79        79        37        49
        80        80        50        35
        81        81        35        50
        82        82        31        54
        83        83         5        79
        84        84        14         9
        85        85        13        35
        86        86         5        31
        87        87        16        59
        88        88        13        58
        89        89        58        34
        90        90        62        50
        91        91        49        59
        92        92        26        37
        93        93         8        22
        94        94        22         8
        95        95        18        21
        96        96        47        30
        97        97        25        75
        98        98        39        24
        99        99        39        32
       100       100        53        30
       101       101        30        53
       102       102        16         9
       103       103        24        15
       104       104        41         7
       105       105        12        33
       106       106        27         1
       107       107        29        43
       108       108        60        25
       109       109        28         2
       110       110        10         1
       111       111         1        10
       112       112        35        34
       113       113        68        23
       114       114        23        68
       115       115        32        45
       116       116        45        44
       117       117         6         7
       118       118        38        68
       119       119        75        63
       120       120        21        62
       121       121        76        33
       122       122         9        17
       123       123        29        57
       124       124        12         5
       125       125        78        52
       126       126        15        43
       127       127         2         7
       128       128        68        14
       129       129        53         6
       130       130        11        23
       131       131        20        15
       132       132         6        53
       133       133        62        35
       134       134        35        62
       135       135        40        45
       136       136        51        34
       137       137         9        13
       138       138        75        36
       139       139        63        19
       140       140        47        51
       141       141        78        40
       142       142         7         2
