LAMMPS data file via write_data, version 23 Jun 2022, timestep = 10000

80 atoms
4 atom types

-4.810149755825958 4.810149755825958 xlo xhi
-4.810149755825958 4.810149755825958 ylo yhi
-0.1 0.1 zlo zhi

Atoms # sphere

26 2 1.3 0.4551661356395083 -4.61892692062654 -4.251257336626544 0 1 1 0
13 1 1.6 0.2441406249999999 -3.1697403023697177 -4.753783038431554 0 0 1 0
75 4 0.7 2.915451895043732 -2.1552798986825135 4.608493358838065 0 0 -1 0
30 2 1.3 0.4551661356395083 -1.9844210849551072 -4.0764425060085605 0 0 1 0
35 2 1.3 0.4551661356395083 -0.9225887146225595 -4.216362715828891 0 0 0 0
40 2 1.3 0.4551661356395083 -0.14764704170937915 4.578137246948464 0 0 -1 0
66 4 0.7 2.915451895043732 0.9652525253205111 -4.012842265498173 0 0 0 0
59 3 1 1 1.7082289445419674 -3.8471428751946277 0 0 1 0
49 3 1 1 2.564879294382618 -3.673482804817593 0 0 0 0
42 3 1 1 2.1978678625819805 -4.551129618430824 0 -1 0 0
51 3 1 1 3.5344326759405584 -3.3885204933524307 0 -1 1 0
63 4 0.7 2.915451895043732 3.079312572880765 -4.144799828064957 0 0 0 0
43 3 1 1 4.0390323028699155 -4.102723057757671 0 -1 0 0
31 2 1.3 0.4551661356395083 -3.740697327193696 -3.5231027635638363 0 1 1 0
71 4 0.7 2.915451895043732 -2.904717496768441 -3.616718237970824 0 0 1 0
58 3 1 1 0.15414520580306768 -3.9103948894583302 0 0 0 0
38 2 1.3 0.4551661356395083 0.8092269534277712 -3.0905438389452753 0 0 0 0
37 2 1.3 0.4551661356395083 1.9558098699904267 -2.895328535954106 0 0 0 0
65 4 0.7 2.915451895043732 2.824054642698231 -3.0254995924528076 0 -1 0 0
7 1 1.6 0.2441406249999999 4.57579449917649 -2.7656262804804816 0 0 0 0
61 4 0.7 2.915451895043732 -4.457704652914126 -1.8790700856065978 0 0 1 0
11 1 1.6 0.2441406249999999 -3.4789850862575644 -2.2696588516636984 0 0 0 0
47 3 1 1 -2.5190127842140093 -1.6707319577986786 0 1 0 0
6 1 1.6 0.2441406249999999 -2.005884484687654 -2.7933129018590113 0 0 0 0
19 1 1.6 0.2441406249999999 -0.4617460741373094 -2.777222547673058 0 0 0 0
72 4 0.7 2.915451895043732 0.49557850484005606 -2.1727222531621906 0 0 0 0
3 1 1.6 0.2441406249999999 1.5088419265911206 -1.7710525503771768 0 0 1 0
69 4 0.7 2.915451895043732 2.47309975649941 -2.2669640401267124 0 -1 1 0
39 2 1.3 0.4551661356395083 3.3922976625772323 -2.283095534705462 0 0 0 0
2 1 1.6 0.2441406249999999 -3.7743893012401983 -0.8867962532039604 0 1 0 0
10 1 1.6 0.2441406249999999 -2.3897583080705376 -0.47233601940007386 0 1 0 0
8 1 1.6 0.2441406249999999 -1.3254779526322817 -1.4547732690525321 0 0 0 0
21 2 1.3 0.4551661356395083 0.09275110372853668 -1.3967963742982064 0 0 0 0
18 1 1.6 0.2441406249999999 0.8433436594064574 -0.48837567812445215 0 0 0 0
48 3 1 1 2.7131362205290195 -1.4264293857948824 0 0 0 0
68 4 0.7 2.915451895043732 3.359984672541363 -0.860899050642058 0 0 1 0
80 4 0.7 2.915451895043732 2.77113772345954 -0.5911526594952123 0 -1 0 0
23 2 1.3 0.4551661356395083 4.230206651044685 -1.3493934789569066 0 -1 0 0
27 2 1.3 0.4551661356395083 -3.4674602881167877 0.42917512341313735 0 0 0 0
76 4 0.7 2.915451895043732 -1.5285171378544864 0.38135187799139025 0 0 0 0
46 3 1 1 -1.1290886187168812 -0.24245155613780867 0 0 0 0
79 4 0.7 2.915451895043732 -0.4344948828365114 -0.6266336072730896 0 0 0 0
56 3 1 1 -0.31681683633630975 0.09334887722646368 0 0 0 0
73 4 0.7 2.915451895043732 1.9968091580361067 -0.8081626769574974 0 -1 0 0
15 1 1.6 0.2441406249999999 2.198608971754428 0.3243958587651612 0 0 0 0
54 3 1 1 3.339096184437097 -0.12417344095412819 0 -1 0 0
5 1 1.6 0.2441406249999999 4.5321240014880795 -0.22617764380711147 0 0 0 0
33 2 1.3 0.4551661356395083 -4.52669294608453 0.9573779517162633 0 1 0 0
16 1 1.6 0.2441406249999999 -2.318403832112823 1.0234250330670127 0 0 0 0
34 2 1.3 0.4551661356395083 -0.9228492750433475 0.8972364054698474 0 0 0 0
41 3 1 1 0.5474215656680359 0.9007742331193933 0 0 0 0
67 4 0.7 2.915451895043732 1.1983252024802624 0.5571091990952901 0 0 0 0
78 4 0.7 2.915451895043732 1.123327558519878 1.3966841171334305 0 0 0 0
57 3 1 1 1.6405324339225515 1.792032379344315 0 0 0 0
29 2 1.3 0.4551661356395083 3.137927579219518 1.3643496353975948 0 -1 0 0
52 3 1 1 4.044795900249615 0.844280666650854 0 0 0 0
17 1 1.6 0.2441406249999999 -3.6005502521361032 1.8327275650828563 0 1 0 0
14 1 1.6 0.2441406249999999 -1.8862303634946715 2.4450708627346778 0 0 0 0
9 1 1.6 0.2441406249999999 -0.4832770685848624 2.11231192096243 0 0 0 0
60 3 1 1 0.5496970645149322 1.8136972897761119 0 0 0 0
77 4 0.7 2.915451895043732 0.9630186063645612 2.4221076879229857 0 0 0 0
70 4 0.7 2.915451895043732 2.529201363807844 1.842164186290118 0 0 0 0
12 1 1.6 0.2441406249999999 4.515727837707959 2.1684201081297596 0 -1 0 0
28 2 1.3 0.4551661356395083 -4.063564180188753 3.088005247699127 0 0 0 0
62 4 0.7 2.915451895043732 -2.983332289564898 2.679056226099637 0 0 0 0
25 2 1.3 0.4551661356395083 -2.6344042101538654 3.553127352500579 0 0 -1 0
4 1 1.6 0.2441406249999999 0.7615141855273215 3.4777629030734323 0 0 0 0
20 1 1.6 0.2441406249999999 1.9546489579059196 2.7174351834077566 0 0 0 0
32 2 1.3 0.4551661356395083 3.3861044257207107 2.648742139462155 0 0 0 0
45 3 1 1 4.4277796218847785 3.2260869430248116 0 0 0 0
22 2 1.3 0.4551661356395083 -4.332844751169845 4.282868117166685 0 0 0 0
74 4 0.7 2.915451895043732 -3.547653630501263 3.6666556412140787 0 0 0 0
1 1 1.6 0.2441406249999999 -1.3382218875716214 3.985835513282969 0 0 -1 0
53 3 1 1 -0.39892623211049383 3.3588917968527783 0 0 0 0
24 2 1.3 0.4551661356395083 1.0613185965890262 -4.771627974553602 0 0 0 0
44 3 1 1 1.9546475368180705 4.077499670031902 0 0 0 0
64 4 0.7 2.915451895043732 2.419417470045884 3.63465033722622 0 0 0 0
50 3 1 1 3.264653898179744 3.6428983865135693 0 0 0 0
55 3 1 1 3.0193973420882942 4.531978250724751 0 0 -1 0
36 2 1.3 0.4551661356395083 4.061851384626315 4.295540612591998 0 0 0 0

Velocities

26 0.051046589275015083 0.2429196185276293 0 0 0 0
13 -0.16347011438178113 0.16508261546091113 0 0 0 0
75 -0.05242702853314213 -0.10423554825741811 0 0 0 0
30 0.04338429283216384 -0.21220123832946772 0 0 0 0
35 -0.010154353001971747 0.24754779301570118 0 0 0 0
40 -0.07666056380384088 -0.05390514088527974 0 0 0 0
66 0.005853012782583784 0.08631603344481587 0 0 0 0
59 0.04441523991975498 -0.09538945652325753 0 0 0 0
49 -0.04542100298477841 0.10768988665526835 0 0 0 0
42 0.0009006672245207226 0.12237810145849808 0 0 0 0
51 0.050544258017312965 0.10627121130294642 0 0 0 0
63 -0.08961746882478777 -0.03593437945694276 0 0 0 0
43 -0.21857639133036577 0.0025452908081058496 0 0 0 0
31 0.3059640489121016 -0.03281082589325222 0 0 0 0
71 0.20011643240017354 -0.0873414610300458 0 0 0 0
58 -0.012000860836472364 0.03459621852101242 0 0 0 0
38 -0.02924533125176027 -0.2518457419647771 0 0 0 0
37 -0.06956901138790672 0.010920835544781153 0 0 0 0
65 -0.14641091412212878 0.04839213033422072 0 0 0 0
7 -0.11000225245566916 -0.09603861624340668 0 0 0 0
61 -0.2396243098293017 0.048726349777535025 0 0 0 0
11 0.10799644417178692 0.056971555119539795 0 0 0 0
47 0.16546269999717556 -0.12416566052812732 0 0 0 0
6 -0.014109832178774179 -0.0027663002294405245 0 0 0 0
19 -0.019640256444350288 -0.14288953899573467 0 0 0 0
72 0.0754792219010139 -0.10966715960563703 0 0 0 0
3 -0.22840964624187357 0.09357476162675431 0 0 0 0
69 -0.20005716128679507 -0.060037811543368444 0 0 0 0
39 0.02746930961834344 -0.013255617045574593 0 0 0 0
2 0.1110885789603296 0.027618661408794997 0 0 0 0
10 -0.04699198395867808 0.023542512020368292 0 0 0 0
8 -0.08901265940904939 -0.14661849430688767 0 0 0 0
21 0.05151325200628594 -0.01304867830398235 0 0 0 0
18 -0.21991164794258522 0.061556016114133534 0 0 0 0
48 -0.15669927990032836 0.11366118770148338 0 0 0 0
68 0.14983842608772927 0.027026736958512834 0 0 0 0
80 -0.017528448312412327 -0.02702024965987664 0 0 0 0
23 -0.006293760326939599 0.005437474548989657 0 0 0 0
27 -0.06943573522365082 0.10333485151910662 0 0 0 0
76 0.009785908449596889 0.0029741549297009388 0 0 0 0
46 0.06996405571130335 -0.0959701454611592 0 0 0 0
79 -0.14662030138750914 0.11320649133468517 0 0 0 0
56 -0.04442945762895005 0.08109169058277807 0 0 0 0
73 -0.0984433605851671 0.10672954447776085 0 0 0 0
15 0.08607487645472142 0.04059835694454152 0 0 0 0
54 0.11806385122673704 0.07047644733645084 0 0 0 0
5 0.14077499150916079 -0.006550926221561019 0 0 0 0
33 -0.009851054805969301 0.1263129599268008 0 0 0 0
16 0.06805168018585377 0.012673840392703686 0 0 0 0
34 0.16216346322257838 0.05722174066551201 0 0 0 0
41 0.1513117955522184 0.032609907412353166 0 0 0 0
67 -0.09803680170188885 -0.14836755585856576 0 0 0 0
78 -0.1486351317231769 -0.047743268719115724 0 0 0 0
57 0.21178827231310013 0.06264419381297212 0 0 0 0
29 0.20552989539945057 -0.05837605523348483 0 0 0 0
52 -0.06494441111495942 0.004020882811307002 0 0 0 0
17 0.1064939974315254 -0.10390168628382361 0 0 0 0
14 0.11473792568148879 0.038514782566801596 0 0 0 0
9 0.042625373005278556 -0.05954918331790485 0 0 0 0
60 0.10934122819586024 0.09788164035509346 0 0 0 0
77 -0.019398439248851533 -0.03534469013315561 0 0 0 0
70 0.032977247661523074 -0.05385527040165414 0 0 0 0
12 0.0384333306335944 0.0754537419730495 0 0 0 0
28 -0.011422341536062506 0.030665176968942293 0 0 0 0
62 0.1048401926242788 0.016553666712045587 0 0 0 0
25 -0.14539853557452675 -0.06300456302490477 0 0 0 0
4 -0.0694513243906634 0.1891699637808735 0 0 0 0
20 -0.08084777617973697 0.007397217700214012 0 0 0 0
32 -0.09300712817731331 0.0028055707016895115 0 0 0 0
45 -0.011837218149815651 -0.07883457028790654 0 0 0 0
22 -0.004863159122261733 0.09944691084409112 0 0 0 0
74 0.0650512967777673 0.06144717109695356 0 0 0 0
1 -0.05572978010762301 0.029144875006350886 0 0 0 0
53 -0.049214048538958284 -0.15390367173981323 0 0 0 0
24 0.06145319314355749 -0.009111356709237144 0 0 0 0
44 0.009141398333274594 -0.015218609861484383 0 0 0 0
64 0.04727573160545565 -0.010900824593627399 0 0 0 0
50 0.01320685338313822 -0.1447040536615371 0 0 0 0
55 0.0071697411588691196 -0.3144855983318825 0 0 0 0
36 0.11607151017616311 -0.08615682155948202 0 0 0 0
