LAMMPS data file.

     49 atoms
     99 bonds
      0 angles
      0 dihedrals
      0 impropers
      1 atom types
     99 bond types
      0 angle types
      0 dihedral types
      0 improper types
  -4.810150   4.810150 xlo xhi
  -4.810150   4.810150 ylo yhi
  -0.100000   0.100000 zlo zhi

Masses # ['atom_id', 'mass']

1 10000.0

Atoms # ['atomID', 'moleculeID', 'atomType', 'charge', 'x', 'y', 'z']

     13      1      1   0.000000  -3.169740  -4.753783   0.000000
     75      1      1   0.000000  -2.155280   4.608493   0.000000
     30      1      1   0.000000  -1.984421  -4.076443   0.000000
     35      1      1   0.000000  -0.922589  -4.216363   0.000000
     40      1      1   0.000000  -0.147647   4.578137   0.000000
     66      1      1   0.000000   0.965253  -4.012842   0.000000
     59      1      1   0.000000   1.708229  -3.847143   0.000000
     49      1      1   0.000000   2.564879  -3.673483   0.000000
     58      1      1   0.000000   0.154145  -3.910395   0.000000
     38      1      1   0.000000   0.809227  -3.090544   0.000000
     37      1      1   0.000000   1.955810  -2.895329   0.000000
     65      1      1   0.000000   2.824055  -3.025500   0.000000
     11      1      1   0.000000  -3.478985  -2.269659   0.000000
     47      1      1   0.000000  -2.519013  -1.670732   0.000000
      6      1      1   0.000000  -2.005884  -2.793313   0.000000
     19      1      1   0.000000  -0.461746  -2.777223   0.000000
     72      1      1   0.000000   0.495579  -2.172722   0.000000
      3      1      1   0.000000   1.508842  -1.771053   0.000000
     69      1      1   0.000000   2.473100  -2.266964   0.000000
     39      1      1   0.000000   3.392298  -2.283096   0.000000
      2      1      1   0.000000  -3.774389  -0.886796   0.000000
     10      1      1   0.000000  -2.389758  -0.472336   0.000000
      8      1      1   0.000000  -1.325478  -1.454773   0.000000
     21      1      1   0.000000   0.092751  -1.396796   0.000000
     18      1      1   0.000000   0.843344  -0.488376   0.000000
     48      1      1   0.000000   2.713136  -1.426429   0.000000
     68      1      1   0.000000   3.359985  -0.860899   0.000000
     80      1      1   0.000000   2.771138  -0.591153   0.000000
     23      1      1   0.000000   4.230207  -1.349393   0.000000
     27      1      1   0.000000  -3.467460   0.429175   0.000000
     76      1      1   0.000000  -1.528517   0.381352   0.000000
     46      1      1   0.000000  -1.129089  -0.242452   0.000000
     79      1      1   0.000000  -0.434495  -0.626634   0.000000
     56      1      1   0.000000  -0.316817   0.093349   0.000000
     15      1      1   0.000000   2.198609   0.324396   0.000000
     54      1      1   0.000000   3.339096  -0.124173   0.000000
      5      1      1   0.000000   4.532124  -0.226178   0.000000
     33      1      1   0.000000  -4.526693   0.957378   0.000000
     16      1      1   0.000000  -2.318404   1.023425   0.000000
     34      1      1   0.000000  -0.922849   0.897236   0.000000
     17      1      1   0.000000  -3.600550   1.832728   0.000000
     14      1      1   0.000000  -1.886230   2.445071   0.000000
     28      1      1   0.000000  -4.063564   3.088005   0.000000
     62      1      1   0.000000  -2.983332   2.679056   0.000000
     25      1      1   0.000000  -2.634404   3.553127   0.000000
     22      1      1   0.000000  -4.332845   4.282868   0.000000
     74      1      1   0.000000  -3.547654   3.666656   0.000000
      1      1      1   0.000000  -1.338222   3.985836   0.000000
     24      1      1   0.000000   1.061319  -4.771628   0.000000

Bond Coeffs # ['bondID', 'bondCoeff', 'd']

      1   0.656388   1.234297
      2   0.478893   1.445043
      3   1.840939   0.737022
      4   0.419354   1.544222
      5   0.565518   1.329771
      6   0.559424   1.336994
      7   0.666574   1.224830
      8   0.947610   1.027271
      9   0.857620   1.079823
     10   0.607208   1.283309
     11   0.798102   1.119362
     12   0.443530   1.501546
     13   0.850542   1.084307
     14   0.509296   1.401248
     15   0.739229   1.163083
     16   0.683164   1.209866
     17   1.709447   0.764843
     18   0.871790   1.071012
     19   0.720141   1.178396
     20   0.912654   1.046760
     21   0.912654   1.046760
     22   0.400426   1.580298
     23   0.434996   1.516203
     24   0.841722   1.089973
     25   0.635368   1.254548
     26   1.496131   0.817552
     27   1.509592   0.813898
     28   1.579853   0.795594
     29   0.445952   1.497462
     30   1.180759   0.920279
     31   0.535525   1.366501
     32   0.608963   1.281458
     33   0.500107   1.414062
     34   0.536546   1.365200
     35   0.780098   1.132206
     36   1.308887   0.874075
     37   0.713790   1.183627
     38   1.878912   0.729536
     39   1.426429   0.837288
     40   0.679734   1.212915
     41   1.849638   0.735287
     42   1.147922   0.933348
     43   0.409125   1.563406
     44   1.308334   0.874260
     45   1.003771   0.998120
     46   0.965084   1.017929
     47   0.503101   1.409848
     48   1.297364   0.877948
     49   0.478702   1.445331
     50   0.779740   1.132466
     51   0.779740   1.132466
     52   0.911386   1.047488
     53   0.688298   1.205346
     54   0.785444   1.128346
     55   0.665812   1.225531
     56   1.183173   0.919339
     57   0.593692   1.297835
     58   1.142885   0.935403
     59   1.144081   0.934914
     60   0.651556   1.238865
     61   0.651556   1.238865
     62   1.294419   0.878947
     63   2.053160   0.697893
     64   1.725714   0.761229
     65   0.986670   1.006733
     66   0.452929   1.485884
     67   0.637312   1.252633
     68   1.024076   0.988175
     69   0.663001   1.228126
     70   0.400817   1.579527
     71   0.908028   1.049423
     72   0.547649   1.351291
     73   0.739225   1.163086
     74   0.582728   1.309987
     75   0.582728   1.309987
     76   1.587160   0.793761
     77   0.558627   1.337948
     78   1.062957   0.969934
     79   2.383768   0.647691
     80   0.615772   1.274354
     81   1.822576   0.740725
     82   0.590508   1.301329
     83   0.590508   1.301329
     84   1.128985   0.941144
     85   1.663894   0.775242
     86   0.836724   1.093223
     87   0.496343   1.419414
     88   1.004104   0.997954
     89   0.697486   1.197381
     90   0.583586   1.309024
     91   0.601178   1.289729
     92   0.794671   1.121776
     93   0.781091   1.131486
     94   0.597563   1.293624
     95   1.033862   0.983487
     96   1.106075   0.950841
     97   1.106075   0.950841
     98   0.506544   1.405049
     99   0.476673   1.448405

Bonds # ['ID', 'type', 'atom1', 'atom2']

         1         1        47         6
         2         2         3        18
         3         3        68        54
         4         4         6        19
         5         5        40         1
         6         6        14        25
         7         7        28        22
         8         8        75         1
         9         9        80        15
        10        10        30         6
        11        11        35        58
        12        12         6         8
        13        13         3        69
        14        14        16        34
        15        15        38        37
        16        16        37         3
        17        17        66        24
        18        18        30        35
        19        19        21        18
        20        20        13        75
        21        21        75        13
        22        22        18        15
        23        23        16        17
        24        24        72         3
        25        25        39        23
        26        26        66        58
        27        27        37        69
        28        28        76        34
        29        29        10        16
        30        30        25        74
        31        31        25         1
        32        32        10        46
        33        33        11         2
        34        34        13        30
        35        35        19        72
        36        36        59        49
        37        37        27        33
        38        38        79        56
        39        39        48        80
        40        40        47         8
        41        41        80        54
        42        42        21        79
        43        43        11         6
        44        44        72        21
        45        45        22        74
        46        46        76        16
        47        47        27        17
        48        48        37        65
        49        49         2        10
        50        50        35        40
        51        51        40        35
        52        52        17        62
        53        53        47        10
        54        54        59        24
        55        55        15        54
        56        56        69        39
        57        57        18        56
        58        58        66        38
        59        59        65        39
        60        60        40        24
        61        61        24        40
        62        62        46        56
        63        63        49        65
        64        64        66        59
        65        65        56        34
        66        66        16        14
        67        67         3        48
        68        68        49        37
        69        69         8        46
        70        70        19         8
        71        71        58        38
        72        72         2        27
        73        73        23         5
        74        74        33         5
        75        75         5        33
        76        76        46        79
        77        77        17        28
        78        78        38        72
        79        79        68        80
        80        80        33        17
        81        81        76        46
        82        82        13        22
        83        83        22        13
        84        84        62        25
        85        85        28        74
        86        86        39        48
        87        87         8        21
        88        88        68        23
        89        89        54         5
        90        90        38        19
        91        91        58        19
        92        92        14        62
        93        93        11        47
        94        94        27        16
        95        95        59        37
        96        96        30        75
        97        97        75        30
        98        98        10        27
        99        99        10         8
