ITEM: TIMESTEP
0
ITEM: NUMBER OF ATOMS
80
ITEM: BOX BOUNDS pp pp pp
-1.0000000000000000e+01 1.0000000000000000e+01
-1.0000000000000000e+01 1.0000000000000000e+01
-1.0000000000000001e-01 1.0000000000000001e-01
ITEM: ATOMS id type xs ys zs
43 3 0.0454598 0.0421613 0.5
25 2 0.15238 0.0467223 0.5
58 3 0.675375 0.0333375 0.5
65 4 0.363365 0.0831983 0.5
47 3 0.615403 0.073824 0.5
1 1 0.789617 0.0966921 0.5
11 1 0.0854494 0.147712 0.5
63 4 0.788549 0.142758 0.5
72 4 0.379673 0.161304 0.5
66 4 0.70573 0.210487 0.5
49 3 0.408117 0.229873 0.5
24 2 0.70252 0.255576 0.5
55 3 0.976333 0.223648 0.5
48 3 0.364211 0.287769 0.5
37 2 0.5721 0.280666 0.5
77 4 0.671165 0.274123 0.5
42 3 0.162988 0.339233 0.5
38 2 0.287519 0.331186 0.5
21 2 0.549019 0.366541 0.5
52 3 0.588226 0.320332 0.5
7 1 0.969141 0.351573 0.5
35 2 0.357374 0.391268 0.5
75 4 0.69051 0.40787 0.5
18 1 0.916962 0.386134 0.5
23 2 0.0563141 0.470884 0.5
76 4 0.101533 0.457671 0.5
16 1 0.190781 0.454024 0.5
19 1 0.201905 0.423246 0.5
79 4 0.397598 0.423262 0.5
67 4 0.687539 0.469701 0.5
46 3 0.101477 0.526302 0.5
8 1 0.174779 0.504068 0.5
30 2 0.160915 0.499156 0.5
27 2 0.462455 0.485169 0.5
2 1 0.974506 0.517334 0.5
40 2 0.605851 0.532662 0.5
57 3 0.605793 0.559429 0.5
10 1 0.689982 0.532305 0.5
56 3 0.936666 0.540722 0.5
17 1 0.976471 0.541028 0.5
6 1 0.0451968 0.623417 0.5
41 3 0.387552 0.581358 0.5
70 4 0.407307 0.611959 0.5
33 2 0.653277 0.620971 0.5
71 4 0.226194 0.643332 0.5
62 4 0.309614 0.682147 0.5
15 1 0.486799 0.635975 0.5
20 1 0.661847 0.665133 0.5
39 2 0.848972 0.673314 0.5
9 1 0.388631 0.721333 0.5
50 3 0.509235 0.70748 0.5
14 1 0.586107 0.693815 0.5
4 1 0.718908 0.689255 0.5
5 1 0.946971 0.733609 0.5
31 2 0.991833 0.731337 0.5
34 2 0.155337 0.755484 0.5
78 4 0.38322 0.785277 0.5
22 2 0.647632 0.745348 0.5
32 2 0.84148 0.756361 0.5
45 3 0.874502 0.753249 0.5
61 4 0.0119494 0.833002 0.5
28 2 0.132434 0.825514 0.5
29 2 0.248813 0.807482 0.5
44 3 0.467236 0.840106 0.5
59 3 0.574272 0.793864 0.5
74 4 0.731769 0.837859 0.5
36 2 0.910622 0.824646 0.5
54 3 0.149334 0.863073 0.5
13 1 0.180514 0.894399 0.5
53 3 0.296833 0.863955 0.5
3 1 0.524537 0.891177 0.5
60 3 0.646925 0.867212 0.5
26 2 0.95614 0.845463 0.5
12 1 0.0352772 0.903704 0.5
73 4 0.124885 0.942623 0.5
80 4 0.135176 0.907529 0.5
64 4 0.941625 0.896547 0.5
69 4 0.0913288 0.962856 0.5
51 3 0.23972 0.981695 0.5
68 4 0.397094 0.9592 0.5
ITEM: TIMESTEP
10
ITEM: NUMBER OF ATOMS
80
ITEM: BOX BOUNDS pp pp pp
-9.2445078314882210e+00 9.2445078314882210e+00
-9.2445078314882210e+00 9.2445078314882210e+00
-1.0000000000000001e-01 1.0000000000000001e-01
ITEM: ATOMS id type xs ys zs
43 3 0.0454598 0.0421613 0.5
25 2 0.15238 0.0467223 0.5
58 3 0.675375 0.0333375 0.5
65 4 0.363365 0.0831983 0.5
47 3 0.615403 0.073824 0.5
1 1 0.789618 0.0966477 0.5
11 1 0.0854494 0.147712 0.5
63 4 0.788548 0.142803 0.5
72 4 0.379673 0.161304 0.5
66 4 0.705732 0.210467 0.5
49 3 0.408117 0.229873 0.5
24 2 0.702563 0.255569 0.5
55 3 0.976333 0.223648 0.5
48 3 0.364211 0.287769 0.5
37 2 0.572079 0.280614 0.5
77 4 0.671121 0.27415 0.5
42 3 0.162988 0.339233 0.5
38 2 0.287519 0.331186 0.5
21 2 0.549019 0.366541 0.5
52 3 0.588248 0.320384 0.5
7 1 0.969197 0.351536 0.5
35 2 0.357374 0.391268 0.5
75 4 0.69051 0.40787 0.5
18 1 0.916906 0.386171 0.5
23 2 0.0563015 0.470888 0.5
76 4 0.101545 0.457668 0.5
16 1 0.190792 0.454031 0.5
19 1 0.201965 0.423081 0.5
79 4 0.397598 0.423262 0.5
67 4 0.687539 0.469701 0.5
46 3 0.101477 0.526302 0.5
8 1 0.174948 0.504239 0.5
30 2 0.160675 0.499143 0.5
27 2 0.462455 0.485169 0.5
2 1 0.974555 0.517086 0.5
40 2 0.605851 0.532547 0.5
57 3 0.605793 0.559544 0.5
10 1 0.689982 0.532305 0.5
56 3 0.936505 0.540762 0.5
17 1 0.976583 0.541236 0.5
6 1 0.0451968 0.623417 0.5
41 3 0.387539 0.581338 0.5
70 4 0.40732 0.61198 0.5
33 2 0.653257 0.620869 0.5
71 4 0.226194 0.643332 0.5
62 4 0.309614 0.682147 0.5
15 1 0.486799 0.635975 0.5
20 1 0.661805 0.665207 0.5
39 2 0.848972 0.673314 0.5
9 1 0.388631 0.721333 0.5
50 3 0.509235 0.70748 0.5
14 1 0.586105 0.693816 0.5
4 1 0.718972 0.689282 0.5
5 1 0.946867 0.733614 0.5
31 2 0.991936 0.731332 0.5
34 2 0.155337 0.755484 0.5
78 4 0.38322 0.785277 0.5
22 2 0.647632 0.745348 0.5
32 2 0.841389 0.75637 0.5
45 3 0.874593 0.753241 0.5
61 4 0.0119494 0.833002 0.5
28 2 0.132409 0.825457 0.5
29 2 0.248813 0.807482 0.5
44 3 0.467236 0.840106 0.5
59 3 0.574272 0.793864 0.5
74 4 0.731769 0.837859 0.5
36 2 0.91057 0.824622 0.5
54 3 0.149304 0.863074 0.5
13 1 0.180608 0.894444 0.5
53 3 0.296833 0.863955 0.5
3 1 0.524537 0.891177 0.5
60 3 0.646925 0.867212 0.5
26 2 0.956192 0.845487 0.5
12 1 0.0352772 0.903704 0.5
73 4 0.124885 0.942624 0.5
80 4 0.135138 0.90754 0.5
64 4 0.941625 0.896547 0.5
69 4 0.0913288 0.962856 0.5
51 3 0.23972 0.981695 0.5
68 4 0.397094 0.9592 0.5
ITEM: TIMESTEP
20
ITEM: NUMBER OF ATOMS
80
ITEM: BOX BOUNDS pp pp pp
-8.3111136259442162e+00 8.3111136259442162e+00
-8.3111136259442162e+00 8.3111136259442162e+00
-1.0000000000000001e-01 1.0000000000000001e-01
ITEM: ATOMS id type xs ys zs
43 3 0.0454598 0.0421613 0.5
25 2 0.15238 0.0467223 0.5
58 3 0.675375 0.0333375 0.5
65 4 0.363365 0.0831983 0.5
47 3 0.615403 0.073824 0.5
1 1 0.789622 0.0964689 0.5
11 1 0.0854494 0.147712 0.5
63 4 0.788544 0.142982 0.5
72 4 0.379673 0.161304 0.5
66 4 0.705738 0.210374 0.5
49 3 0.408117 0.229873 0.5
24 2 0.702729 0.25556 0.5
55 3 0.976333 0.223648 0.5
48 3 0.364211 0.287769 0.5
37 2 0.571996 0.280411 0.5
77 4 0.670948 0.274252 0.5
42 3 0.162988 0.339233 0.5
38 2 0.287519 0.331186 0.5
21 2 0.549009 0.366553 0.5
52 3 0.588341 0.320574 0.5
7 1 0.96942 0.351388 0.5
35 2 0.357357 0.391254 0.5
75 4 0.69051 0.40787 0.5
18 1 0.916683 0.386319 0.5
23 2 0.0562346 0.470907 0.5
76 4 0.101612 0.457648 0.5
16 1 0.190847 0.454026 0.5
19 1 0.202185 0.422471 0.5
79 4 0.397615 0.423276 0.5
67 4 0.687539 0.469694 0.5
46 3 0.101475 0.526303 0.5
8 1 0.175536 0.504879 0.5
30 2 0.159815 0.499117 0.5
27 2 0.462455 0.485169 0.5
2 1 0.974742 0.516194 0.5
40 2 0.605851 0.532133 0.5
57 3 0.605792 0.559958 0.5
10 1 0.689983 0.532312 0.5
56 3 0.935905 0.540912 0.5
17 1 0.976995 0.541977 0.5
6 1 0.0451968 0.623417 0.5
41 3 0.387482 0.581251 0.5
70 4 0.407376 0.612067 0.5
33 2 0.653184 0.62049 0.5
71 4 0.226194 0.643332 0.5
62 4 0.309614 0.682147 0.5
15 1 0.486799 0.635974 0.5
20 1 0.661667 0.665458 0.5
39 2 0.848972 0.673314 0.5
9 1 0.388631 0.721329 0.5
50 3 0.509235 0.70748 0.5
14 1 0.586057 0.693828 0.5
4 1 0.719226 0.689389 0.5
5 1 0.946482 0.733633 0.5
31 2 0.992322 0.731313 0.5
34 2 0.155338 0.755482 0.5
78 4 0.38322 0.78528 0.5
22 2 0.647635 0.745355 0.5
32 2 0.841055 0.756401 0.5
45 3 0.874926 0.753209 0.5
61 4 0.0119505 0.833001 0.5
28 2 0.13231 0.825241 0.5
29 2 0.248813 0.807482 0.5
44 3 0.467236 0.840106 0.5
59 3 0.574272 0.793864 0.5
74 4 0.731769 0.837859 0.5
36 2 0.910363 0.824527 0.5
54 3 0.149193 0.863077 0.5
13 1 0.180978 0.89461 0.5
53 3 0.296833 0.863955 0.5
3 1 0.524537 0.891177 0.5
60 3 0.646925 0.867212 0.5
26 2 0.956401 0.84557 0.5
12 1 0.0352772 0.903704 0.5
73 4 0.124883 0.942634 0.5
80 4 0.134981 0.907578 0.5
64 4 0.941622 0.896559 0.5
69 4 0.0913272 0.962857 0.5
51 3 0.23972 0.981695 0.5
68 4 0.397094 0.9592 0.5
ITEM: TIMESTEP
30
ITEM: NUMBER OF ATOMS
80
ITEM: BOX BOUNDS pp pp pp
-7.6108450196698785e+00 7.6108450196698785e+00
-7.6108450196698785e+00 7.6108450196698785e+00
-1.0000000000000001e-01 1.0000000000000001e-01
ITEM: ATOMS id type xs ys zs
43 3 0.0454598 0.0421613 0.5
25 2 0.15238 0.0467223 0.5
58 3 0.675375 0.0333375 0.5
65 4 0.363365 0.0831983 0.5
47 3 0.615403 0.073824 0.5
1 1 0.789631 0.0960829 0.5
11 1 0.0854494 0.147712 0.5
63 4 0.788535 0.143368 0.5
72 4 0.379673 0.161304 0.5
66 4 0.705754 0.21015 0.5
49 3 0.408117 0.229873 0.5
24 2 0.703073 0.255572 0.5
55 3 0.976333 0.223648 0.5
48 3 0.364211 0.287769 0.5
37 2 0.571824 0.279987 0.5
77 4 0.67059 0.274463 0.5
42 3 0.162988 0.339233 0.5
38 2 0.287519 0.331186 0.5
21 2 0.548954 0.366617 0.5
52 3 0.588568 0.320934 0.5
7 1 0.969896 0.351073 0.5
35 2 0.357285 0.391197 0.5
75 4 0.69051 0.40787 0.5
18 1 0.916207 0.386634 0.5
23 2 0.0560604 0.470956 0.5
76 4 0.101785 0.457598 0.5
16 1 0.190985 0.453952 0.5
19 1 0.202635 0.421216 0.5
79 4 0.397687 0.423333 0.5
67 4 0.687537 0.469637 0.5
46 3 0.101429 0.526325 0.5
8 1 0.176641 0.506211 0.5
30 2 0.158169 0.499094 0.5
27 2 0.462455 0.485169 0.5
2 1 0.975125 0.514459 0.5
40 2 0.605827 0.531322 0.5
57 3 0.60579 0.560769 0.5
10 1 0.690011 0.53237 0.5
56 3 0.934698 0.541217 0.5
17 1 0.977819 0.543408 0.5
6 1 0.0451968 0.623417 0.5
41 3 0.387356 0.581055 0.5
70 4 0.407503 0.612263 0.5
33 2 0.653038 0.619727 0.5
71 4 0.226194 0.643332 0.5
62 4 0.309614 0.682147 0.5
15 1 0.486791 0.635949 0.5
20 1 0.66144 0.665886 0.5
39 2 0.848972 0.673314 0.5
9 1 0.388635 0.721288 0.5
50 3 0.509233 0.707507 0.5
14 1 0.585861 0.693849 0.5
4 1 0.71977 0.689615 0.5
5 1 0.945737 0.733664 0.5
31 2 0.993098 0.731273 0.5
34 2 0.15535 0.755446 0.5
78 4 0.383217 0.785321 0.5
22 2 0.64767 0.745442 0.5
32 2 0.840387 0.756465 0.5
45 3 0.875563 0.753155 0.5
61 4 0.0119755 0.832996 0.5
28 2 0.132083 0.824806 0.5
29 2 0.248813 0.807482 0.5
44 3 0.467225 0.840096 0.5
59 3 0.574272 0.793864 0.5
74 4 0.731769 0.837859 0.5
36 2 0.909925 0.824327 0.5
54 3 0.148974 0.863063 0.5
13 1 0.181769 0.894961 0.5
53 3 0.296833 0.863956 0.5
3 1 0.524548 0.891187 0.5
60 3 0.646925 0.867212 0.5
26 2 0.956833 0.845712 0.5
12 1 0.0352772 0.903704 0.5
73 4 0.124888 0.942676 0.5
80 4 0.134639 0.907659 0.5
64 4 0.941603 0.896623 0.5
69 4 0.0913067 0.962869 0.5
51 3 0.23972 0.981695 0.5
68 4 0.397094 0.9592 0.5
ITEM: TIMESTEP
40
ITEM: NUMBER OF ATOMS
80
ITEM: BOX BOUNDS pp pp pp
-7.1164815130566073e+00 7.1164815130566073e+00
-7.1164815130566073e+00 7.1164815130566073e+00
-1.0000000000000001e-01 1.0000000000000001e-01
ITEM: ATOMS id type xs ys zs
43 3 0.0454598 0.0421613 0.5
25 2 0.15238 0.0467223 0.5
58 3 0.675375 0.0333375 0.5
65 4 0.363365 0.0831983 0.5
47 3 0.615403 0.073824 0.5
1 1 0.789647 0.0954239 0.5
11 1 0.0854494 0.147712 0.5
63 4 0.78852 0.144027 0.5
72 4 0.379673 0.161304 0.5
66 4 0.70578 0.209741 0.5
49 3 0.408117 0.229873 0.5
24 2 0.703645 0.255631 0.5
55 3 0.976333 0.223648 0.5
48 3 0.364211 0.287769 0.5
37 2 0.571535 0.279278 0.5
77 4 0.669991 0.274815 0.5
42 3 0.162988 0.339232 0.5
38 2 0.287519 0.331186 0.5
21 2 0.548817 0.366775 0.5
52 3 0.588993 0.321486 0.5
7 1 0.970702 0.350539 0.5
35 2 0.35712 0.391066 0.5
75 4 0.69051 0.40787 0.5
18 1 0.915401 0.387168 0.5
23 2 0.0557353 0.471016 0.5
76 4 0.102115 0.457501 0.5
16 1 0.191243 0.453759 0.5
19 1 0.203389 0.419114 0.5
79 4 0.397852 0.423464 0.5
67 4 0.68753 0.469477 0.5
46 3 0.101257 0.526426 0.5
8 1 0.178373 0.508429 0.5
30 2 0.155617 0.499094 0.5
27 2 0.462455 0.485169 0.5
2 1 0.975723 0.511734 0.5
40 2 0.60572 0.530031 0.5
57 3 0.605782 0.562052 0.5
10 1 0.690132 0.53252 0.5
56 3 0.93275 0.541707 0.5
17 1 0.979135 0.545645 0.5
6 1 0.0452058 0.623427 0.5
41 3 0.387134 0.580711 0.5
70 4 0.407725 0.612607 0.5
33 2 0.652803 0.618498 0.5
71 4 0.226194 0.643332 0.5
62 4 0.309614 0.682147 0.5
15 1 0.486759 0.635848 0.5
20 1 0.661137 0.666454 0.5
39 2 0.848974 0.673298 0.5
9 1 0.388646 0.721159 0.5
50 3 0.5092 0.70762 0.5
14 1 0.585436 0.693858 0.5
4 1 0.720717 0.68998 0.5
5 1 0.944604 0.73369 0.5
31 2 0.994358 0.73121 0.5
34 2 0.155392 0.755319 0.5
78 4 0.383206 0.785451 0.5
22 2 0.647752 0.745735 0.5
32 2 0.83931 0.756581 0.5
45 3 0.876513 0.753088 0.5
61 4 0.0120657 0.832963 0.5
28 2 0.13165 0.8241 0.5
29 2 0.248805 0.807472 0.5
44 3 0.467165 0.840043 0.5
59 3 0.574272 0.793864 0.5
74 4 0.731769 0.837859 0.5
36 2 0.909186 0.823993 0.5
54 3 0.14863 0.863007 0.5
13 1 0.183141 0.89557 0.5
53 3 0.296841 0.863965 0.5
3 1 0.524608 0.891241 0.5
60 3 0.646925 0.867212 0.5
26 2 0.957523 0.845906 0.5
12 1 0.0352831 0.903716 0.5
73 4 0.124908 0.942774 0.5
80 4 0.134049 0.907798 0.5
64 4 0.941555 0.896787 0.5
69 4 0.0912403 0.962909 0.5
51 3 0.23972 0.981695 0.5
68 4 0.397094 0.9592 0.5
ITEM: TIMESTEP
50
ITEM: NUMBER OF ATOMS
80
ITEM: BOX BOUNDS pp pp pp
-6.7777018142650620e+00 6.7777018142650620e+00
-6.7777018142650620e+00 6.7777018142650620e+00
-1.0000000000000001e-01 1.0000000000000001e-01
ITEM: ATOMS id type xs ys zs
43 3 0.0454598 0.0421613 0.5
25 2 0.15238 0.0467223 0.5
58 3 0.675376 0.0333374 0.5
65 4 0.363365 0.0831983 0.5
47 3 0.615402 0.0738242 0.5
1 1 0.789669 0.0944525 0.5
11 1 0.0854494 0.147712 0.5
63 4 0.788497 0.144998 0.5
72 4 0.379673 0.161304 0.5
66 4 0.705818 0.209106 0.5
49 3 0.408118 0.229873 0.5
24 2 0.704476 0.255758 0.5
55 3 0.976333 0.223648 0.5
48 3 0.364211 0.287769 0.5
37 2 0.571116 0.27824 0.5
77 4 0.669122 0.275321 0.5
42 3 0.16298 0.339218 0.5
38 2 0.287516 0.331183 0.5
21 2 0.548566 0.36707 0.5
52 3 0.589664 0.322229 0.5
7 1 0.971883 0.349756 0.5
35 2 0.356837 0.390841 0.5
75 4 0.69051 0.40787 0.5
18 1 0.91422 0.38795 0.5
23 2 0.055255 0.471039 0.5
76 4 0.102621 0.457336 0.5
16 1 0.191641 0.453414 0.5
19 1 0.204492 0.416065 0.5
79 4 0.398139 0.423692 0.5
67 4 0.687518 0.469171 0.5
46 3 0.100893 0.526673 0.5
8 1 0.180786 0.51164 0.5
30 2 0.152152 0.499133 0.5
27 2 0.462455 0.485169 0.5
2 1 0.976491 0.507992 0.5
40 2 0.605474 0.528228 0.5
57 3 0.605726 0.563807 0.5
10 1 0.690434 0.532763 0.5
56 3 0.930012 0.54239 0.5
17 1 0.980943 0.548689 0.5
6 1 0.0452638 0.623496 0.5
41 3 0.386799 0.580192 0.5
70 4 0.408058 0.613125 0.5
33 2 0.652474 0.616812 0.5
71 4 0.226194 0.643332 0.5
62 4 0.309614 0.682147 0.5
15 1 0.486689 0.635623 0.5
20 1 0.66078 0.667111 0.5
39 2 0.848982 0.673228 0.5
9 1 0.388668 0.720897 0.5
50 3 0.5091 0.707875 0.5
14 1 0.584722 0.69384 0.5
4 1 0.722177 0.690491 0.5
5 1 0.943111 0.733666 0.5
31 2 0.996146 0.731119 0.5
34 2 0.155484 0.755051 0.5
78 4 0.383184 0.785713 0.5
22 2 0.647877 0.746353 0.5
32 2 0.837782 0.756794 0.5
45 3 0.877741 0.753005 0.5
61 4 0.0122523 0.832861 0.5
28 2 0.130952 0.823101 0.5
29 2 0.248765 0.807425 0.5
44 3 0.467022 0.839915 0.5
59 3 0.574272 0.793864 0.5
74 4 0.731769 0.837859 0.5
36 2 0.908101 0.823555 0.5
54 3 0.148152 0.862896 0.5
13 1 0.185211 0.896473 0.5
53 3 0.296881 0.864012 0.5
3 1 0.524751 0.891369 0.5
60 3 0.646925 0.867212 0.5
26 2 0.958458 0.846124 0.5
12 1 0.0353297 0.903792 0.5
73 4 0.124937 0.942965 0.5
80 4 0.133171 0.908003 0.5
64 4 0.941464 0.897086 0.5
69 4 0.0911066 0.962993 0.5
51 3 0.23972 0.981695 0.5
68 4 0.397094 0.9592 0.5
ITEM: TIMESTEP
60
ITEM: NUMBER OF ATOMS
80
ITEM: BOX BOUNDS pp pp pp
-6.5376336436231384e+00 6.5376336436231384e+00
-6.5376336436231384e+00 6.5376336436231384e+00
-1.0000000000000001e-01 1.0000000000000001e-01
ITEM: ATOMS id type xs ys zs
43 3 0.0454598 0.0421613 0.5
25 2 0.15238 0.0467223 0.5
58 3 0.675384 0.0333314 0.5
65 4 0.363365 0.0831983 0.5
47 3 0.615394 0.0738301 0.5
1 1 0.789699 0.0931511 0.5
11 1 0.0854494 0.147712 0.5
63 4 0.788467 0.1463 0.5
72 4 0.379673 0.161304 0.5
66 4 0.705864 0.208223 0.5
49 3 0.408123 0.229866 0.5
24 2 0.705584 0.255975 0.5
55 3 0.976333 0.223648 0.5
48 3 0.364205 0.287776 0.5
37 2 0.570564 0.276838 0.5
77 4 0.667968 0.275988 0.5
42 3 0.162943 0.339149 0.5
38 2 0.287488 0.331159 0.5
21 2 0.548169 0.367544 0.5
52 3 0.590613 0.323157 0.5
7 1 0.973459 0.348712 0.5
35 2 0.356435 0.390523 0.5
75 4 0.69051 0.40787 0.5
18 1 0.912644 0.388994 0.5
23 2 0.0546372 0.470979 0.5
76 4 0.103291 0.457067 0.5
16 1 0.192185 0.452904 0.5
19 1 0.205971 0.412084 0.5
79 4 0.398568 0.424033 0.5
67 4 0.687498 0.468687 0.5
46 3 0.100286 0.527122 0.5
8 1 0.1839 0.515878 0.5
30 2 0.147851 0.499214 0.5
27 2 0.462455 0.485169 0.5
2 1 0.977356 0.503271 0.5
40 2 0.605048 0.525905 0.5
57 3 0.605564 0.566008 0.5
10 1 0.691006 0.533076 0.5
56 3 0.926499 0.543256 0.5
17 1 0.983194 0.552485 0.5
6 1 0.0454168 0.623674 0.5
41 3 0.386344 0.579488 0.5
70 4 0.408491 0.613823 0.5
33 2 0.652068 0.614702 0.5
71 4 0.226194 0.643332 0.5
62 4 0.309614 0.682147 0.5
15 1 0.486566 0.635233 0.5
20 1 0.66039 0.667812 0.5
39 2 0.849 0.673067 0.5
9 1 0.388704 0.720472 0.5
50 3 0.508901 0.708314 0.5
14 1 0.583695 0.693809 0.5
4 1 0.72422 0.691148 0.5
5 1 0.941321 0.733532 0.5
31 2 0.998477 0.731003 0.5
34 2 0.15564 0.754601 0.5
78 4 0.383148 0.786138 0.5
22 2 0.648038 0.747386 0.5
32 2 0.835788 0.757137 0.5
45 3 0.879185 0.752893 0.5
61 4 0.0125598 0.832649 0.5
28 2 0.129952 0.82181 0.5
29 2 0.248674 0.807316 0.5
44 3 0.466767 0.839688 0.5
59 3 0.574272 0.793864 0.5
74 4 0.731769 0.837859 0.5
36 2 0.906652 0.823082 0.5
54 3 0.14754 0.862724 0.5
13 1 0.18804 0.897679 0.5
53 3 0.296973 0.86412 0.5
3 1 0.525006 0.891596 0.5
60 3 0.646925 0.867212 0.5
26 2 0.959598 0.84633 0.5
12 1 0.0354475 0.903971 0.5
73 4 0.124969 0.943274 0.5
80 4 0.131987 0.908267 0.5
64 4 0.941321 0.897546 0.5
69 4 0.0909024 0.963146 0.5
51 3 0.23972 0.981695 0.5
68 4 0.397094 0.9592 0.5
ITEM: TIMESTEP
70
ITEM: NUMBER OF ATOMS
80
ITEM: BOX BOUNDS pp pp pp
-6.3761236749840391e+00 6.3761236749840391e+00
-6.3761236749840391e+00 6.3761236749840391e+00
-1.0000000000000001e-01 1.0000000000000001e-01
ITEM: ATOMS id type xs ys zs
43 3 0.0454598 0.0421613 0.5
25 2 0.15238 0.0467223 0.5
58 3 0.675417 0.0333092 0.5
65 4 0.363365 0.0831983 0.5
47 3 0.615361 0.0738523 0.5
1 1 0.789737 0.091522 0.5
11 1 0.0854494 0.147712 0.5
63 4 0.788429 0.147929 0.5
72 4 0.379673 0.161304 0.5
66 4 0.705915 0.207081 0.5
49 3 0.408144 0.229838 0.5
24 2 0.706972 0.256296 0.5
55 3 0.976333 0.223648 0.5
48 3 0.364186 0.287803 0.5
37 2 0.569882 0.275064 0.5
77 4 0.666529 0.276809 0.5
42 3 0.162851 0.338987 0.5
38 2 0.287413 0.331096 0.5
21 2 0.547608 0.368224 0.5
52 3 0.591856 0.32425 0.5
7 1 0.975426 0.34741 0.5
35 2 0.355927 0.390124 0.5
75 4 0.69051 0.40787 0.5
18 1 0.910677 0.390297 0.5
23 2 0.0539072 0.47079 0.5
76 4 0.104102 0.456657 0.5
16 1 0.192867 0.452244 0.5
19 1 0.207821 0.407263 0.5
79 4 0.399149 0.424496 0.5
67 4 0.687467 0.468008 0.5
46 3 0.0994064 0.527816 0.5
8 1 0.187693 0.521103 0.5
30 2 0.142863 0.499324 0.5
27 2 0.462455 0.485169 0.5
2 1 0.978232 0.497663 0.5
40 2 0.604419 0.523082 0.5
57 3 0.605244 0.568601 0.5
10 1 0.691908 0.53344 0.5
56 3 0.922279 0.54428 0.5
17 1 0.985801 0.556945 0.5
6 1 0.0457084 0.624012 0.5
41 3 0.385768 0.578595 0.5
70 4 0.408996 0.614696 0.5
33 2 0.651614 0.612233 0.5
71 4 0.226194 0.643332 0.5
62 4 0.309611 0.682145 0.5
15 1 0.486382 0.634644 0.5
20 1 0.659986 0.66852 0.5
39 2 0.849023 0.672777 0.5
9 1 0.388758 0.719866 0.5
50 3 0.508576 0.708967 0.5
14 1 0.582365 0.69378 0.5
4 1 0.726871 0.69194 0.5
5 1 0.939332 0.733237 0.5
31 2 0.0013339 0.730862 0.5
34 2 0.155875 0.753943 0.5
78 4 0.383096 0.786745 0.5
22 2 0.648238 0.748882 0.5
32 2 0.833309 0.757623 0.5
45 3 0.880775 0.752749 0.5
61 4 0.0130074 0.832298 0.5
28 2 0.128633 0.820251 0.5
29 2 0.248524 0.807117 0.5
44 3 0.466384 0.839347 0.5
59 3 0.574266 0.793868 0.5
74 4 0.731769 0.837859 0.5
36 2 0.904849 0.822652 0.5
54 3 0.146805 0.862499 0.5
13 1 0.191616 0.89918 0.5
53 3 0.297131 0.864307 0.5
3 1 0.525389 0.891937 0.5
60 3 0.646925 0.867212 0.5
26 2 0.960896 0.846493 0.5
12 1 0.0356552 0.90428 0.5
73 4 0.125008 0.943718 0.5
80 4 0.130501 0.908578 0.5
64 4 0.941115 0.898183 0.5
69 4 0.0906322 0.963395 0.5
51 3 0.239726 0.981704 0.5
68 4 0.397094 0.9592 0.5
ITEM: TIMESTEP
80
ITEM: NUMBER OF ATOMS
80
ITEM: BOX BOUNDS pp pp pp
-6.2826206421784851e+00 6.2826206421784851e+00
-6.2826206421784851e+00 6.2826206421784851e+00
-1.0000000000000001e-01 1.0000000000000001e-01
ITEM: ATOMS id type xs ys zs
43 3 0.0454598 0.0421613 0.5
25 2 0.15238 0.0467223 0.5
58 3 0.675486 0.0332631 0.5
65 4 0.363365 0.0831983 0.5
47 3 0.615293 0.0738984 0.5
1 1 0.789782 0.089591 0.5
11 1 0.0854494 0.147712 0.5
63 4 0.788384 0.14986 0.5
72 4 0.379673 0.161304 0.5
66 4 0.705963 0.205689 0.5
49 3 0.40819 0.229777 0.5
24 2 0.708626 0.256729 0.5
55 3 0.976333 0.223648 0.5
48 3 0.364154 0.287856 0.5
37 2 0.569079 0.272946 0.5
77 4 0.664827 0.277768 0.5
42 3 0.162677 0.338701 0.5
38 2 0.287282 0.330968 0.5
21 2 0.546877 0.36911 0.5
52 3 0.59339 0.325483 0.5
7 1 0.977751 0.34587 0.5
35 2 0.355333 0.38966 0.5
75 4 0.69051 0.40787 0.5
18 1 0.90835 0.391833 0.5
23 2 0.0530758 0.470434 0.5
76 4 0.105016 0.456074 0.5
16 1 0.193673 0.451465 0.5
19 1 0.209997 0.401788 0.5
79 4 0.399881 0.425077 0.5
67 4 0.687423 0.46713 0.5
46 3 0.0982506 0.528786 0.5
8 1 0.192092 0.527188 0.5
30 2 0.13741 0.499448 0.5
27 2 0.462455 0.485169 0.5
2 1 0.979024 0.491321 0.5
40 2 0.603578 0.519805 0.5
57 3 0.604728 0.571507 0.5
10 1 0.693169 0.533832 0.5
56 3 0.917475 0.545426 0.5
17 1 0.988644 0.561928 0.5
6 1 0.0461774 0.624547 0.5
41 3 0.385079 0.577527 0.5
70 4 0.409542 0.615726 0.5
33 2 0.651152 0.609504 0.5
71 4 0.226194 0.643332 0.5
62 4 0.309593 0.682137 0.5
15 1 0.486136 0.633839 0.5
20 1 0.659587 0.669205 0.5
39 2 0.849028 0.672322 0.5
9 1 0.388844 0.719084 0.5
50 3 0.508104 0.709847 0.5
14 1 0.580769 0.693754 0.5
4 1 0.730103 0.692842 0.5
5 1 0.937274 0.732751 0.5
31 2 0.00466771 0.730703 0.5
34 2 0.1562 0.753062 0.5
78 4 0.383029 0.787536 0.5
22 2 0.64849 0.750842 0.5
32 2 0.830355 0.758249 0.5
45 3 0.882433 0.752577 0.5
61 4 0.0136068 0.831791 0.5
28 2 0.127003 0.818471 0.5
29 2 0.248319 0.806798 0.5
44 3 0.465866 0.838885 0.5
59 3 0.574238 0.793896 0.5
74 4 0.731769 0.837859 0.5
36 2 0.902728 0.822339 0.5
54 3 0.145965 0.862236 0.5
13 1 0.195843 0.900931 0.5
53 3 0.297364 0.864581 0.5
3 1 0.525907 0.892399 0.5
60 3 0.646925 0.867212 0.5
26 2 0.962298 0.846587 0.5
12 1 0.035963 0.904733 0.5
73 4 0.125062 0.944298 0.5
80 4 0.128739 0.908915 0.5
64 4 0.940844 0.898996 0.5
69 4 0.0903031 0.963754 0.5
51 3 0.239753 0.981751 0.5
68 4 0.397094 0.9592 0.5
ITEM: TIMESTEP
90
ITEM: NUMBER OF ATOMS
80
ITEM: BOX BOUNDS pp pp pp
-6.2455584006794167e+00 6.2455584006794167e+00
-6.2455584006794167e+00 6.2455584006794167e+00
-1.0000000000000001e-01 1.0000000000000001e-01
ITEM: ATOMS id type xs ys zs
43 3 0.0454598 0.0421613 0.5
25 2 0.15238 0.0467223 0.5
58 3 0.675595 0.0331894 0.5
65 4 0.363365 0.0831983 0.5
47 3 0.615183 0.0739722 0.5
1 1 0.789833 0.0874038 0.5
11 1 0.0854494 0.147712 0.5
63 4 0.788334 0.152047 0.5
72 4 0.379673 0.161304 0.5
66 4 0.706002 0.204071 0.5
49 3 0.408265 0.229679 0.5
24 2 0.710519 0.257275 0.5
55 3 0.976333 0.223648 0.5
48 3 0.364113 0.287935 0.5
37 2 0.568169 0.270541 0.5
77 4 0.662895 0.27884 0.5
42 3 0.162398 0.338274 0.5
38 2 0.28711 0.330738 0.5
21 2 0.545983 0.370176 0.5
52 3 0.595194 0.326822 0.5
7 1 0.980378 0.34413 0.5
35 2 0.354674 0.38915 0.5
75 4 0.69051 0.40787 0.5
18 1 0.905699 0.393541 0.5
23 2 0.0521572 0.469898 0.5
76 4 0.105998 0.455292 0.5
16 1 0.194577 0.45062 0.5
19 1 0.212432 0.395875 0.5
79 4 0.40075 0.425769 0.5
67 4 0.687364 0.466064 0.5
46 3 0.0968447 0.530051 0.5
8 1 0.196973 0.533938 0.5
30 2 0.131724 0.499587 0.5
27 2 0.462455 0.485169 0.5
2 1 0.979658 0.484466 0.5
40 2 0.60254 0.516147 0.5
57 3 0.603993 0.574631 0.5
10 1 0.694782 0.534234 0.5
56 3 0.912255 0.546646 0.5
17 1 0.991593 0.56725 0.5
6 1 0.0468576 0.6253 0.5
41 3 0.384292 0.576307 0.5
70 4 0.410097 0.616887 0.5
33 2 0.650725 0.606628 0.5
71 4 0.226194 0.643332 0.5
62 4 0.309549 0.682116 0.5
15 1 0.485835 0.63282 0.5
20 1 0.659213 0.669847 0.5
39 2 0.848995 0.671692 0.5
9 1 0.388969 0.718139 0.5
50 3 0.507473 0.71095 0.5
14 1 0.578964 0.693722 0.5
4 1 0.733839 0.693824 0.5
5 1 0.935265 0.732058 0.5
31 2 0.00839951 0.730539 0.5
34 2 0.156622 0.751962 0.5
78 4 0.382948 0.788501 0.5
22 2 0.648806 0.753229 0.5
32 2 0.826977 0.758999 0.5
45 3 0.884077 0.752383 0.5
61 4 0.0143619 0.831123 0.5
28 2 0.125095 0.816535 0.5
29 2 0.248065 0.806344 0.5
44 3 0.465219 0.838308 0.5
59 3 0.574175 0.793964 0.5
74 4 0.731769 0.837859 0.5
36 2 0.900335 0.822198 0.5
54 3 0.14505 0.861959 0.5
13 1 0.200563 0.902856 0.5
53 3 0.297672 0.864943 0.5
3 1 0.526554 0.892976 0.5
60 3 0.646925 0.867212 0.5
26 2 0.963749 0.846596 0.5
12 1 0.0363713 0.90533 0.5
73 4 0.125149 0.945006 0.5
80 4 0.126747 0.909257 0.5
64 4 0.940508 0.899972 0.5
69 4 0.0899242 0.964232 0.5
51 3 0.239819 0.981869 0.5
68 4 0.397094 0.9592 0.5
ITEM: TIMESTEP
100
ITEM: NUMBER OF ATOMS
80
ITEM: BOX BOUNDS pp pp pp
-6.2502383951731355e+00 6.2502383951731355e+00
-6.2502383951731355e+00 6.2502383951731355e+00
-1.0000000000000001e-01 1.0000000000000001e-01
ITEM: ATOMS id type xs ys zs
43 3 0.0454598 0.0421613 0.5
25 2 0.15238 0.0467223 0.5
58 3 0.675745 0.0330878 0.5
65 4 0.363365 0.0831983 0.5
47 3 0.615033 0.0740737 0.5
1 1 0.789888 0.0850178 0.5
11 1 0.0854494 0.147712 0.5
63 4 0.788278 0.154433 0.5
72 4 0.379673 0.161304 0.5
66 4 0.706026 0.202263 0.5
49 3 0.408369 0.229542 0.5
24 2 0.712609 0.257927 0.5
55 3 0.976333 0.223648 0.5
48 3 0.364068 0.28804 0.5
37 2 0.567169 0.267927 0.5
77 4 0.66078 0.279996 0.5
42 3 0.161992 0.337701 0.5
38 2 0.286925 0.330377 0.5
21 2 0.544946 0.371381 0.5
52 3 0.59723 0.32823 0.5
7 1 0.983239 0.342235 0.5
35 2 0.353975 0.388614 0.5
75 4 0.69051 0.40787 0.5
18 1 0.902767 0.395346 0.5
23 2 0.051169 0.469198 0.5
76 4 0.107025 0.454292 0.5
16 1 0.195547 0.44977 0.5
19 1 0.215065 0.389691 0.5
79 4 0.401738 0.426554 0.5
67 4 0.687287 0.464833 0.5
46 3 0.0952391 0.531623 0.5
8 1 0.202171 0.541165 0.5
30 2 0.126012 0.499756 0.5
27 2 0.462455 0.485169 0.5
2 1 0.980077 0.47733 0.5
40 2 0.601338 0.512202 0.5
57 3 0.60303 0.577877 0.5
10 1 0.69671 0.534631 0.5
56 3 0.9068 0.547892 0.5
17 1 0.994515 0.572709 0.5
6 1 0.0477777 0.626268 0.5
41 3 0.383428 0.574965 0.5
70 4 0.41063 0.618149 0.5
33 2 0.650355 0.603694 0.5
71 4 0.226194 0.643332 0.5
62 4 0.309474 0.682081 0.5
15 1 0.485493 0.631601 0.5
20 1 0.658879 0.67044 0.5
39 2 0.848916 0.670898 0.5
9 1 0.389138 0.717058 0.5
50 3 0.506678 0.712259 0.5
14 1 0.57702 0.693673 0.5
4 1 0.737972 0.694857 0.5
5 1 0.933403 0.731155 0.5
31 2 0.0124353 0.730393 0.5
34 2 0.157143 0.750658 0.5
78 4 0.382853 0.789617 0.5
22 2 0.649197 0.75598 0.5
32 2 0.823271 0.75986 0.5
45 3 0.885632 0.752174 0.5
61 4 0.0152703 0.8303 0.5
28 2 0.122953 0.814511 0.5
29 2 0.247768 0.805756 0.5
44 3 0.464456 0.837628 0.5
59 3 0.574067 0.794081 0.5
74 4 0.731769 0.837859 0.5
36 2 0.897719 0.822259 0.5
54 3 0.144098 0.861694 0.5
13 1 0.205589 0.904871 0.5
53 3 0.298053 0.865386 0.5
3 1 0.527317 0.893655 0.5
60 3 0.646925 0.867212 0.5
26 2 0.9652 0.846514 0.5
12 1 0.0368625 0.906061 0.5
73 4 0.125292 0.945823 0.5
80 4 0.124598 0.909584 0.5
64 4 0.940109 0.901091 0.5
69 4 0.089505 0.964827 0.5
51 3 0.239933 0.982084 0.5
68 4 0.397094 0.9592 0.5
ITEM: TIMESTEP
110
ITEM: NUMBER OF ATOMS
80
ITEM: BOX BOUNDS pp pp pp
-6.2783238327763886e+00 6.2783238327763886e+00
-6.2783238327763886e+00 6.2783238327763886e+00
-1.0000000000000001e-01 1.0000000000000001e-01
ITEM: ATOMS id type xs ys zs
43 3 0.0454598 0.0421613 0.5
25 2 0.15238 0.0467223 0.5
58 3 0.675933 0.0329611 0.5
65 4 0.363365 0.0831983 0.5
47 3 0.614845 0.0742004 0.5
1 1 0.789947 0.0824911 0.5
11 1 0.0854494 0.147712 0.5
63 4 0.78822 0.156959 0.5
72 4 0.379673 0.161304 0.5
66 4 0.70603 0.200302 0.5
49 3 0.408499 0.22937 0.5
24 2 0.714856 0.258674 0.5
55 3 0.976333 0.223648 0.5
48 3 0.364019 0.288166 0.5
37 2 0.5661 0.265177 0.5
77 4 0.658529 0.281209 0.5
42 3 0.161443 0.33699 0.5
38 2 0.28676 0.329865 0.5
21 2 0.543787 0.372685 0.5
52 3 0.599458 0.329676 0.5
7 1 0.986264 0.340232 0.5
35 2 0.353257 0.388067 0.5
75 4 0.69051 0.40787 0.5
18 1 0.8996 0.397184 0.5
23 2 0.0501339 0.468359 0.5
76 4 0.108089 0.453066 0.5
16 1 0.196547 0.448976 0.5
19 1 0.217846 0.383362 0.5
79 4 0.402821 0.427416 0.5
67 4 0.687191 0.463463 0.5
46 3 0.0934765 0.533507 0.5
8 1 0.207533 0.548694 0.5
30 2 0.120442 0.499969 0.5
27 2 0.462455 0.485169 0.5
2 1 0.980248 0.470117 0.5
40 2 0.600017 0.50807 0.5
57 3 0.601842 0.581164 0.5
10 1 0.698899 0.535011 0.5
56 3 0.901276 0.549121 0.5
17 1 0.997283 0.57812 0.5
6 1 0.0489588 0.627447 0.5
41 3 0.382507 0.573533 0.5
70 4 0.411114 0.619482 0.5
33 2 0.650052 0.600756 0.5
71 4 0.226194 0.643332 0.5
62 4 0.309369 0.682034 0.5
15 1 0.485125 0.630206 0.5
20 1 0.658599 0.670985 0.5
39 2 0.8488 0.669964 0.5
9 1 0.389349 0.715865 0.5
50 3 0.505716 0.713752 0.5
14 1 0.575 0.693605 0.5
4 1 0.742359 0.695911 0.5
5 1 0.931749 0.730046 0.5
31 2 0.016688 0.730286 0.5
34 2 0.157763 0.749172 0.5
78 4 0.382747 0.790858 0.5
22 2 0.64967 0.759018 0.5
32 2 0.819364 0.760824 0.5
45 3 0.887036 0.751962 0.5
61 4 0.0163269 0.829338 0.5
28 2 0.120609 0.812436 0.5
29 2 0.247433 0.805046 0.5
44 3 0.463597 0.836863 0.5
59 3 0.573913 0.794245 0.5
74 4 0.731769 0.837859 0.5
36 2 0.894925 0.822531 0.5
54 3 0.143144 0.861465 0.5
13 1 0.210736 0.906917 0.5
53 3 0.298514 0.86589 0.5
3 1 0.528176 0.894421 0.5
60 3 0.646925 0.867212 0.5
26 2 0.966609 0.846342 0.5
12 1 0.0374073 0.906906 0.5
73 4 0.125519 0.946726 0.5
80 4 0.12237 0.909883 0.5
64 4 0.939657 0.902327 0.5
69 4 0.0890544 0.965536 0.5
51 3 0.2401 0.98242 0.5
68 4 0.397094 0.9592 0.5
ITEM: TIMESTEP
120
ITEM: NUMBER OF ATOMS
80
ITEM: BOX BOUNDS pp pp pp
-6.3095499948631133e+00 6.3095499948631133e+00
-6.3095499948631133e+00 6.3095499948631133e+00
-1.0000000000000001e-01 1.0000000000000001e-01
ITEM: ATOMS id type xs ys zs
43 3 0.0454598 0.0421613 0.5
25 2 0.15238 0.0467223 0.5
58 3 0.676152 0.032813 0.5
65 4 0.363365 0.0831983 0.5
47 3 0.614626 0.0743485 0.5
1 1 0.790007 0.079873 0.5
11 1 0.0854494 0.147712 0.5
63 4 0.788159 0.159578 0.5
72 4 0.379673 0.161304 0.5
66 4 0.706014 0.198222 0.5
49 3 0.408653 0.229167 0.5
24 2 0.717222 0.259505 0.5
55 3 0.976333 0.223648 0.5
48 3 0.363969 0.288311 0.5
37 2 0.564982 0.262339 0.5
77 4 0.65618 0.282458 0.5
42 3 0.160739 0.336154 0.5
38 2 0.286648 0.329183 0.5
21 2 0.542525 0.374065 0.5
52 3 0.601838 0.331134 0.5
7 1 0.989395 0.338159 0.5
35 2 0.352536 0.387525 0.5
75 4 0.69051 0.407868 0.5
18 1 0.896235 0.399008 0.5
23 2 0.0490748 0.467406 0.5
76 4 0.109198 0.451615 0.5
16 1 0.197551 0.448293 0.5
19 1 0.22073 0.376966 0.5
79 4 0.403982 0.428339 0.5
67 4 0.687075 0.46198 0.5
46 3 0.0915745 0.535706 0.5
8 1 0.212956 0.556383 0.5
30 2 0.115124 0.500239 0.5
27 2 0.462455 0.485169 0.5
2 1 0.980182 0.462947 0.5
40 2 0.59862 0.50383 0.5
57 3 0.600418 0.584443 0.5
10 1 0.701309 0.535354 0.5
56 3 0.895782 0.550331 0.5
17 1 0.99979 0.583343 0.5
6 1 0.0504204 0.628828 0.5
41 3 0.381547 0.572036 0.5