LAMMPS data file via write_data, version 23 Jun 2022, timestep = 10000

80 atoms
4 atom types

-4.793806017520061 4.793806017520061 xlo xhi
-4.793806017520061 4.793806017520061 ylo yhi
-0.1 0.1 zlo zhi

Atoms # sphere

1 1 1.6 0.2441406249999999 -2.7769945118798587 -4.076825773826291 0 0 0 0
70 4 0.7 2.915451895043732 -2.035791595186276 -4.730611922239658 0 0 1 0
38 2 1.3 0.4551661356395083 -1.56637856515979 -4.011495448585048 0 0 1 0
14 1 1.6 0.2441406249999999 0.8470287673031516 -4.1166785721857995 0 0 0 0
29 2 1.3 0.4551661356395083 2.813522947508897 -3.76212247542733 0 0 0 0
42 3 1 1 2.004450025243317 -4.495646192807584 0 0 1 0
23 2 1.3 0.4551661356395083 2.821367042597876 4.613963949186918 0 0 -1 0
39 2 1.3 0.4551661356395083 4.384922868448943 -4.68041754705862 0 0 0 0
19 1 1.6 0.2441406249999999 -4.213703507460386 -3.8003781001274106 0 1 0 0
54 3 1 1 -1.1626821829753937 -2.9023881801184106 0 0 1 0
27 2 1.3 0.4551661356395083 -0.5427974513501752 -3.640795835770481 0 0 0 0
71 4 0.7 2.915451895043732 0.22485216797209961 -3.1730545904330394 0 -1 0 0
5 1 1.6 0.2441406249999999 1.1372384229084513 -2.387213491912546 0 0 1 0
46 3 1 1 1.91549811899411 -3.4132150116012 0 0 0 0
66 4 0.7 2.915451895043732 3.656233852098624 -2.972695452132987 0 0 0 0
34 2 1.3 0.4551661356395083 4.033788531971868 -3.625854413105123 0 -1 1 0
47 3 1 1 -3.989741781307885 -1.9490869889282805 0 0 0 0
22 2 1.3 0.4551661356395083 -3.290384715388381 -2.806940793917344 0 0 0 0
32 2 1.3 0.4551661356395083 -2.139326296489993 -2.623086061382994 0 0 0 0
35 2 1.3 0.4551661356395083 -1.5196501229305595 -1.5768537706220207 0 0 1 0
11 1 1.6 0.2441406249999999 -0.3731369740038737 -2.1707504180128274 0 0 0 0
48 3 1 1 2.0343481955079428 -1.5467418483600341 0 0 0 0
53 3 1 1 2.2880580888572055 -2.5276812912867235 0 0 0 0
10 1 1.6 0.2441406249999999 4.553743598967629 -2.396141357488748 0 0 0 0
15 1 1.6 0.2441406249999999 4.474872203207622 -1.016230460056696 0 -1 0 0
59 3 1 1 -4.0164541007540375 -1.1304492739927374 0 0 0 0
16 1 1.6 0.2441406249999999 -2.810271030134809 -1.422065721357845 0 0 1 0
45 3 1 1 -1.9355877034741922 -0.6741227866969348 0 0 0 0
36 2 1.3 0.4551661356395083 -0.7372199827812924 -0.8085825773433246 0 0 0 0
7 1 1.6 0.2441406249999999 0.6782864347506949 -1.0844094106719613 0 0 0 0
68 4 0.7 2.915451895043732 2.8106786407913837 -0.7225260430816967 0 0 0 0
6 1 1.6 0.2441406249999999 3.244816706240134 -1.8605978105193852 0 0 0 0
37 2 1.3 0.4551661356395083 -3.881834580034843 -0.08547158921316012 0 0 0 0
60 3 1 1 -2.6852970443856714 -0.18473076815261713 0 0 0 0
2 1 1.6 0.2441406249999999 -1.5241098166862184 0.5224145522746131 0 0 0 0
57 3 1 1 -0.2755397812691358 0.26704561353804923 0 0 0 0
78 4 0.7 2.915451895043732 0.3690840838145304 -0.05168802129724792 0 0 0 0
75 4 0.7 2.915451895043732 1.1882789322054474 -0.07436697638174028 0 0 0 0
62 4 0.7 2.915451895043732 1.7983373915199357 -0.8961044231295441 0 0 0 0
9 1 1.6 0.2441406249999999 2.1853994923454128 0.07167565718642699 0 0 0 0
44 3 1 1 3.506678770416616 -0.28603398861376306 0 0 0 0
25 2 1.3 0.4551661356395083 4.540327478766932 0.26323599663631025 0 0 0 0
72 4 0.7 2.915451895043732 -4.1334422071372545 0.6896394892285747 0 1 0 0
4 1 1.6 0.2441406249999999 -2.98664332338115 0.918429009233356 0 0 0 0
28 2 1.3 0.4551661356395083 -1.851256881468562 1.9076360566509942 0 0 0 0
13 1 1.6 0.2441406249999999 -0.43663668300250524 1.508302680986647 0 0 0 0
20 1 1.6 0.2441406249999999 0.9251533088841066 0.9606738166332969 0 0 0 0
24 2 1.3 0.4551661356395083 2.6547847754393725 1.3218430701868753 0 0 0 0
56 3 1 1 3.30578142216888 0.5607808839455535 0 -1 0 0
67 4 0.7 2.915451895043732 -4.52335785145287 1.0547219886594474 0 1 0 0
21 2 1.3 0.4551661356395083 -4.015391109721149 1.8210215654725488 0 1 0 0
52 3 1 1 -2.901733605370541 2.163429866358916 0 0 0 0
40 2 1.3 0.4551661356395083 -2.4204012311272916 2.8791851079622157 0 0 0 0
31 2 1.3 0.4551661356395083 -0.6245885755349381 2.8038140026259253 0 0 0 0
18 1 1.6 0.2441406249999999 0.6899027236172097 2.4369815485567887 0 0 0 0
65 4 0.7 2.915451895043732 1.645318001280467 1.651283808527129 0 0 0 0
76 4 0.7 2.915451895043732 2.135958059831096 1.932422172599626 0 0 0 0
12 1 1.6 0.2441406249999999 4.060867893429095 1.4804612419873946 0 0 0 0
80 4 0.7 2.915451895043732 -4.306113532108737 3.4823606011649497 0 0 -1 0
30 2 1.3 0.4551661356395083 -3.609490071147331 3.0071316102238814 0 0 -1 0
79 4 0.7 2.915451895043732 -1.582001011851904 2.794296160105998 0 0 -1 0
69 4 0.7 2.915451895043732 -1.126728251853467 3.6660983194775882 0 0 0 0
50 3 1 1 0.2412943143255406 3.4985683199588182 0 0 -1 0
55 3 1 1 1.3376040055015412 3.4865410894697364 0 0 0 0
43 3 1 1 1.7054851099239006 2.724579038209754 0 0 0 0
77 4 0.7 2.915451895043732 2.337924908767879 2.565204586626841 0 -1 0 0
58 3 1 1 3.1099368762140953 2.2863970894047636 0 0 0 0
41 3 1 1 3.434035045438347 3.1487478778698046 0 0 -1 0
17 1 1.6 0.2441406249999999 4.549283172937678 2.7578343814628905 0 0 0 0
51 3 1 1 3.697918233846944 4.003012486211676 0 -1 -1 0
8 1 1.6 0.2441406249999999 -3.837109521796247 4.377885418216114 0 0 0 0
26 2 1.3 0.4551661356395083 -2.568914360525801 4.245669060448308 0 1 -1 0
73 4 0.7 2.915451895043732 -1.394723564144674 4.3501646753952565 0 0 -1 0
64 4 0.7 2.915451895043732 -1.647565794230275 3.75311362008848 0 0 0 0
3 1 1.6 0.2441406249999999 -0.41490669313572504 4.568420869578483 0 0 0 0
49 3 1 1 0.6977615223767684 4.112432361798201 0 -1 0 0
63 4 0.7 2.915451895043732 1.4804304731390205 4.435155706185678 0 0 0 0
61 4 0.7 2.915451895043732 1.8891829373798448 4.13427898834846 0 0 -1 0
33 2 1.3 0.4551661356395083 2.4991979739325254 3.4552476998277326 0 0 0 0
74 4 0.7 2.915451895043732 4.718369972779901 4.006751865859555 0 -1 0 0

Velocities

1 0.021948442886609316 0.010944093017563928 0 0 0 0
70 0.16797525417131612 -0.044547065816993026 0 0 0 0
38 -0.06022667772879233 0.0033983493431600136 0 0 0 0
14 0.1953896074017115 -0.0803583102412014 0 0 0 0
29 -0.0012061594974918826 -0.03930395262866144 0 0 0 0
42 0.042618192266252304 0.07320452471178482 0 0 0 0
23 -0.010547922192703377 0.14817367142783305 0 0 0 0
39 -0.29303630101437406 0.03660749963332433 0 0 0 0
19 -0.16410560242077818 -0.1563508821440182 0 0 0 0
54 0.0337284958651411 0.0026914943474432847 0 0 0 0
27 0.09707981382446848 0.07800812146950661 0 0 0 0
71 0.07975315608944829 0.051427358106150005 0 0 0 0
5 -0.12206126593523219 0.0682480345916432 0 0 0 0
46 0.05781283162545072 0.004548059071636733 0 0 0 0
66 0.037579382372679 0.028577402917065713 0 0 0 0
34 0.010096649658358955 0.05371490199142269 0 0 0 0
47 -0.013852973816686771 0.13152789887499564 0 0 0 0
22 -0.04654437535110749 -0.1717066348474993 0 0 0 0
32 0.1086226494446733 0.06494937644459886 0 0 0 0
35 -0.07585298382069496 0.12208811615377944 0 0 0 0
11 0.05199165382804243 -0.018314531070567904 0 0 0 0
48 0.048741149593727225 -0.09499802591920664 0 0 0 0
53 0.162787536872322 0.02798184667566424 0 0 0 0
10 -0.03866350782909984 0.10606835943287678 0 0 0 0
15 0.05302597501158119 -0.027181897535695405 0 0 0 0
59 -0.1142864502092289 -0.13903450394432906 0 0 0 0
16 -0.09519774457463863 0.03997891168847348 0 0 0 0
45 0.03693323537563067 -0.06986762436188028 0 0 0 0
36 -0.17393312740823022 0.1220716062295984 0 0 0 0
7 -0.04911797160027614 -0.06273654002020021 0 0 0 0
68 -0.2183164619868384 -0.09853554009936559 0 0 0 0
6 -0.15030883362129618 -0.009423752704750757 0 0 0 0
37 0.12616071563650988 -0.023080445889469895 0 0 0 0
60 0.0005510336179969734 0.1348946884479191 0 0 0 0
2 -0.11771381949981329 -0.16977636082219394 0 0 0 0
57 0.05389274106355718 -0.11904171287950523 0 0 0 0
78 0.047378101885495065 0.08417689225682379 0 0 0 0
75 -0.06317202103536403 -0.060791851899847156 0 0 0 0
62 -0.10684127249373988 0.09684927779533618 0 0 0 0
9 0.01093267947214041 -0.11922667318124267 0 0 0 0
44 0.129129694219928 0.2825247461259801 0 0 0 0
25 -0.16701999398087103 0.03735640316877283 0 0 0 0
72 0.10539964558325397 -0.06704166347169348 0 0 0 0
4 0.1805154232380934 -0.04469555541800487 0 0 0 0
28 0.2142721991413889 0.00026453222874786293 0 0 0 0
13 -0.12174163334441705 -0.10209918155891878 0 0 0 0
20 0.009021305502481536 0.07425244047325691 0 0 0 0
24 0.05824109169709499 0.027882096529685423 0 0 0 0
56 -0.03913927373477365 -0.2036115251184125 0 0 0 0
67 -0.07570944670448575 0.019670418262567053 0 0 0 0
21 -0.08305156357072896 -0.029566580894994386 0 0 0 0
52 -0.12468876245462242 0.018065838467967745 0 0 0 0
40 0.16715108953170832 0.015369933429832639 0 0 0 0
31 0.01888370172652251 0.20368142264488087 0 0 0 0
18 0.07833972884126604 0.030057002126550655 0 0 0 0
65 0.02510171941526093 -0.11046155690090831 0 0 0 0
76 -0.11763249797151787 0.021051905056845226 0 0 0 0
12 0.0093440789117884 0.032808099608073134 0 0 0 0
80 0.06830162771320197 0.0038329352549557522 0 0 0 0
30 -0.2114828940023692 -0.15835963303018313 0 0 0 0
79 0.14589454338745014 -0.08573440197109797 0 0 0 0
69 -0.11391308391747847 -0.022812148589662358 0 0 0 0
50 -0.049486745591749565 0.008386143853361755 0 0 0 0
55 0.14869863256638574 -1.3898895425104594e-05 0 0 0 0
43 0.01632983375133253 -0.1752405238396628 0 0 0 0
77 0.055617542047531984 0.08210189282874245 0 0 0 0
58 0.12470309437706631 -0.14249981151928898 0 0 0 0
41 0.002522684542096195 -0.05664825945302094 0 0 0 0
17 0.29078794976552613 -0.03880146333662339 0 0 0 0
51 -0.1785955125451066 -0.015493816135872474 0 0 0 0
8 0.07918778398028975 0.21159624788478382 0 0 0 0
26 -0.009223889408994159 0.05320171098742707 0 0 0 0
73 -0.045210772230279 -0.022161390009753715 0 0 0 0
64 -0.050485726190098903 -0.000770346179147802 0 0 0 0
3 -0.00411448957141646 0.07481050816985749 0 0 0 0
49 0.0727978129421113 0.053925397580123484 0 0 0 0
63 0.154106326223962 0.15193875811318583 0 0 0 0
61 -0.023882969086267237 -0.10289992346644138 0 0 0 0
33 -0.14924419082601045 0.1373543852090057 0 0 0 0
74 -0.11973788990128437 -0.14707531683745761 0 0 0 0
