ITEM: TIMESTEP
0
ITEM: NUMBER OF ATOMS
80
ITEM: BOX BOUNDS pp pp pp
-1.0000000000000000e+01 1.0000000000000000e+01
-1.0000000000000000e+01 1.0000000000000000e+01
-1.0000000000000001e-01 1.0000000000000001e-01
ITEM: ATOMS id type xs ys zs
23 2 0.583389 0.026645 0.5
26 2 0.955854 0.04019 0.5
19 1 0.652767 0.0624213 0.5
14 1 0.925989 0.0935479 0.5
11 1 0.149468 0.113116 0.5
51 3 0.125135 0.14918 0.5
1 1 0.271978 0.136004 0.5
45 3 0.38336 0.124907 0.5
28 2 0.476417 0.136828 0.5
22 2 0.0231548 0.163331 0.5
27 2 0.128707 0.18392 0.5
61 4 0.621598 0.189509 0.5
50 3 0.72584 0.199013 0.5
39 2 0.759815 0.209568 0.5
66 4 0.930396 0.165007 0.5
53 3 0.968774 0.183416 0.5
80 4 0.212366 0.240823 0.5
2 1 0.30584 0.254135 0.5
30 2 0.299711 0.241123 0.5
46 3 0.563825 0.210999 0.5
24 2 0.963184 0.228847 0.5
32 2 0.270619 0.298033 0.5
7 1 0.319408 0.282236 0.5
75 4 0.694193 0.294767 0.5
25 2 0.799148 0.283672 0.5
6 1 0.698776 0.321385 0.5
10 1 0.740308 0.356855 0.5
52 3 0.258369 0.404015 0.5
15 1 0.285263 0.415518 0.5
29 2 0.445076 0.389768 0.5
70 4 0.443708 0.394705 0.5
44 3 0.519449 0.386082 0.5
41 3 0.563003 0.391635 0.5
48 3 0.614291 0.387201 0.5
59 3 0.0475061 0.434648 0.5
71 4 0.0110929 0.438712 0.5
79 4 0.568479 0.433165 0.5
68 4 0.807368 0.429193 0.5
73 4 0.177218 0.496438 0.5
47 3 0.232256 0.519189 0.5
36 2 0.403492 0.489538 0.5
33 2 0.527249 0.477172 0.5
67 4 0.738353 0.498337 0.5
76 4 0.85271 0.496104 0.5
72 4 0.978612 0.524913 0.5
9 1 0.594905 0.566347 0.5
20 1 0.688435 0.527769 0.5
57 3 0.0572133 0.584308 0.5
62 4 0.285988 0.594922 0.5
4 1 0.549866 0.602988 0.5
21 2 0.6409 0.606313 0.5
55 3 0.179906 0.683179 0.5
13 1 0.607939 0.63266 0.5
18 1 0.699808 0.676053 0.5
43 3 0.744787 0.638388 0.5
56 3 0.210132 0.693692 0.5
65 4 0.445868 0.695409 0.5
49 3 0.072277 0.758932 0.5
63 4 0.285045 0.744896 0.5
31 2 0.34984 0.758132 0.5
37 2 0.370785 0.781217 0.5
38 2 0.396188 0.740081 0.5
64 4 0.341693 0.828524 0.5
78 4 0.522927 0.839536 0.5
42 3 0.668222 0.800646 0.5
77 4 0.152667 0.87117 0.5
40 2 0.46837 0.886492 0.5
12 1 0.728437 0.843325 0.5
54 3 0.730224 0.868846 0.5
5 1 0.930496 0.846721 0.5
8 1 0.232161 0.926053 0.5
3 1 0.526562 0.930898 0.5
58 3 0.584158 0.938832 0.5
34 2 0.104122 0.977215 0.5
35 2 0.293923 0.957201 0.5
74 4 0.274825 0.983561 0.5
69 4 0.379067 0.985959 0.5
60 3 0.452487 0.949886 0.5
16 1 0.527039 0.950947 0.5
17 1 0.83697 0.949726 0.5
ITEM: TIMESTEP
10
ITEM: NUMBER OF ATOMS
80
ITEM: BOX BOUNDS pp pp pp
-9.2676468235424760e+00 9.2676468235424760e+00
-9.2676468235424760e+00 9.2676468235424760e+00
-1.0000000000000001e-01 1.0000000000000001e-01
ITEM: ATOMS id type xs ys zs
23 2 0.583389 0.026645 0.5
26 2 0.955876 0.040151 0.5
19 1 0.652767 0.0624213 0.5
14 1 0.925967 0.0935869 0.5
11 1 0.149514 0.113047 0.5
51 3 0.125081 0.149163 0.5
1 1 0.271978 0.136004 0.5
45 3 0.38336 0.124907 0.5
28 2 0.476417 0.136828 0.5
22 2 0.0231565 0.163331 0.5
27 2 0.128716 0.184005 0.5
61 4 0.621598 0.189509 0.5
50 3 0.725762 0.198989 0.5
39 2 0.759894 0.209593 0.5
66 4 0.930394 0.165006 0.5
53 3 0.96878 0.183372 0.5
80 4 0.212366 0.240823 0.5
2 1 0.305892 0.254118 0.5
30 2 0.299579 0.240832 0.5
46 3 0.563825 0.210999 0.5
24 2 0.963178 0.228892 0.5
32 2 0.270501 0.298112 0.5
7 1 0.319606 0.282465 0.5
75 4 0.694173 0.294655 0.5
25 2 0.799148 0.283672 0.5
6 1 0.698722 0.321434 0.5
10 1 0.740381 0.356918 0.5
52 3 0.258247 0.403963 0.5
15 1 0.285385 0.41557 0.5
29 2 0.44512 0.389608 0.5
70 4 0.443664 0.394864 0.5
44 3 0.519425 0.386079 0.5
41 3 0.563026 0.391633 0.5
48 3 0.614291 0.387201 0.5
59 3 0.0475293 0.434645 0.5
71 4 0.0110697 0.438715 0.5
79 4 0.56848 0.433169 0.5
68 4 0.807368 0.429193 0.5
73 4 0.177218 0.496438 0.5
47 3 0.232256 0.519189 0.5
36 2 0.403492 0.489538 0.5
33 2 0.527249 0.477172 0.5
67 4 0.738355 0.498336 0.5
76 4 0.85271 0.496104 0.5
72 4 0.978612 0.524913 0.5
9 1 0.594926 0.566216 0.5
20 1 0.688433 0.52777 0.5
57 3 0.0572133 0.584308 0.5
62 4 0.285988 0.594922 0.5
4 1 0.54975 0.603014 0.5
21 2 0.641023 0.606272 0.5
55 3 0.179842 0.683156 0.5
13 1 0.607911 0.632805 0.5
18 1 0.699788 0.67607 0.5
43 3 0.744807 0.638371 0.5
56 3 0.210196 0.693714 0.5
65 4 0.445868 0.695409 0.5
49 3 0.072277 0.758932 0.5
63 4 0.285045 0.744896 0.5
31 2 0.349701 0.75806 0.5
37 2 0.370836 0.781364 0.5
38 2 0.396276 0.740006 0.5
64 4 0.341693 0.828524 0.5
78 4 0.522927 0.839536 0.5
42 3 0.668222 0.800646 0.5
77 4 0.152667 0.87117 0.5
40 2 0.468368 0.88649 0.5
12 1 0.728427 0.843179 0.5
54 3 0.730234 0.868992 0.5
5 1 0.930496 0.846721 0.5
8 1 0.232147 0.926046 0.5
3 1 0.526531 0.930675 0.5
58 3 0.584212 0.93883 0.5
34 2 0.104122 0.977215 0.5
35 2 0.293975 0.957155 0.5
74 4 0.274786 0.983615 0.5
69 4 0.379067 0.985959 0.5
60 3 0.452487 0.949886 0.5
16 1 0.527018 0.951173 0.5
17 1 0.83697 0.949726 0.5
ITEM: TIMESTEP
20
ITEM: NUMBER OF ATOMS
80
ITEM: BOX BOUNDS pp pp pp
-8.3516616622388220e+00 8.3516616622388220e+00
-8.3516616622388220e+00 8.3516616622388220e+00
-1.0000000000000001e-01 1.0000000000000001e-01
ITEM: ATOMS id type xs ys zs
23 2 0.583379 0.0266396 0.5
26 2 0.955967 0.0399886 0.5
19 1 0.652778 0.0624266 0.5
14 1 0.925876 0.0937494 0.5
11 1 0.149695 0.112761 0.5
51 3 0.124878 0.149104 0.5
1 1 0.271978 0.136004 0.5
45 3 0.38336 0.124907 0.5
28 2 0.476417 0.136828 0.5
22 2 0.0231882 0.163319 0.5
27 2 0.128738 0.18435 0.5
61 4 0.621598 0.189509 0.5
50 3 0.725471 0.198899 0.5
39 2 0.760184 0.209683 0.5
66 4 0.930369 0.164994 0.5
53 3 0.968795 0.183216 0.5
80 4 0.212366 0.240823 0.5
2 1 0.306087 0.254027 0.5
30 2 0.299119 0.239769 0.5
46 3 0.563825 0.210999 0.5
24 2 0.963156 0.229071 0.5
32 2 0.270033 0.298443 0.5
7 1 0.320339 0.283288 0.5
75 4 0.694105 0.294252 0.5
25 2 0.799148 0.283672 0.5
6 1 0.698515 0.321602 0.5
10 1 0.740657 0.357153 0.5
52 3 0.257808 0.403776 0.5
15 1 0.285824 0.415758 0.5
29 2 0.445274 0.389052 0.5
70 4 0.443509 0.395421 0.5
44 3 0.519319 0.386065 0.5
41 3 0.563108 0.391613 0.5
48 3 0.614312 0.387199 0.5
59 3 0.0476281 0.434634 0.5
71 4 0.0109709 0.438726 0.5
79 4 0.568485 0.433205 0.5
68 4 0.807368 0.429193 0.5
73 4 0.177218 0.496438 0.5
47 3 0.232256 0.519189 0.5
36 2 0.403492 0.489538 0.5
33 2 0.527249 0.477172 0.5
67 4 0.738384 0.498319 0.5
76 4 0.85271 0.496104 0.5
72 4 0.978612 0.524913 0.5
9 1 0.594992 0.565693 0.5
20 1 0.688404 0.527787 0.5
57 3 0.0572133 0.584308 0.5
62 4 0.285988 0.594922 0.5
4 1 0.549296 0.60311 0.5
21 2 0.64149 0.606135 0.5
55 3 0.179605 0.683074 0.5
13 1 0.607832 0.63337 0.5
18 1 0.699696 0.676147 0.5
43 3 0.744899 0.638294 0.5
56 3 0.210434 0.693797 0.5
65 4 0.445868 0.695409 0.5
49 3 0.072277 0.758932 0.5
63 4 0.285045 0.744896 0.5
31 2 0.349184 0.757807 0.5
37 2 0.371014 0.781905 0.5
38 2 0.396617 0.739715 0.5
64 4 0.341691 0.828527 0.5
78 4 0.522927 0.839536 0.5
42 3 0.66822 0.800645 0.5
77 4 0.152667 0.87117 0.5
40 2 0.468334 0.886463 0.5
12 1 0.728392 0.84266 0.5
54 3 0.73027 0.869512 0.5
5 1 0.930496 0.846721 0.5
8 1 0.232068 0.926006 0.5
3 1 0.526422 0.929903 0.5
58 3 0.584457 0.938821 0.5
34 2 0.104122 0.977215 0.5
35 2 0.294198 0.956996 0.5
74 4 0.274643 0.983813 0.5
69 4 0.379067 0.985959 0.5
60 3 0.452486 0.949887 0.5
16 1 0.526917 0.95198 0.5
17 1 0.83697 0.949726 0.5
ITEM: TIMESTEP
30
ITEM: NUMBER OF ATOMS
80
ITEM: BOX BOUNDS pp pp pp
-7.6709968452566724e+00 7.6709968452566724e+00
-7.6709968452566724e+00 7.6709968452566724e+00
-1.0000000000000001e-01 1.0000000000000001e-01
ITEM: ATOMS id type xs ys zs
23 2 0.58331 0.0266038 0.5
26 2 0.956168 0.0396292 0.5
19 1 0.652847 0.0624625 0.5
14 1 0.925675 0.094107 0.5
11 1 0.15008 0.112122 0.5
51 3 0.124464 0.148994 0.5
1 1 0.271978 0.136004 0.5
45 3 0.38336 0.124907 0.5
28 2 0.476417 0.136828 0.5
22 2 0.0233026 0.163277 0.5
27 2 0.128767 0.185099 0.5
61 4 0.621598 0.189509 0.5
50 3 0.72489 0.198718 0.5
39 2 0.760766 0.209864 0.5
66 4 0.930283 0.164955 0.5
53 3 0.968814 0.182916 0.5
80 4 0.212366 0.240823 0.5
2 1 0.306488 0.253798 0.5
30 2 0.298248 0.237674 0.5
46 3 0.563825 0.210999 0.5
24 2 0.963109 0.229454 0.5
32 2 0.269045 0.299168 0.5
7 1 0.321797 0.284888 0.5
75 4 0.693974 0.293463 0.5
25 2 0.799148 0.283672 0.5
6 1 0.698082 0.321913 0.5
10 1 0.741221 0.357631 0.5
52 3 0.256955 0.403411 0.5
15 1 0.286677 0.416123 0.5
29 2 0.445566 0.387998 0.5
70 4 0.443217 0.396475 0.5
44 3 0.519074 0.386034 0.5
41 3 0.56325 0.391543 0.5
48 3 0.6144 0.387192 0.5
59 3 0.0478508 0.434609 0.5
71 4 0.0107482 0.43875 0.5
79 4 0.568502 0.43331 0.5
68 4 0.807368 0.429193 0.5
73 4 0.177218 0.496438 0.5
47 3 0.232256 0.519189 0.5
36 2 0.403492 0.489538 0.5
33 2 0.527246 0.477176 0.5
67 4 0.738488 0.498258 0.5
76 4 0.85271 0.496104 0.5
72 4 0.978612 0.524913 0.5
9 1 0.595105 0.564569 0.5
20 1 0.688302 0.527847 0.5
57 3 0.0572133 0.584308 0.5
62 4 0.285988 0.594922 0.5
4 1 0.548339 0.603296 0.5
21 2 0.642444 0.60589 0.5
55 3 0.179126 0.682907 0.5
13 1 0.60772 0.634553 0.5
18 1 0.699478 0.676331 0.5
43 3 0.745118 0.638111 0.5
56 3 0.210912 0.693963 0.5
65 4 0.445868 0.695409 0.5
49 3 0.072277 0.758932 0.5
63 4 0.285045 0.744896 0.5
31 2 0.348146 0.757323 0.5
37 2 0.371365 0.782959 0.5
38 2 0.397325 0.739112 0.5
64 4 0.34167 0.82856 0.5
78 4 0.522927 0.839536 0.5
42 3 0.668191 0.800625 0.5
77 4 0.152667 0.87117 0.5
40 2 0.468211 0.886338 0.5
12 1 0.728351 0.841675 0.5
54 3 0.730341 0.870518 0.5
5 1 0.930496 0.846721 0.5
8 1 0.231856 0.9259 0.5
3 1 0.526236 0.928461 0.5
58 3 0.585029 0.938802 0.5
34 2 0.104122 0.977215 0.5
35 2 0.2947 0.956702 0.5
74 4 0.274353 0.984213 0.5
69 4 0.379067 0.985959 0.5
60 3 0.452439 0.949916 0.5
16 1 0.526701 0.953537 0.5
17 1 0.83697 0.949726 0.5
ITEM: TIMESTEP
40
ITEM: NUMBER OF ATOMS
80
ITEM: BOX BOUNDS pp pp pp
-7.1883895592940581e+00 7.1883895592940581e+00
-7.1883895592940581e+00 7.1883895592940581e+00
-1.0000000000000001e-01 1.0000000000000001e-01
ITEM: ATOMS id type xs ys zs
23 2 0.583135 0.026523 0.5
26 2 0.956517 0.0390057 0.5
19 1 0.653034 0.0625586 0.5
14 1 0.925324 0.0947001 0.5
11 1 0.150733 0.111009 0.5
51 3 0.123781 0.148824 0.5
1 1 0.271978 0.136004 0.5
45 3 0.38336 0.124907 0.5
28 2 0.476417 0.136828 0.5
22 2 0.0235529 0.163186 0.5
27 2 0.128797 0.186382 0.5
61 4 0.621598 0.189509 0.5
50 3 0.72395 0.198426 0.5
39 2 0.761698 0.210142 0.5
66 4 0.930099 0.164897 0.5
53 3 0.96883 0.182443 0.5
80 4 0.212366 0.240823 0.5
2 1 0.30715 0.253372 0.5
30 2 0.296892 0.23435 0.5
46 3 0.563825 0.210999 0.5
24 2 0.963029 0.230105 0.5
32 2 0.267395 0.300398 0.5
7 1 0.324141 0.287407 0.5
75 4 0.693772 0.292208 0.5
25 2 0.799161 0.283677 0.5
6 1 0.697353 0.322385 0.5
10 1 0.742144 0.358422 0.5
52 3 0.255607 0.402834 0.5
15 1 0.288025 0.416699 0.5
29 2 0.446003 0.386371 0.5
70 4 0.442766 0.398102 0.5
44 3 0.518653 0.385979 0.5
41 3 0.563454 0.391392 0.5
48 3 0.614602 0.387175 0.5
59 3 0.0482416 0.434566 0.5
71 4 0.0103574 0.438794 0.5
79 4 0.568559 0.433503 0.5
68 4 0.807368 0.429193 0.5
73 4 0.177218 0.496438 0.5
47 3 0.232256 0.519189 0.5
36 2 0.403492 0.489538 0.5
33 2 0.527217 0.477206 0.5
67 4 0.738714 0.498124 0.5
76 4 0.85271 0.496104 0.5
72 4 0.978612 0.524913 0.5
9 1 0.595236 0.562677 0.5
20 1 0.688121 0.527942 0.5
57 3 0.0572133 0.584308 0.5
62 4 0.285988 0.594922 0.5
4 1 0.546732 0.60359 0.5
21 2 0.643984 0.605528 0.5
55 3 0.178351 0.682638 0.5
13 1 0.607568 0.636517 0.5
18 1 0.699126 0.676697 0.5
43 3 0.745514 0.63778 0.5
56 3 0.211687 0.694233 0.5
65 4 0.445872 0.695405 0.5
49 3 0.072277 0.758932 0.5
63 4 0.285034 0.744894 0.5
31 2 0.34648 0.75657 0.5
37 2 0.371938 0.784607 0.5
38 2 0.398493 0.738119 0.5
64 4 0.341602 0.828665 0.5
78 4 0.522927 0.839536 0.5
42 3 0.668086 0.800553 0.5
77 4 0.152667 0.87117 0.5
40 2 0.467925 0.886 0.5
12 1 0.728346 0.840166 0.5
54 3 0.730451 0.872098 0.5
5 1 0.930496 0.846721 0.5
8 1 0.231437 0.925681 0.5
3 1 0.526017 0.926249 0.5
58 3 0.586049 0.938767 0.5
34 2 0.104122 0.977215 0.5
35 2 0.29558 0.956256 0.5
74 4 0.273891 0.984878 0.5
69 4 0.379067 0.985959 0.5
60 3 0.45224 0.950029 0.5
16 1 0.526373 0.955994 0.5
17 1 0.83697 0.949726 0.5
ITEM: TIMESTEP
50
ITEM: NUMBER OF ATOMS
80
ITEM: BOX BOUNDS pp pp pp
-6.8679496473108133e+00 6.8679496473108133e+00
-6.8679496473108133e+00 6.8679496473108133e+00
-1.0000000000000001e-01 1.0000000000000001e-01
ITEM: ATOMS id type xs ys zs
23 2 0.582846 0.026417 0.5
26 2 0.957036 0.0380779 0.5
19 1 0.653383 0.0627386 0.5
14 1 0.924797 0.0955254 0.5
11 1 0.15169 0.109355 0.5
51 3 0.122795 0.148592 0.5
1 1 0.271976 0.135995 0.5
45 3 0.38336 0.124907 0.5
28 2 0.476417 0.136828 0.5
22 2 0.023984 0.163029 0.5
27 2 0.128826 0.188267 0.5
61 4 0.621598 0.189509 0.5
50 3 0.722624 0.198014 0.5
39 2 0.762992 0.21049 0.5
66 4 0.92979 0.164853 0.5
53 3 0.968835 0.181789 0.5
80 4 0.212366 0.240823 0.5
2 1 0.308107 0.252711 0.5
30 2 0.295027 0.229768 0.5
46 3 0.563825 0.210999 0.5
24 2 0.962909 0.231063 0.5
32 2 0.265021 0.302173 0.5
7 1 0.327425 0.290885 0.5
75 4 0.693506 0.290453 0.5
25 2 0.79923 0.283694 0.5
6 1 0.69628 0.323024 0.5
10 1 0.743448 0.359585 0.5
52 3 0.253738 0.402035 0.5
15 1 0.289894 0.417499 0.5
29 2 0.446549 0.384157 0.5
70 4 0.442153 0.400316 0.5
44 3 0.518061 0.385896 0.5
41 3 0.563711 0.391137 0.5
48 3 0.614959 0.387145 0.5
59 3 0.0488276 0.4345 0.5
71 4 0.00977141 0.438859 0.5
79 4 0.568683 0.433788 0.5
68 4 0.807368 0.429193 0.5
73 4 0.177216 0.496437 0.5
47 3 0.232258 0.51919 0.5
36 2 0.403492 0.489538 0.5
33 2 0.52714 0.477288 0.5
67 4 0.739098 0.497898 0.5
76 4 0.85271 0.496104 0.5
72 4 0.978612 0.524913 0.5
9 1 0.595327 0.559946 0.5
20 1 0.687909 0.528024 0.5
57 3 0.0572133 0.584308 0.5
62 4 0.285988 0.594922 0.5
4 1 0.544385 0.603994 0.5
21 2 0.646123 0.605059 0.5
55 3 0.177253 0.682256 0.5
13 1 0.607343 0.639325 0.5
18 1 0.698689 0.677337 0.5
43 3 0.74612 0.637272 0.5
56 3 0.212785 0.694614 0.5
65 4 0.445908 0.695372 0.5
49 3 0.072277 0.758932 0.5
63 4 0.284973 0.744882 0.5
31 2 0.344176 0.755544 0.5
37 2 0.372765 0.786861 0.5
38 2 0.400135 0.736724 0.5
64 4 0.341461 0.828877 0.5
78 4 0.522927 0.839536 0.5
42 3 0.667859 0.8004 0.5
77 4 0.152667 0.87117 0.5
40 2 0.467407 0.88535 0.5
12 1 0.728423 0.838135 0.5
54 3 0.730601 0.874282 0.5
5 1 0.930496 0.846721 0.5
8 1 0.230747 0.925304 0.5
3 1 0.525828 0.923245 0.5
58 3 0.587586 0.938714 0.5
34 2 0.104122 0.977215 0.5
35 2 0.296901 0.955657 0.5
74 4 0.27326 0.985854 0.5
69 4 0.379067 0.985959 0.5
60 3 0.451791 0.950271 0.5
16 1 0.525931 0.959385 0.5
17 1 0.83697 0.949726 0.5
ITEM: TIMESTEP
60
ITEM: NUMBER OF ATOMS
80
ITEM: BOX BOUNDS pp pp pp
-6.6524499418765544e+00 6.6524499418765544e+00
-6.6524499418765544e+00 6.6524499418765544e+00
-1.0000000000000001e-01 1.0000000000000001e-01
ITEM: ATOMS id type xs ys zs
23 2 0.582449 0.0263125 0.5
26 2 0.957735 0.03683 0.5
19 1 0.653925 0.0630182 0.5
14 1 0.924083 0.0965619 0.5
11 1 0.152963 0.107148 0.5
51 3 0.121489 0.148298 0.5
1 1 0.271958 0.135924 0.5
45 3 0.38336 0.124907 0.5
28 2 0.476417 0.136828 0.5
22 2 0.0246354 0.162785 0.5
27 2 0.128858 0.190769 0.5
61 4 0.621601 0.189508 0.5
50 3 0.72091 0.197482 0.5
39 2 0.76463 0.21087 0.5
66 4 0.929337 0.164851 0.5
53 3 0.968824 0.180956 0.5
80 4 0.212366 0.240823 0.5
2 1 0.309369 0.251805 0.5
30 2 0.292673 0.224057 0.5
46 3 0.563822 0.211 0.5
24 2 0.962736 0.232355 0.5
32 2 0.261932 0.304462 0.5
7 1 0.331623 0.295284 0.5
75 4 0.693187 0.288195 0.5
25 2 0.799392 0.28373 0.5
6 1 0.694833 0.323829 0.5
10 1 0.745127 0.361154 0.5
52 3 0.251357 0.401017 0.5
15 1 0.292275 0.418517 0.5
29 2 0.447158 0.381378 0.5
70 4 0.441387 0.403093 0.5
44 3 0.517317 0.385788 0.5
41 3 0.564011 0.390761 0.5
48 3 0.615495 0.3871 0.5
59 3 0.0496199 0.434412 0.5
71 4 0.00897913 0.438948 0.5
79 4 0.568894 0.434166 0.5
68 4 0.807368 0.429193 0.5
73 4 0.177199 0.49643 0.5
47 3 0.232274 0.519197 0.5
36 2 0.403492 0.489538 0.5
33 2 0.526992 0.477439 0.5
67 4 0.739661 0.497566 0.5
76 4 0.85271 0.496104 0.5
72 4 0.978612 0.524913 0.5
9 1 0.595329 0.556381 0.5
20 1 0.687715 0.528046 0.5
57 3 0.0572133 0.584308 0.5
62 4 0.285988 0.594922 0.5
4 1 0.541287 0.604506 0.5
21 2 0.648818 0.604496 0.5
55 3 0.175831 0.681761 0.5
13 1 0.607012 0.642972 0.5
18 1 0.698221 0.678316 0.5
43 3 0.746951 0.636574 0.5
56 3 0.214208 0.695109 0.5
65 4 0.446006 0.695285 0.5
49 3 0.072277 0.758932 0.5
63 4 0.284818 0.744854 0.5
31 2 0.341286 0.754257 0.5
37 2 0.373869 0.789688 0.5
38 2 0.402218 0.734955 0.5
64 4 0.341222 0.829221 0.5
78 4 0.522932 0.839524 0.5
42 3 0.667473 0.800149 0.5
77 4 0.152667 0.87117 0.5
40 2 0.466608 0.884335 0.5
12 1 0.72862 0.835613 0.5
54 3 0.730789 0.877056 0.5
5 1 0.930496 0.846721 0.5
8 1 0.229752 0.924745 0.5
3 1 0.525728 0.919483 0.5
58 3 0.589659 0.938644 0.5
34 2 0.104122 0.977215 0.5
35 2 0.298691 0.954914 0.5
74 4 0.272466 0.987157 0.5
69 4 0.379067 0.985959 0.5
60 3 0.451035 0.95067 0.5
16 1 0.525364 0.96367 0.5
17 1 0.83697 0.949726 0.5
ITEM: TIMESTEP
70
ITEM: NUMBER OF ATOMS
80
ITEM: BOX BOUNDS pp pp pp
-6.5216965829627336e+00 6.5216965829627336e+00
-6.5216965829627336e+00 6.5216965829627336e+00
-1.0000000000000001e-01 1.0000000000000001e-01
ITEM: ATOMS id type xs ys zs
23 2 0.581967 0.026236 0.5
26 2 0.958611 0.0352687 0.5
19 1 0.654675 0.0634041 0.5
14 1 0.923175 0.0977617 0.5
11 1 0.154542 0.10442 0.5
51 3 0.119867 0.147945 0.5
1 1 0.271911 0.135722 0.5
45 3 0.38336 0.124907 0.5
28 2 0.476417 0.136828 0.5
22 2 0.0255271 0.162444 0.5
27 2 0.128901 0.19385 0.5
61 4 0.621618 0.189501 0.5
50 3 0.718831 0.196838 0.5
39 2 0.766578 0.211247 0.5
66 4 0.928732 0.164918 0.5
53 3 0.968802 0.179966 0.5
80 4 0.212366 0.240823 0.5
2 1 0.310925 0.250668 0.5
30 2 0.289882 0.21746 0.5
46 3 0.563804 0.211007 0.5
24 2 0.962504 0.23398 0.5
32 2 0.258203 0.307183 0.5
7 1 0.336636 0.300498 0.5
75 4 0.692835 0.285462 0.5
25 2 0.799672 0.283793 0.5
6 1 0.693001 0.324791 0.5
10 1 0.747163 0.363129 0.5
52 3 0.248506 0.399797 0.5
15 1 0.295125 0.419736 0.5
29 2 0.447781 0.378087 0.5
70 4 0.440484 0.406375 0.5
44 3 0.51645 0.38566 0.5
41 3 0.564343 0.390256 0.5
48 3 0.616224 0.387042 0.5
59 3 0.0506145 0.434301 0.5
71 4 0.00798453 0.439059 0.5
79 4 0.569205 0.434629 0.5
68 4 0.807368 0.429193 0.5
73 4 0.177154 0.496412 0.5
47 3 0.23232 0.519215 0.5
36 2 0.403492 0.489538 0.5
33 2 0.526743 0.47765 0.5
67 4 0.740413 0.497123 0.5
76 4 0.85271 0.496104 0.5
72 4 0.978612 0.524913 0.5
9 1 0.595221 0.552074 0.5
20 1 0.687584 0.527969 0.5
57 3 0.0572133 0.584308 0.5
62 4 0.285988 0.594922 0.5
4 1 0.537496 0.605111 0.5
21 2 0.651978 0.603856 0.5
55 3 0.174104 0.681161 0.5
13 1 0.606545 0.647388 0.5
18 1 0.697775 0.679675 0.5
43 3 0.748005 0.635686 0.5
56 3 0.215934 0.69571 0.5
65 4 0.446191 0.695117 0.5
49 3 0.072277 0.758932 0.5
63 4 0.284532 0.744804 0.5
31 2 0.337904 0.752738 0.5
37 2 0.375257 0.793017 0.5
38 2 0.40467 0.732872 0.5
64 4 0.340863 0.829713 0.5
78 4 0.522953 0.839453 0.5
42 3 0.666904 0.799789 0.5
77 4 0.152667 0.87117 0.5
40 2 0.465494 0.882955 0.5
12 1 0.728972 0.832657 0.5
54 3 0.731007 0.880371 0.5
5 1 0.930496 0.846721 0.5
8 1 0.228444 0.923998 0.5
3 1 0.52577 0.915068 0.5
58 3 0.592237 0.938559 0.5
34 2 0.104122 0.977215 0.5
35 2 0.30094 0.954044 0.5
74 4 0.271524 0.988774 0.5
69 4 0.379067 0.985959 0.5
60 3 0.449948 0.951232 0.5
16 1 0.524656 0.968748 0.5
17 1 0.83697 0.949726 0.5
ITEM: TIMESTEP
80
ITEM: NUMBER OF ATOMS
80
ITEM: BOX BOUNDS pp pp pp
-6.4639941100041742e+00 6.4639941100041742e+00
-6.4639941100041742e+00 6.4639941100041742e+00
-1.0000000000000001e-01 1.0000000000000001e-01
ITEM: ATOMS id type xs ys zs
23 2 0.581436 0.0262113 0.5
26 2 0.959646 0.0334249 0.5
19 1 0.655628 0.0638943 0.5
14 1 0.922076 0.0990565 0.5
11 1 0.156384 0.101251 0.5
51 3 0.117952 0.147538 0.5
1 1 0.271826 0.135323 0.5
45 3 0.38336 0.124907 0.5
28 2 0.476417 0.136828 0.5
22 2 0.0266547 0.162013 0.5
27 2 0.128967 0.197423 0.5
61 4 0.621659 0.189486 0.5
50 3 0.716437 0.196099 0.5
39 2 0.768779 0.211587 0.5
66 4 0.927977 0.165076 0.5
53 3 0.96878 0.178862 0.5
80 4 0.212366 0.240823 0.5
2 1 0.312745 0.249345 0.5
30 2 0.28674 0.210311 0.5
46 3 0.563764 0.211022 0.5
24 2 0.962218 0.235907 0.5
32 2 0.25397 0.310204 0.5
7 1 0.342283 0.306351 0.5
75 4 0.692472 0.282309 0.5
25 2 0.800077 0.283891 0.5
6 1 0.690804 0.32589 0.5
10 1 0.749515 0.365479 0.5
52 3 0.24526 0.398409 0.5
15 1 0.298372 0.421125 0.5
29 2 0.448373 0.374365 0.5
70 4 0.439473 0.410072 0.5
44 3 0.515492 0.385524 0.5
41 3 0.564696 0.389625 0.5
48 3 0.617139 0.386977 0.5
59 3 0.0517914 0.43417 0.5
71 4 0.00680757 0.43919 0.5
79 4 0.569619 0.435167 0.5
68 4 0.807369 0.429194 0.5
73 4 0.177072 0.496378 0.5
47 3 0.232401 0.519249 0.5
36 2 0.403492 0.489538 0.5
33 2 0.526361 0.477895 0.5
67 4 0.741348 0.496574 0.5
76 4 0.85271 0.496104 0.5
72 4 0.978612 0.524913 0.5
9 1 0.595004 0.547189 0.5
20 1 0.68755 0.527766 0.5
57 3 0.0572133 0.584308 0.5
62 4 0.285988 0.594922 0.5
4 1 0.533121 0.605791 0.5
21 2 0.655487 0.603165 0.5
55 3 0.172115 0.680469 0.5
13 1 0.605923 0.652439 0.5
18 1 0.697394 0.681416 0.5
43 3 0.749261 0.634622 0.5
56 3 0.217923 0.696402 0.5
65 4 0.446488 0.694848 0.5
49 3 0.072277 0.758932 0.5
63 4 0.284082 0.744729 0.5
31 2 0.33417 0.751028 0.5
37 2 0.376921 0.796741 0.5
38 2 0.407388 0.73056 0.5
64 4 0.340369 0.830353 0.5
78 4 0.522996 0.839275 0.5
42 3 0.666137 0.799324 0.5
77 4 0.152667 0.87117 0.5
40 2 0.464062 0.881253 0.5
12 1 0.729499 0.82935 0.5
54 3 0.731247 0.884143 0.5
5 1 0.930496 0.846721 0.5
8 1 0.22685 0.923084 0.5
3 1 0.525996 0.910158 0.5
58 3 0.595243 0.938467 0.5
34 2 0.104122 0.977215 0.5
35 2 0.303604 0.953069 0.5
74 4 0.270454 0.990662 0.5
69 4 0.379067 0.985959 0.5
60 3 0.44855 0.951943 0.5
16 1 0.523789 0.974453 0.5
17 1 0.83697 0.949726 0.5
ITEM: TIMESTEP
90
ITEM: NUMBER OF ATOMS
80
ITEM: BOX BOUNDS pp pp pp
-6.4658584194204671e+00 6.4658584194204671e+00
-6.4658584194204671e+00 6.4658584194204671e+00
-1.0000000000000001e-01 1.0000000000000001e-01
ITEM: ATOMS id type xs ys zs
23 2 0.580901 0.0262558 0.5
26 2 0.960815 0.031348 0.5
19 1 0.656767 0.0644786 0.5
14 1 0.920801 0.100377 0.5
11 1 0.158418 0.0977569 0.5
51 3 0.115788 0.147087 0.5
1 1 0.27171 0.134671 0.5
45 3 0.38336 0.124907 0.5
28 2 0.476417 0.136828 0.5
22 2 0.0279917 0.16151 0.5
27 2 0.129066 0.201359 0.5
61 4 0.621725 0.189462 0.5
50 3 0.713798 0.195286 0.5
39 2 0.771166 0.211859 0.5
66 4 0.927081 0.16534 0.5
53 3 0.968768 0.177686 0.5
80 4 0.212366 0.240823 0.5
2 1 0.314777 0.247901 0.5
30 2 0.28336 0.202948 0.5
46 3 0.563698 0.211047 0.5
24 2 0.961895 0.238077 0.5
32 2 0.249409 0.313389 0.5
7 1 0.348341 0.31262 0.5
75 4 0.692116 0.278819 0.5
25 2 0.800604 0.284032 0.5
6 1 0.688301 0.327084 0.5
10 1 0.752117 0.368131 0.5
52 3 0.241716 0.3969 0.5
15 1 0.301912 0.422647 0.5
29 2 0.448897 0.370319 0.5
70 4 0.438385 0.41407 0.5
44 3 0.514476 0.385394 0.5
41 3 0.565058 0.388878 0.5
48 3 0.618207 0.386924 0.5
59 3 0.0531179 0.434022 0.5
71 4 0.00548113 0.439338 0.5
79 4 0.570133 0.435766 0.5
68 4 0.807383 0.42921 0.5
73 4 0.176953 0.496329 0.5
47 3 0.23252 0.519298 0.5
36 2 0.403492 0.489538 0.5
33 2 0.525825 0.478152 0.5
67 4 0.742451 0.495927 0.5
76 4 0.85271 0.496104 0.5
72 4 0.978612 0.524913 0.5
9 1 0.594689 0.541933 0.5
20 1 0.687634 0.527421 0.5
57 3 0.0572133 0.584308 0.5
62 4 0.285988 0.594922 0.5
4 1 0.528303 0.606521 0.5
21 2 0.659225 0.602451 0.5
55 3 0.169922 0.679706 0.5
13 1 0.605136 0.657938 0.5
18 1 0.69711 0.683512 0.5
43 3 0.750684 0.633408 0.5
56 3 0.220116 0.697164 0.5
65 4 0.446911 0.694464 0.5
49 3 0.072277 0.758932 0.5
63 4 0.283445 0.744631 0.5
31 2 0.330248 0.749183 0.5
37 2 0.378838 0.800731 0.5
38 2 0.410246 0.728124 0.5
64 4 0.339731 0.831127 0.5
78 4 0.523062 0.838953 0.5
42 3 0.665176 0.798765 0.5
77 4 0.152667 0.87117 0.5
40 2 0.462334 0.879308 0.5
12 1 0.730208 0.825792 0.5
54 3 0.731498 0.88826 0.5
5 1 0.930496 0.846721 0.5
8 1 0.225021 0.922039 0.5
3 1 0.526427 0.904943 0.5
58 3 0.598563 0.938377 0.5
34 2 0.104122 0.977215 0.5
35 2 0.306603 0.952021 0.5
74 4 0.269284 0.992755 0.5
69 4 0.379067 0.985959 0.5
60 3 0.446896 0.952768 0.5
16 1 0.52275 0.980572 0.5
17 1 0.83697 0.949726 0.5
ITEM: TIMESTEP
100
ITEM: NUMBER OF ATOMS
80
ITEM: BOX BOUNDS pp pp pp
-6.5081399467738139e+00 6.5081399467738139e+00
-6.5081399467738139e+00 6.5081399467738139e+00
-1.0000000000000001e-01 1.0000000000000001e-01
ITEM: ATOMS id type xs ys zs
23 2 0.580409 0.0263769 0.5
26 2 0.962085 0.0290961 0.5
19 1 0.658062 0.0651418 0.5
14 1 0.919375 0.101663 0.5
11 1 0.160574 0.094067 0.5
51 3 0.113433 0.146603 0.5
1 1 0.271569 0.133729 0.5
45 3 0.38336 0.124907 0.5
28 2 0.476417 0.136828 0.5
22 2 0.0294976 0.160961 0.5
27 2 0.129209 0.205515 0.5
61 4 0.621815 0.189428 0.5
50 3 0.710986 0.194425 0.5
39 2 0.773668 0.212042 0.5
66 4 0.926062 0.16572 0.5
53 3 0.968777 0.176475 0.5
80 4 0.212366 0.240823 0.5
2 1 0.316959 0.246402 0.5
30 2 0.279831 0.195609 0.5
46 3 0.563608 0.21108 0.5
24 2 0.961551 0.240424 0.5
32 2 0.244702 0.316611 0.5
7 1 0.354613 0.31912 0.5
75 4 0.691785 0.27508 0.5
25 2 0.801236 0.284226 0.5
6 1 0.685565 0.328331 0.5
10 1 0.754892 0.370995 0.5
52 3 0.237976 0.395343 0.5
15 1 0.305634 0.424279 0.5
29 2 0.449327 0.366057 0.5
70 4 0.437255 0.418253 0.5
44 3 0.513429 0.385287 0.5
41 3 0.565421 0.388029 0.5
48 3 0.619388 0.386902 0.5
59 3 0.0545548 0.433861 0.5
71 4 0.00404418 0.439499 0.5
79 4 0.570734 0.436411 0.5
68 4 0.807428 0.429259 0.5
73 4 0.1768 0.496266 0.5
47 3 0.232673 0.519362 0.5
36 2 0.403492 0.489538 0.5
33 2 0.525122 0.478397 0.5
67 4 0.743696 0.495198 0.5
76 4 0.85271 0.496104 0.5
72 4 0.978612 0.524913 0.5
9 1 0.594298 0.536525 0.5
20 1 0.687841 0.526931 0.5
57 3 0.0572133 0.584308 0.5
62 4 0.285988 0.594922 0.5
4 1 0.523191 0.607274 0.5
21 2 0.663074 0.601748 0.5
55 3 0.16759 0.678895 0.5
13 1 0.604186 0.663681 0.5
18 1 0.696944 0.685909 0.5
43 3 0.752232 0.632077 0.5
56 3 0.222448 0.697975 0.5
65 4 0.447469 0.693956 0.5
49 3 0.072277 0.758932 0.5
63 4 0.282607 0.744514 0.5
31 2 0.326305 0.747254 0.5
37 2 0.38097 0.804856 0.5
38 2 0.413119 0.725669 0.5
64 4 0.338949 0.832011 0.5
78 4 0.523144 0.838461 0.5
42 3 0.664032 0.798132 0.5
77 4 0.152663 0.871168 0.5
40 2 0.460342 0.877193 0.5
12 1 0.731096 0.822079 0.5
54 3 0.731754 0.892606 0.5
5 1 0.930496 0.846721 0.5
8 1 0.223029 0.920914 0.5
3 1 0.527066 0.899618 0.5
58 3 0.60207 0.938303 0.5
34 2 0.104122 0.977215 0.5
35 2 0.309843 0.950929 0.5
74 4 0.26804 0.994975 0.5
69 4 0.379067 0.985959 0.5
60 3 0.445064 0.95366 0.5
16 1 0.521543 0.986902 0.5
17 1 0.83697 0.949726 0.5
ITEM: TIMESTEP
110
ITEM: NUMBER OF ATOMS
80
ITEM: BOX BOUNDS pp pp pp
-6.5639295090099292e+00 6.5639295090099292e+00
-6.5639295090099292e+00 6.5639295090099292e+00
-1.0000000000000001e-01 1.0000000000000001e-01
ITEM: ATOMS id type xs ys zs
23 2 0.580005 0.0265745 0.5
26 2 0.963429 0.0267207 0.5
19 1 0.659486 0.0658691 0.5
14 1 0.917823 0.102868 0.5
11 1 0.162797 0.0902752 0.5
51 3 0.110956 0.146091 0.5
1 1 0.271415 0.132474 0.5
45 3 0.38336 0.124907 0.5
28 2 0.476417 0.136828 0.5
22 2 0.0311271 0.160381 0.5
27 2 0.129398 0.209784 0.5
61 4 0.621924 0.189388 0.5
50 3 0.708068 0.193534 0.5
39 2 0.776228 0.212121 0.5
66 4 0.924936 0.16622 0.5
53 3 0.968814 0.175259 0.5
80 4 0.212366 0.240823 0.5
2 1 0.319226 0.244904 0.5
30 2 0.276208 0.188451 0.5
46 3 0.563499 0.21112 0.5
24 2 0.961195 0.242895 0.5
32 2 0.240006 0.319768 0.5
7 1 0.360915 0.325706 0.5
75 4 0.691487 0.271167 0.5
25 2 0.801954 0.284483 0.5
6 1 0.682664 0.329592 0.5
10 1 0.757776 0.37399 0.5
52 3 0.234126 0.393804 0.5
15 1 0.309441 0.425998 0.5
29 2 0.449681 0.361685 0.5
70 4 0.436107 0.422522 0.5
44 3 0.51237 0.385213 0.5
41 3 0.565778 0.387093 0.5
48 3 0.620646 0.386929 0.5
59 3 0.0560666 0.433693 0.5
71 4 0.00253242 0.439667 0.5
79 4 0.571413 0.43709 0.5
68 4 0.807516 0.429357 0.5
73 4 0.176619 0.496191 0.5
47 3 0.232854 0.519436 0.5
36 2 0.403492 0.489538 0.5
33 2 0.524247 0.478615 0.5
67 4 0.745065 0.4944 0.5
76 4 0.85271 0.496104 0.5
72 4 0.978612 0.524913 0.5
9 1 0.593854 0.531126 0.5
20 1 0.688168 0.5263 0.5
57 3 0.0572133 0.584308 0.5
62 4 0.285988 0.594922 0.5
4 1 0.517917 0.60803 0.5
21 2 0.666943 0.601087 0.5
55 3 0.165176 0.678055 0.5
13 1 0.603084 0.669513 0.5
18 1 0.696905 0.68855 0.5
43 3 0.753865 0.630659 0.5
56 3 0.224863 0.698815 0.5
65 4 0.448168 0.693317 0.5
49 3 0.072277 0.758932 0.5
63 4 0.281557 0.744384 0.5
31 2 0.322485 0.745287 0.5
37 2 0.38328 0.809008 0.5
38 2 0.415902 0.723284 0.5
64 4 0.338026 0.832979 0.5
78 4 0.52323 0.837782 0.5
42 3 0.662724 0.797444 0.5
77 4 0.152648 0.871157 0.5
40 2 0.458114 0.874964 0.5
12 1 0.732152 0.818292 0.5
54 3 0.732007 0.897081 0.5
5 1 0.930496 0.846721 0.5
8 1 0.220949 0.919761 0.5
3 1 0.527904 0.894355 0.5
58 3 0.605649 0.938257 0.5
34 2 0.104122 0.977215 0.5
35 2 0.31323 0.949819 0.5
74 4 0.266748 0.997249 0.5
69 4 0.379068 0.985959 0.5
60 3 0.443133 0.95457 0.5
16 1 0.52018 0.993284 0.5
17 1 0.83697 0.949726 0.5
ITEM: TIMESTEP
120
ITEM: NUMBER OF ATOMS
80
ITEM: BOX BOUNDS pp pp pp
-6.6054421236854690e+00 6.6054421236854690e+00
-6.6054421236854690e+00 6.6054421236854690e+00
-1.0000000000000001e-01 1.0000000000000001e-01
ITEM: ATOMS id type xs ys zs
23 2 0.579723 0.0268418 0.5
26 2 0.964827 0.0242563 0.5
19 1 0.661021 0.0666509 0.5
14 1 0.91616 0.10396 0.5
11 1 0.165055 0.0864162 0.5
51 3 0.108417 0.145555 0.5
1 1 0.271267 0.130883 0.5
45 3 0.38336 0.124907 0.5
28 2 0.476417 0.136828 0.5
22 2 0.032843 0.15978 0.5
27 2 0.129623 0.214125 0.5
61 4 0.622046 0.189342 0.5
50 3 0.705085 0.192627 0.5
39 2 0.778807 0.212087 0.5
66 4 0.923713 0.166847 0.5
53 3 0.968883 0.174052 0.5
80 4 0.212366 0.240823 0.5
2 1 0.321536 0.243447 0.5
30 2 0.27251 0.181562 0.5
46 3 0.563377 0.211166 0.5
24 2 0.960829 0.245459 0.5
32 2 0.235379 0.322795 0.5
7 1 0.367149 0.332282 0.5
75 4 0.691221 0.267123 0.5
25 2 0.802744 0.284814 0.5
6 1 0.67965 0.330838 0.5
10 1 0.760725 0.377055 0.5
52 3 0.230223 0.392334 0.5
15 1 0.313266 0.427791 0.5
29 2 0.450012 0.357277 0.5
70 4 0.434962 0.426803 0.5
44 3 0.511305 0.385185 0.5
41 3 0.566129 0.386079 0.5
48 3 0.621957 0.387023 0.5
59 3 0.057628 0.433518 0.5
71 4 0.000971013 0.439842 0.5
79 4 0.57216 0.437796 0.5
68 4 0.807664 0.429521 0.5
73 4 0.176416 0.496107 0.5
47 3 0.233057 0.51952 0.5
36 2 0.403486 0.489549 0.5
33 2 0.52319 0.478794 0.5
67 4 0.746545 0.493539 0.5
76 4 0.85271 0.496104 0.5