LAMMPS data file via write_data, version 23 Jun 2022, timestep = 10000

80 atoms
4 atom types

-4.816685901587934 4.816685901587934 xlo xhi
-4.816685901587934 4.816685901587934 ylo yhi
-0.1 0.1 zlo zhi

Atoms # sphere

52 3 1 1 4.687910206984104 -4.38171205217589 0 0 0 0
15 1 1.6 0.2441406249999999 -3.684384453415597 -4.754281436185404 0 1 1 0
53 3 1 1 -2.8803241999400897 -3.754403036970701 0 1 1 0
20 1 1.6 0.2441406249999999 -2.2298357496265644 4.7637769546888675 0 1 -1 0
14 1 1.6 0.2441406249999999 -0.6903072543541393 -4.471133689567759 0 0 1 0
7 1 1.6 0.2441406249999999 0.8579351366563026 -4.510817364307485 0 0 0 0
25 2 1.3 0.4551661356395083 2.176901798024767 -4.393929373909215 0 0 0 0
4 1 1.6 0.2441406249999999 3.289842967792498 -3.3283923420076618 0 0 0 0
75 4 0.7 2.915451895043732 3.987182850476171 -4.056377496500136 0 -1 1 0
47 3 1 1 -3.7399030527354697 -3.486089368580037 0 0 0 0
12 1 1.6 0.2441406249999999 -1.8464877200978411 -3.4777704676711627 0 0 1 0
19 1 1.6 0.2441406249999999 0.12398568426445511 -3.2835757920842905 0 0 0 0
8 1 1.6 0.2441406249999999 1.7810391449249936 -3.1941916027787216 0 0 1 0
73 4 0.7 2.915451895043732 3.764786535743034 -2.354091000752326 0 0 0 0
17 1 1.6 0.2441406249999999 4.548295620294016 -3.1789675055555344 0 0 0 0
37 2 1.3 0.4551661356395083 -4.145646645247929 -2.2988064392573335 0 0 0 0
30 2 1.3 0.4551661356395083 -3.2528080966529664 -1.4240099531366521 0 0 0 0
40 2 1.3 0.4551661356395083 -3.050698773589885 -2.660235896278326 0 0 0 0
50 3 1 1 -2.1995086034592197 -2.0480476709755933 0 0 0 0
61 4 0.7 2.915451895043732 -1.5724825061660002 -2.4226508395036324 0 0 0 0
41 3 1 1 -0.8859309087846348 -2.612748620087614 0 0 0 0
62 4 0.7 2.915451895043732 -0.029663447064161907 -2.2488634819373874 0 0 1 0
39 2 1.3 0.4551661356395083 0.9996420328683024 -2.1811207557806425 0 0 0 0
49 3 1 1 2.607022124274394 -2.510460892602597 0 0 0 0
65 4 0.7 2.915451895043732 3.0617129398486806 -1.8857979330838384 0 0 0 0
43 3 1 1 4.404270746172682 -1.8798468204899912 0 0 0 0
34 2 1.3 0.4551661356395083 -4.385473647949743 -1.173448418158845 0 1 0 0
22 2 1.3 0.4551661356395083 -2.2363870216404607 -0.939062767671869 0 0 0 0
44 3 1 1 -1.089081095990986 -1.7500356378573243 0 1 0 0
48 3 1 1 -0.30044521130654545 -1.3022539889655533 0 0 0 0
57 3 1 1 0.5648484021725784 -1.061326941438253 0 -1 0 0
64 4 0.7 2.915451895043732 1.111738549636975 -0.5048450189386982 0 0 0 0
5 1 1.6 0.2441406249999999 1.9616856136265097 -1.2543147773932386 0 0 0 0
6 1 1.6 0.2441406249999999 3.53718160875306 -0.8994209350565847 0 0 0 0
74 4 0.7 2.915451895043732 -4.5089423669463615 -0.22031029106553124 0 1 0 0
28 2 1.3 0.4551661356395083 -3.471827811840667 -0.31902357505485757 0 0 0 0
23 2 1.3 0.4551661356395083 -2.0316381644057144 0.03473538026951406 0 0 0 0
36 2 1.3 0.4551661356395083 -1.0742999477355726 -0.6408130173915456 0 0 0 0
51 3 1 1 -0.8512864397948774 0.41697937078446046 0 1 0 0
60 3 1 1 -0.014734395132384392 -0.26666668843992714 0 0 0 0
78 4 0.7 2.915451895043732 0.14793386624551008 0.4095417746132357 0 0 0 0
72 4 0.7 2.915451895043732 0.7426129178718144 0.05756756057922896 0 0 0 0
69 4 0.7 2.915451895043732 1.2224219445098772 0.37352957099728545 0 0 0 0
11 1 1.6 0.2441406249999999 2.346072832696078 0.12130607714459707 0 -1 0 0
76 4 0.7 2.915451895043732 4.177507393162938 1.2138085301363049 0 -1 -1 0
59 3 1 1 4.511236939340958 -0.07180902676989209 0 -1 0 0
63 4 0.7 2.915451895043732 -4.180907139474718 0.2923171272173901 0 1 0 0
24 2 1.3 0.4551661356395083 -4.399071612591388 1.027830357116036 0 0 0 0
10 1 1.6 0.2441406249999999 -3.0897832762349124 1.0269196689552613 0 1 0 0
38 2 1.3 0.4551661356395083 -1.639913559079274 1.1816581712325362 0 0 0 0
77 4 0.7 2.915451895043732 -0.6269434580074238 1.1023155067700054 0 0 0 0
1 1 1.6 0.2441406249999999 0.38731305682047523 1.4107751626030582 0 0 -1 0
45 3 1 1 1.543052590543061 1.0053894938236567 0 0 0 0
31 2 1.3 0.4551661356395083 2.6218318296370304 1.4140626695446228 0 0 0 0
35 2 1.3 0.4551661356395083 3.649069217884562 0.4211002822598866 0 -1 0 0
58 3 1 1 3.5242397945934956 1.4979223508642 0 -1 0 0
16 1 1.6 0.2441406249999999 -3.940460511998374 2.2129065026363666 0 0 0 0
42 3 1 1 4.2856128751181215 1.9243678575429461 0 -1 0 0
9 1 1.6 0.2441406249999999 -2.467883614846816 2.2169270561045105 0 0 0 0
13 1 1.6 0.2441406249999999 -1.0036550208368675 2.3605041270534617 0 0 0 0
54 3 1 1 1.7113059503999768 1.9161888806994956 0 0 0 0
70 4 0.7 2.915451895043732 0.9253610669154897 2.411804364701572 0 0 0 0
46 3 1 1 2.092236754858795 2.799657685695771 0 0 0 0
27 2 1.3 0.4551661356395083 3.0780064232847817 2.4681582326026703 0 -1 0 0
55 3 1 1 -4.428032158140247 3.2631812879875026 0 0 0 0
32 2 1.3 0.4551661356395083 -1.7184314196158557 3.5371640326804217 0 0 0 0
56 3 1 1 0.2515688309534463 2.6582287521447547 0 0 0 0
26 2 1.3 0.4551661356395083 -0.4536989082059062 3.6572338179838484 0 0 0 0
21 2 1.3 0.4551661356395083 0.7559899087788438 3.7241873768594465 0 -1 -1 0
80 4 0.7 2.915451895043732 1.3723497556667006 2.791094844205956 0 1 -1 0
2 1 1.6 0.2441406249999999 2.041629594641508 3.966821828344588 0 -1 0 0
66 4 0.7 2.915451895043732 2.9799307312220398 3.3725259152980565 0 -1 0 0
79 4 0.7 2.915451895043732 3.451146477622463 3.894001241667584 0 0 0 0
33 2 1.3 0.4551661356395083 4.063233648150507 2.9994076460495993 0 0 0 0
68 4 0.7 2.915451895043732 -4.043383643381102 4.019541079201779 0 1 0 0
18 1 1.6 0.2441406249999999 -3.0812791635333805 3.441400969230995 0 0 -1 0
71 4 0.7 2.915451895043732 -1.2782381613918057 4.192739188407914 0 0 -1 0
67 4 0.7 2.915451895043732 -0.018371606239663052 4.333621567807 0 1 0 0
29 2 1.3 0.4551661356395083 3.262735584039759 4.773313436411548 0 0 -1 0
3 1 1.6 0.2441406249999999 4.451163986027431 4.194327444245229 0 0 -1 0

Velocities

52 -0.15894536595005704 0.04057449815874046 0 0 0 0
15 0.110005265824845 0.008894391301813845 0 0 0 0
53 0.013523737699868973 -0.2105858893923082 0 0 0 0
20 -0.12346361978506493 0.12626522205503632 0 0 0 0
14 -0.07060747832501195 -0.10418509062652355 0 0 0 0
7 -0.11738459135875064 -0.1315081746572169 0 0 0 0
25 -0.09238574732693043 0.10452487099381455 0 0 0 0
4 -0.2015342655233944 -0.037224729978321394 0 0 0 0
75 0.04557431928898177 -0.030711581877665376 0 0 0 0
47 -0.1555368106350358 0.04534266288984161 0 0 0 0
12 -0.08451021186545837 -0.09494900932004308 0 0 0 0
19 -0.007642863108229868 -0.013208455931592695 0 0 0 0
8 -0.13364434650484333 -0.06150836653550579 0 0 0 0
73 0.015390752350646953 -0.012187797173438953 0 0 0 0
17 0.062019515801336224 0.06250886674078351 0 0 0 0
37 0.19072306349423082 0.08143902536590208 0 0 0 0
30 0.1013989354227259 -0.0006845015165174956 0 0 0 0
40 0.05066666225533458 -0.07433585021090927 0 0 0 0
50 -0.0041468117411735846 -0.027698754837265135 0 0 0 0
61 -0.10421543029130438 0.05936792663014916 0 0 0 0
41 0.01831300369025369 0.11582948266816188 0 0 0 0
62 -0.09229513019171069 -0.015693709003477177 0 0 0 0
39 -0.10554279984740807 -0.049350019169662376 0 0 0 0
49 0.06899719618087345 0.03565131059764296 0 0 0 0
65 -0.00765369750812614 0.03992378120231252 0 0 0 0
43 0.034551769757844006 -0.01695616831123311 0 0 0 0
34 0.014922760131042571 0.09911823500323444 0 0 0 0
22 0.1531825139182878 -0.07431773875522368 0 0 0 0
44 -0.09204684042175766 -0.07046146109507496 0 0 0 0
48 -0.030614578423876753 0.03127924558731467 0 0 0 0
57 0.01296944814164734 0.033348348399549324 0 0 0 0
64 0.1468200270469198 0.050674253186949195 0 0 0 0
5 0.09845408958786799 0.1221792896950669 0 0 0 0
6 -0.02855702790658854 -0.2087675983749693 0 0 0 0
74 0.07741227030190678 -0.13439859738472185 0 0 0 0
28 0.0675337114534949 0.0010293214704659307 0 0 0 0
23 -0.16974162690618672 0.13011103354073184 0 0 0 0
36 0.06599000749001369 -0.14618611501448622 0 0 0 0
51 0.09296422279474717 0.06753424404665392 0 0 0 0
60 0.08090640630663572 -0.02292637131040312 0 0 0 0
78 -0.19845081364772477 -0.07906760918280013 0 0 0 0
72 0.05408432335120379 0.0715964946372672 0 0 0 0
69 -0.07659347490654822 0.005113423531364409 0 0 0 0
11 -0.00786630344270413 0.03339792784583112 0 0 0 0
76 -0.2767028555816451 0.0333042383276662 0 0 0 0
59 0.06688731935130496 -0.0463685090179507 0 0 0 0
63 0.08632833259660815 -0.1942226741050824 0 0 0 0
24 -0.01898070160625231 -0.11013788673381975 0 0 0 0
10 -0.08626988317908497 0.008307553552526903 0 0 0 0
38 -0.053312481544391874 -0.10329245539227523 0 0 0 0
77 0.33800158806537545 0.0448311632465772 0 0 0 0
1 -0.13575439100924913 -0.05518027315209777 0 0 0 0
45 0.05540837501043569 -0.1392071667066709 0 0 0 0
31 0.06869770793654026 0.03498018379597719 0 0 0 0
35 0.04457459822404863 0.21610488124272065 0 0 0 0
58 -0.09145254781367616 -0.003590849021604046 0 0 0 0
16 -0.004869636962325752 0.04212372656418457 0 0 0 0
42 -0.04890749170010466 0.18290572099989855 0 0 0 0
9 0.03470561348934445 0.01782819907488871 0 0 0 0
13 -0.00454636187887009 0.04157448969689591 0 0 0 0
54 0.055672491436894796 0.007117112931587464 0 0 0 0
70 -0.11664379882963988 -0.023353733831531092 0 0 0 0
46 -0.06622080296843998 -0.0021448968655461403 0 0 0 0
27 -0.030050317402636997 0.08759571055380103 0 0 0 0
55 -0.18867161245469233 -0.03851347039037433 0 0 0 0
32 -0.06377917410465464 -0.01701991419013526 0 0 0 0
56 0.1490796726750297 0.14542129134643797 0 0 0 0
26 0.1011041374155424 -0.06236881564522117 0 0 0 0
21 -0.003271491305063683 0.1596058183795442 0 0 0 0
80 0.16482636706568973 0.004422514605005421 0 0 0 0
2 0.17661597871348167 -0.04714068219916266 0 0 0 0
66 0.044723357259611345 -0.12351896726852236 0 0 0 0
79 -0.019885728537312995 0.050236638503265166 0 0 0 0
33 0.148076869081912 0.057533218361353444 0 0 0 0
68 0.17547914953429308 -0.15170074200478076 0 0 0 0
18 0.12451014085828659 -0.13219080841773231 0 0 0 0
71 -0.018438189602303805 0.005969131010312602 0 0 0 0
67 0.16692527125033016 0.0410905840161561 0 0 0 0
29 -0.2825071330622781 0.07191765277113944 0 0 0 0
3 -0.004376537094931816 0.2482917500732852 0 0 0 0
