LAMMPS data file.

     27 atoms
     52 bonds
      0 angles
      0 dihedrals
      0 impropers
      1 atom types
     52 bond types
      0 angle types
      0 dihedral types
      0 improper types
  -4.816686   4.816686 xlo xhi
  -4.816686   4.816686 ylo yhi
  -0.100000   0.100000 zlo zhi

Masses # ['atom_id', 'mass']

1 10000.0

Atoms # ['atomID', 'moleculeID', 'atomType', 'charge', 'x', 'y', 'z']

     15      1      1   0.000000  -3.684384  -4.754281   0.000000
     53      1      1   0.000000  -2.880324  -3.754403   0.000000
     20      1      1   0.000000  -2.229836   4.763777   0.000000
     14      1      1   0.000000  -0.690307  -4.471134   0.000000
     47      1      1   0.000000  -3.739903  -3.486089   0.000000
     12      1      1   0.000000  -1.846488  -3.477770   0.000000
     37      1      1   0.000000  -4.145647  -2.298806   0.000000
     30      1      1   0.000000  -3.252808  -1.424010   0.000000
     40      1      1   0.000000  -3.050699  -2.660236   0.000000
     50      1      1   0.000000  -2.199509  -2.048048   0.000000
     61      1      1   0.000000  -1.572483  -2.422651   0.000000
     41      1      1   0.000000  -0.885931  -2.612749   0.000000
     34      1      1   0.000000  -4.385474  -1.173448   0.000000
     22      1      1   0.000000  -2.236387  -0.939063   0.000000
     44      1      1   0.000000  -1.089081  -1.750036   0.000000
     28      1      1   0.000000  -3.471828  -0.319024   0.000000
     23      1      1   0.000000  -2.031638   0.034735   0.000000
     36      1      1   0.000000  -1.074300  -0.640813   0.000000
     10      1      1   0.000000  -3.089783   1.026920   0.000000
     38      1      1   0.000000  -1.639914   1.181658   0.000000
     16      1      1   0.000000  -3.940461   2.212907   0.000000
      9      1      1   0.000000  -2.467884   2.216927   0.000000
     13      1      1   0.000000  -1.003655   2.360504   0.000000
     32      1      1   0.000000  -1.718431   3.537164   0.000000
     26      1      1   0.000000  -0.453699   3.657234   0.000000
     18      1      1   0.000000  -3.081279   3.441401   0.000000
     71      1      1   0.000000  -1.278238   4.192739   0.000000

Bond Coeffs # ['bondID', 'bondCoeff', 'd']

      1   0.527584   1.376748
      2   0.909671   1.048475
      3   1.233246   0.900482
      4   0.461148   1.472582
      5   0.864277   1.075656
      6   0.461983   1.471251
      7   0.639063   1.250916
      8   0.554669   1.342712
      9   0.640029   1.249972
     10   0.395426   1.590258
     11   0.777852   1.133839
     12   0.504043   1.408531
     13   0.533165   1.369522
     14   0.395426   1.590258
     15   0.777852   1.133839
     16   0.598468   1.292645
     17   0.812616   1.109321
     18   1.034521   0.983174
     19   0.469702   1.459112
     20   0.469702   1.459112
     21   0.637307   1.252638
     22   0.841498   1.090118
     23   0.788466   1.126182
     24   0.569050   1.325638
     25   0.694734   1.199750
     26   1.970481   0.712384
     27   0.620581   1.269407
     28   1.009892   0.995090
     29   0.755317   1.150629
     30   0.404264   1.572779
     31   0.752139   1.153058
     32   1.457539   0.828304
     33   1.874452   0.730403
     34   0.469436   1.459526
     35   1.603723   0.789651
     36   0.873101   1.070207
     37   0.510850   1.399114
     38   0.430381   1.524311
     39   0.619592   1.270419
     40   0.815508   1.107352
     41   0.607434   1.283070
     42   0.811937   1.109785
     43   0.535755   1.366208
     44   0.812211   1.109598
     45   0.566215   1.328952
     46   0.557257   1.339591
     47   0.728405   1.171692
     48   0.680791   1.211974
     49   0.444960   1.499130
     50   1.273004   0.886309
     51   0.743101   1.160048
     52   0.788044   1.126483

Bonds # ['ID', 'type', 'atom1', 'atom2']

         1         1        13        32
         2         2        40        50
         3         3        53        47
         4         4        16         9
         5         5        47        40
         6         6         9        13
         7         7        34        28
         8         8        10         9
         9         9        37        30
        10        10        14        20
        11        11        71        14
        12        12        13        26
        13        13         9        18
        14        14        20        14
        15        15        14        71
        16        16        12        41
        17        17        44        36
        18        18        26        71
        19        19        15        20
        20        20        20        15
        21        21        30        40
        22        22        12        61
        23        23        30        22
        24        24        38         9
        25        25        22        36
        26        26        61        41
        27        27        15        47
        28        28        22        23
        29        29        37        34
        30        30        20        18
        31        31        37        40
        32        32        61        44
        33        33        50        61
        34        34        10        16
        35        35        32        71
        36        36        53        12
        37        37        28        10
        38        38        14        12
        39        39        32        26
        40        40        53        40
        41        41        15        53
        42        42        20        71
        43        43        32        18
        44        44        50        22
        45        45        20        32
        46        46        38        13
        47        47        23        36
        48        48        23        38
        49        49        16        18
        50        50        41        44
        51        51        30        34
        52        52        30        28
