ITEM: TIMESTEP
0
ITEM: NUMBER OF ATOMS
80
ITEM: BOX BOUNDS pp pp pp
-1.0000000000000000e+01 1.0000000000000000e+01
-1.0000000000000000e+01 1.0000000000000000e+01
-1.0000000000000001e-01 1.0000000000000001e-01
ITEM: ATOMS id type xs ys zs
18 1 0.491702 0.0313332 0.5
52 3 0.847208 0.0242643 0.5
74 4 0.924557 0.0378324 0.5
76 4 0.150002 0.0902037 0.5
39 2 0.393116 0.100374 0.5
1 1 0.611953 0.10152 0.5
29 2 0.839179 0.0870222 0.5
43 3 0.994768 0.0736684 0.5
73 4 0.968886 0.0661661 0.5
40 2 0.146673 0.127265 0.5
47 3 0.32154 0.117467 0.5
25 2 0.754573 0.113991 0.5
63 4 0.833946 0.130841 0.5
37 2 0.207304 0.158681 0.5
7 1 0.48362 0.19704 0.5
17 1 0.705134 0.19534 0.5
28 2 0.0521366 0.259453 0.5
5 1 0.74982 0.21861 0.5
21 2 0.0132856 0.291418 0.5
42 3 0.130616 0.266375 0.5
55 3 0.229029 0.296608 0.5
41 3 0.39735 0.26735 0.5
22 2 0.496894 0.303662 0.5
58 3 0.480591 0.289592 0.5
78 4 0.582392 0.265841 0.5
44 3 0.801529 0.302989 0.5
60 3 0.839608 0.291853 0.5
20 1 0.897561 0.308786 0.5
64 4 0.217252 0.360936 0.5
30 2 0.294422 0.34955 0.5
45 3 0.43234 0.331517 0.5
71 4 0.487495 0.329713 0.5
4 1 0.845799 0.345913 0.5
10 1 0.941533 0.34169 0.5
35 2 0.288476 0.408708 0.5
3 1 0.932433 0.408964 0.5
50 3 0.216721 0.429624 0.5
48 3 0.524926 0.435752 0.5
6 1 0.951653 0.42974 0.5
51 3 0.964982 0.451553 0.5
80 4 0.965932 0.427435 0.5
11 1 0.00961029 0.520139 0.5
32 2 0.0285906 0.522942 0.5
66 4 0.12938 0.493485 0.5
27 2 0.271821 0.503041 0.5
59 3 0.290921 0.516932 0.5
19 1 0.552003 0.516302 0.5
34 2 0.765662 0.476615 0.5
23 2 0.34733 0.573689 0.5
49 3 0.757039 0.561222 0.5
61 4 0.275278 0.598822 0.5
69 4 0.684633 0.622638 0.5
57 3 0.00819137 0.672276 0.5
68 4 0.387912 0.63583 0.5
56 3 0.621507 0.67106 0.5
36 2 0.72783 0.631721 0.5
67 4 0.747703 0.637815 0.5
65 4 0.157775 0.726402 0.5
70 4 0.653044 0.71022 0.5
38 2 0.767403 0.736694 0.5
72 4 0.860517 0.714036 0.5
24 2 0.359775 0.74096 0.5
77 4 0.45676 0.762795 0.5
16 1 0.0163508 0.808039 0.5
62 4 0.318427 0.798032 0.5
33 2 0.480206 0.822178 0.5
31 2 0.835772 0.823051 0.5
79 4 0.961672 0.820672 0.5
2 1 0.283089 0.872322 0.5
26 2 0.304806 0.880378 0.5
46 3 0.937281 0.889248 0.5
8 1 0.203303 0.916942 0.5
12 1 0.303142 0.903628 0.5
14 1 0.465872 0.904853 0.5
54 3 0.773603 0.940223 0.5
53 3 0.916697 0.929439 0.5
9 1 0.0767528 0.984749 0.5
75 4 0.0965652 0.971278 0.5
13 1 0.549888 0.966758 0.5
15 1 0.921756 0.955146 0.5
ITEM: TIMESTEP
10
ITEM: NUMBER OF ATOMS
80
ITEM: BOX BOUNDS pp pp pp
-9.2584988280012936e+00 9.2584988280012936e+00
-9.2584988280012936e+00 9.2584988280012936e+00
-1.0000000000000001e-01 1.0000000000000001e-01
ITEM: ATOMS id type xs ys zs
18 1 0.491702 0.0313332 0.5
52 3 0.847208 0.0242643 0.5
74 4 0.924557 0.0378324 0.5
76 4 0.150007 0.090155 0.5
39 2 0.393116 0.100374 0.5
1 1 0.611953 0.10152 0.5
29 2 0.839182 0.0869986 0.5
43 3 0.994825 0.0736847 0.5
73 4 0.96883 0.0661498 0.5
40 2 0.146668 0.127314 0.5
47 3 0.32154 0.117467 0.5
25 2 0.754573 0.113991 0.5
63 4 0.833943 0.130865 0.5
37 2 0.207304 0.158681 0.5
7 1 0.48362 0.19704 0.5
17 1 0.705036 0.195289 0.5
28 2 0.0521802 0.259417 0.5
5 1 0.749918 0.218662 0.5
21 2 0.013242 0.291454 0.5
42 3 0.130616 0.266375 0.5
55 3 0.229029 0.296608 0.5
41 3 0.39735 0.26735 0.5
22 2 0.497024 0.303671 0.5
58 3 0.480488 0.289497 0.5
78 4 0.582392 0.265841 0.5
44 3 0.80148 0.30299 0.5
60 3 0.839622 0.291794 0.5
20 1 0.897556 0.308698 0.5
64 4 0.217252 0.360936 0.5
30 2 0.294424 0.349526 0.5
45 3 0.43234 0.331517 0.5
71 4 0.487468 0.3298 0.5
4 1 0.845764 0.346002 0.5
10 1 0.941615 0.3417 0.5
35 2 0.288473 0.408732 0.5
3 1 0.932206 0.408801 0.5
50 3 0.216721 0.429624 0.5
48 3 0.524926 0.435752 0.5
6 1 0.95155 0.429781 0.5
51 3 0.965082 0.451782 0.5
80 4 0.966156 0.427376 0.5
11 1 0.00941546 0.52011 0.5
32 2 0.0287855 0.522971 0.5
66 4 0.12938 0.493485 0.5
27 2 0.27172 0.502967 0.5
59 3 0.291023 0.517006 0.5
19 1 0.552003 0.516302 0.5
34 2 0.765662 0.476615 0.5
23 2 0.34733 0.573689 0.5
49 3 0.757039 0.561222 0.5
61 4 0.275278 0.598822 0.5
69 4 0.684609 0.622634 0.5
57 3 0.00819137 0.672276 0.5
68 4 0.387912 0.63583 0.5
56 3 0.621507 0.67106 0.5
36 2 0.727749 0.631694 0.5
67 4 0.747806 0.637847 0.5
65 4 0.157775 0.726402 0.5
70 4 0.653044 0.71022 0.5
38 2 0.767403 0.736694 0.5
72 4 0.860517 0.714036 0.5
24 2 0.359775 0.74096 0.5
77 4 0.45676 0.762795 0.5
16 1 0.0163585 0.808038 0.5
62 4 0.318427 0.798032 0.5
33 2 0.480206 0.822178 0.5
31 2 0.835772 0.823051 0.5
79 4 0.961664 0.820674 0.5
2 1 0.282832 0.872124 0.5
26 2 0.304991 0.88026 0.5
46 3 0.937291 0.88923 0.5
8 1 0.203303 0.916942 0.5
12 1 0.303214 0.903944 0.5
14 1 0.465872 0.904853 0.5
54 3 0.773603 0.940223 0.5
53 3 0.91666 0.929316 0.5
9 1 0.0766499 0.984819 0.5
75 4 0.0966682 0.971208 0.5
13 1 0.549888 0.966758 0.5
15 1 0.921784 0.955288 0.5
ITEM: TIMESTEP
20
ITEM: NUMBER OF ATOMS
80
ITEM: BOX BOUNDS pp pp pp
-8.3327868437814061e+00 8.3327868437814061e+00
-8.3327868437814061e+00 8.3327868437814061e+00
-1.0000000000000001e-01 1.0000000000000001e-01
ITEM: ATOMS id type xs ys zs
18 1 0.491695 0.031341 0.5
52 3 0.847209 0.0242589 0.5
74 4 0.924557 0.0378324 0.5
76 4 0.150024 0.0899664 0.5
39 2 0.393116 0.100374 0.5
1 1 0.611953 0.10152 0.5
29 2 0.839194 0.0868994 0.5
43 3 0.995034 0.0737454 0.5
73 4 0.968621 0.0660892 0.5
40 2 0.146634 0.127494 0.5
47 3 0.32154 0.117467 0.5
25 2 0.754573 0.113991 0.5
63 4 0.833931 0.130969 0.5
37 2 0.207321 0.158689 0.5
7 1 0.48362 0.19704 0.5
17 1 0.704668 0.195098 0.5
28 2 0.0523521 0.259276 0.5
5 1 0.750286 0.218853 0.5
21 2 0.0130701 0.291595 0.5
42 3 0.130616 0.266375 0.5
55 3 0.229029 0.296608 0.5
41 3 0.39735 0.26735 0.5
22 2 0.49749 0.303694 0.5
58 3 0.480119 0.289138 0.5
78 4 0.582392 0.265841 0.5
44 3 0.801267 0.302976 0.5
60 3 0.839659 0.29155 0.5
20 1 0.897569 0.308363 0.5
64 4 0.217252 0.360936 0.5
30 2 0.294435 0.349416 0.5
45 3 0.43234 0.331517 0.5
71 4 0.487372 0.330135 0.5
4 1 0.845639 0.346379 0.5
10 1 0.941931 0.341708 0.5
35 2 0.288462 0.408842 0.5
3 1 0.931369 0.408229 0.5
50 3 0.216721 0.429624 0.5
48 3 0.524926 0.435752 0.5
6 1 0.951186 0.429934 0.5
51 3 0.965454 0.45262 0.5
80 4 0.966957 0.427164 0.5
11 1 0.00872604 0.520009 0.5
32 2 0.0294749 0.523073 0.5
66 4 0.12938 0.493485 0.5
27 2 0.271355 0.502702 0.5
59 3 0.291388 0.517271 0.5
19 1 0.552003 0.516302 0.5
34 2 0.765662 0.476615 0.5
23 2 0.34733 0.573689 0.5
49 3 0.757039 0.561222 0.5
61 4 0.275278 0.598822 0.5
69 4 0.684506 0.622612 0.5
57 3 0.00819137 0.672276 0.5
68 4 0.387912 0.63583 0.5
56 3 0.621507 0.67106 0.5
36 2 0.727481 0.631602 0.5
67 4 0.748178 0.637961 0.5
65 4 0.157775 0.726402 0.5
70 4 0.653044 0.71022 0.5
38 2 0.767403 0.736694 0.5
72 4 0.860517 0.714036 0.5
24 2 0.359775 0.74096 0.5
77 4 0.45676 0.762795 0.5
16 1 0.0164129 0.808025 0.5
62 4 0.318427 0.798032 0.5
33 2 0.480206 0.822177 0.5
31 2 0.835772 0.823051 0.5
79 4 0.96161 0.820686 0.5
2 1 0.281917 0.871418 0.5
26 2 0.305647 0.879839 0.5
46 3 0.937338 0.889126 0.5
8 1 0.203302 0.916943 0.5
12 1 0.303475 0.905069 0.5
14 1 0.465872 0.904854 0.5
54 3 0.773603 0.940223 0.5
53 3 0.916517 0.928894 0.5
9 1 0.0762806 0.98507 0.5
75 4 0.0970374 0.970957 0.5
13 1 0.549895 0.96675 0.5
15 1 0.921879 0.955814 0.5
ITEM: TIMESTEP
30
ITEM: NUMBER OF ATOMS
80
ITEM: BOX BOUNDS pp pp pp
-7.6395716590824065e+00 7.6395716590824065e+00
-7.6395716590824065e+00 7.6395716590824065e+00
-1.0000000000000001e-01 1.0000000000000001e-01
ITEM: ATOMS id type xs ys zs
18 1 0.491641 0.0314002 0.5
52 3 0.847215 0.0242096 0.5
74 4 0.924557 0.0378324 0.5
76 4 0.150059 0.0895725 0.5
39 2 0.393116 0.100374 0.5
1 1 0.611953 0.10152 0.5
29 2 0.839217 0.0867068 0.5
43 3 0.995455 0.0738675 0.5
73 4 0.968199 0.065967 0.5
40 2 0.146514 0.127844 0.5
47 3 0.32154 0.117467 0.5
25 2 0.754573 0.113991 0.5
63 4 0.833902 0.131211 0.5
37 2 0.207406 0.158733 0.5
7 1 0.48362 0.19704 0.5
17 1 0.703929 0.194713 0.5
28 2 0.0527163 0.258976 0.5
5 1 0.751025 0.219238 0.5
21 2 0.0127144 0.291889 0.5
42 3 0.130616 0.266375 0.5
55 3 0.229029 0.296608 0.5
41 3 0.39735 0.26735 0.5
22 2 0.498406 0.303723 0.5
58 3 0.479394 0.288414 0.5
78 4 0.582392 0.265841 0.5
44 3 0.800781 0.302919 0.5
60 3 0.839701 0.291006 0.5
20 1 0.897661 0.307674 0.5
64 4 0.217252 0.360936 0.5
30 2 0.294463 0.349146 0.5
45 3 0.432338 0.331518 0.5
71 4 0.487183 0.330829 0.5
4 1 0.845392 0.347227 0.5
10 1 0.942583 0.341641 0.5
35 2 0.288435 0.409112 0.5
3 1 0.929699 0.40715 0.5
50 3 0.216721 0.429624 0.5
48 3 0.524926 0.435752 0.5
6 1 0.950493 0.430286 0.5
51 3 0.966193 0.454272 0.5
80 4 0.968517 0.42675 0.5
11 1 0.00740671 0.519818 0.5
32 2 0.0307971 0.523268 0.5
66 4 0.12938 0.493485 0.5
27 2 0.270647 0.502187 0.5
59 3 0.292096 0.517786 0.5
19 1 0.552003 0.516302 0.5
34 2 0.765662 0.476615 0.5
23 2 0.34733 0.573689 0.5
49 3 0.757039 0.561222 0.5
61 4 0.275278 0.598822 0.5
69 4 0.684262 0.622561 0.5
57 3 0.00819137 0.672276 0.5
68 4 0.387912 0.63583 0.5
56 3 0.621502 0.671054 0.5
36 2 0.727 0.63143 0.5
67 4 0.748902 0.638183 0.5
65 4 0.157775 0.726402 0.5
70 4 0.653049 0.710227 0.5
38 2 0.767403 0.736694 0.5
72 4 0.860517 0.714036 0.5
24 2 0.359775 0.74096 0.5
77 4 0.45676 0.762795 0.5
16 1 0.016571 0.807989 0.5
62 4 0.318427 0.798032 0.5
33 2 0.48021 0.822152 0.5
31 2 0.835772 0.823051 0.5
79 4 0.961452 0.820723 0.5
2 1 0.280183 0.870038 0.5
26 2 0.306915 0.879026 0.5
46 3 0.937464 0.888832 0.5
8 1 0.203265 0.916964 0.5
12 1 0.303976 0.907242 0.5
14 1 0.465867 0.904879 0.5
54 3 0.773603 0.940223 0.5
53 3 0.916219 0.928112 0.5
9 1 0.0755627 0.985558 0.5
75 4 0.0977553 0.970469 0.5
13 1 0.549948 0.966691 0.5
15 1 0.922052 0.956889 0.5
ITEM: TIMESTEP
40
ITEM: NUMBER OF ATOMS
80
ITEM: BOX BOUNDS pp pp pp
-7.1490339836916039e+00 7.1490339836916039e+00
-7.1490339836916039e+00 7.1490339836916039e+00
-1.0000000000000001e-01 1.0000000000000001e-01
ITEM: ATOMS id type xs ys zs
18 1 0.491493 0.0315645 0.5
52 3 0.847234 0.0240635 0.5
74 4 0.924557 0.0378324 0.5
76 4 0.150119 0.0889147 0.5
39 2 0.39313 0.100371 0.5
1 1 0.611953 0.10152 0.5
29 2 0.83925 0.08642 0.5
43 3 0.99614 0.0740661 0.5
73 4 0.967514 0.0657685 0.5
40 2 0.146246 0.128395 0.5
47 3 0.321526 0.11747 0.5
25 2 0.754577 0.113986 0.5
63 4 0.83385 0.131644 0.5
37 2 0.207614 0.158839 0.5
7 1 0.48362 0.19704 0.5
17 1 0.702725 0.194093 0.5
28 2 0.0533296 0.258471 0.5
5 1 0.752226 0.219863 0.5
21 2 0.0121628 0.29235 0.5
42 3 0.130617 0.266375 0.5
55 3 0.229029 0.296608 0.5
41 3 0.39735 0.26735 0.5
22 2 0.499893 0.303736 0.5
58 3 0.478249 0.287236 0.5
78 4 0.582392 0.265841 0.5
44 3 0.799926 0.302791 0.5
60 3 0.839728 0.290059 0.5
20 1 0.897885 0.306519 0.5
64 4 0.217252 0.360936 0.5
30 2 0.294512 0.34865 0.5
45 3 0.432294 0.331537 0.5
71 4 0.486884 0.331975 0.5
4 1 0.844944 0.348707 0.5
10 1 0.943672 0.341425 0.5
35 2 0.288394 0.409605 0.5
3 1 0.927026 0.405529 0.5
50 3 0.216712 0.429627 0.5
48 3 0.524924 0.435744 0.5
6 1 0.949413 0.430942 0.5
51 3 0.967351 0.456855 0.5
80 4 0.970976 0.426085 0.5
11 1 0.00537918 0.519571 0.5
32 2 0.0328608 0.523573 0.5
66 4 0.12938 0.493485 0.5
27 2 0.26953 0.501375 0.5
59 3 0.293213 0.518598 0.5
19 1 0.552006 0.51631 0.5
34 2 0.765662 0.476615 0.5
23 2 0.347331 0.57369 0.5
49 3 0.757041 0.561219 0.5
61 4 0.275278 0.598822 0.5
69 4 0.683822 0.622469 0.5
57 3 0.00819137 0.672276 0.5
68 4 0.387912 0.63583 0.5
56 3 0.621471 0.671016 0.5
36 2 0.726295 0.631174 0.5
67 4 0.750047 0.638535 0.5
65 4 0.157775 0.726402 0.5
70 4 0.65308 0.710265 0.5
38 2 0.767403 0.736694 0.5
72 4 0.860517 0.714036 0.5
24 2 0.359775 0.74096 0.5
77 4 0.456755 0.762783 0.5
16 1 0.0168889 0.807915 0.5
62 4 0.318427 0.798032 0.5
33 2 0.480234 0.822058 0.5
31 2 0.835772 0.823051 0.5
79 4 0.961134 0.820796 0.5
2 1 0.277543 0.867839 0.5
26 2 0.308913 0.877745 0.5
46 3 0.937709 0.888246 0.5
8 1 0.203106 0.917046 0.5
12 1 0.304777 0.91064 0.5
14 1 0.46584 0.90498 0.5
54 3 0.773603 0.940223 0.5
53 3 0.915715 0.926931 0.5
9 1 0.0744292 0.986329 0.5
75 4 0.0988888 0.969698 0.5
13 1 0.550105 0.966532 0.5
15 1 0.922311 0.958656 0.5
ITEM: TIMESTEP
50
ITEM: NUMBER OF ATOMS
80
ITEM: BOX BOUNDS pp pp pp
-6.8222041501054465e+00 6.8222041501054465e+00
-6.8222041501054465e+00 6.8222041501054465e+00
-1.0000000000000001e-01 1.0000000000000001e-01
ITEM: ATOMS id type xs ys zs
18 1 0.491211 0.031878 0.5
52 3 0.847271 0.0237751 0.5
74 4 0.924558 0.037845 0.5
76 4 0.150207 0.087962 0.5
39 2 0.393192 0.100356 0.5
1 1 0.611953 0.10152 0.5
29 2 0.839305 0.0860454 0.5
43 3 0.997111 0.0743476 0.5
73 4 0.966543 0.065487 0.5
40 2 0.14578 0.129158 0.5
47 3 0.321463 0.117485 0.5
25 2 0.75459 0.113949 0.5
63 4 0.833772 0.132302 0.5
37 2 0.207991 0.159029 0.5
7 1 0.48362 0.197031 0.5
17 1 0.700997 0.193249 0.5
28 2 0.0542053 0.257732 0.5
5 1 0.753927 0.220749 0.5
21 2 0.0114367 0.292966 0.5
42 3 0.130637 0.266378 0.5
55 3 0.229029 0.296608 0.5
41 3 0.39735 0.26735 0.5
22 2 0.502026 0.303709 0.5
58 3 0.476674 0.285566 0.5
78 4 0.582392 0.265841 0.5
44 3 0.798642 0.302573 0.5
60 3 0.83972 0.288649 0.5
20 1 0.898266 0.304793 0.5
64 4 0.217252 0.360936 0.5
30 2 0.294589 0.347884 0.5
45 3 0.432132 0.331609 0.5
71 4 0.486487 0.333609 0.5
4 1 0.844187 0.350885 0.5
10 1 0.945267 0.341008 0.5
35 2 0.288368 0.410356 0.5
3 1 0.923347 0.403477 0.5
50 3 0.216661 0.429641 0.5
48 3 0.524908 0.435697 0.5
6 1 0.947906 0.431954 0.5
51 3 0.968915 0.460335 0.5
80 4 0.974369 0.425143 0.5
11 1 0.00267706 0.519369 0.5
32 2 0.0356953 0.52399 0.5
66 4 0.12938 0.493485 0.5
27 2 0.267981 0.50025 0.5
59 3 0.294744 0.519707 0.5
19 1 0.552022 0.516357 0.5
34 2 0.765662 0.476615 0.5
23 2 0.347348 0.573707 0.5
49 3 0.757053 0.56119 0.5
61 4 0.275278 0.598822 0.5
69 4 0.683141 0.622327 0.5
57 3 0.00819137 0.672276 0.5
68 4 0.387912 0.63583 0.5
56 3 0.621397 0.670923 0.5
36 2 0.725372 0.630854 0.5
67 4 0.751638 0.639025 0.5
65 4 0.157775 0.726402 0.5
70 4 0.653154 0.710357 0.5
38 2 0.767403 0.736694 0.5
72 4 0.860517 0.714036 0.5
24 2 0.359777 0.740958 0.5
77 4 0.456733 0.762728 0.5
16 1 0.017407 0.807795 0.5
62 4 0.318427 0.798031 0.5
33 2 0.480298 0.821871 0.5
31 2 0.835772 0.823051 0.5
79 4 0.960616 0.820916 0.5
2 1 0.274015 0.864772 0.5
26 2 0.311681 0.875972 0.5
46 3 0.938101 0.887301 0.5
8 1 0.202723 0.917232 0.5
12 1 0.305919 0.915297 0.5
14 1 0.465746 0.905183 0.5
54 3 0.773603 0.940223 0.5
53 3 0.914976 0.925355 0.5
9 1 0.072858 0.987397 0.5
75 4 0.10046 0.96863 0.5
13 1 0.55044 0.966257 0.5
15 1 0.922657 0.961165 0.5
ITEM: TIMESTEP
60
ITEM: NUMBER OF ATOMS
80
ITEM: BOX BOUNDS pp pp pp
-6.6035238466481774e+00 6.6035238466481774e+00
-6.6035238466481774e+00 6.6035238466481774e+00
-1.0000000000000001e-01 1.0000000000000001e-01
ITEM: ATOMS id type xs ys zs
18 1 0.490768 0.032369 0.5
52 3 0.847329 0.0233121 0.5
74 4 0.924552 0.0379076 0.5
76 4 0.150327 0.0867057 0.5
39 2 0.393332 0.100323 0.5
1 1 0.611953 0.10152 0.5
29 2 0.839409 0.0855897 0.5
43 3 0.998371 0.0747126 0.5
73 4 0.965291 0.0651266 0.5
40 2 0.145084 0.130128 0.5
47 3 0.321324 0.117519 0.5
25 2 0.754605 0.113859 0.5
63 4 0.833664 0.133203 0.5
37 2 0.208568 0.159316 0.5
7 1 0.483625 0.196976 0.5
17 1 0.698721 0.192207 0.5
28 2 0.0553203 0.256745 0.5
5 1 0.756124 0.221883 0.5
21 2 0.0105727 0.29371 0.5
42 3 0.130711 0.266386 0.5
55 3 0.229022 0.296602 0.5
41 3 0.397348 0.267347 0.5
22 2 0.504831 0.303628 0.5
58 3 0.474685 0.283445 0.5
78 4 0.582392 0.265841 0.5
44 3 0.796918 0.302272 0.5
60 3 0.839659 0.286757 0.5
20 1 0.898812 0.302419 0.5
64 4 0.217252 0.360936 0.5
30 2 0.294703 0.34683 0.5
45 3 0.4318 0.331758 0.5
71 4 0.486001 0.335722 0.5
4 1 0.843033 0.353761 0.5
10 1 0.947405 0.340374 0.5
35 2 0.288391 0.41136 0.5
3 1 0.918745 0.401156 0.5
50 3 0.216537 0.429674 0.5
48 3 0.524868 0.435577 0.5
6 1 0.945952 0.433339 0.5
51 3 0.970836 0.464589 0.5
80 4 0.97865 0.423915 0.5
11 1 0.999387 0.519331 0.5
32 2 0.0392775 0.524513 0.5
66 4 0.12938 0.493485 0.5
27 2 0.266005 0.49884 0.5
59 3 0.296652 0.521076 0.5
19 1 0.552062 0.516477 0.5
34 2 0.765662 0.476614 0.5
23 2 0.347409 0.57377 0.5
49 3 0.75709 0.561111 0.5
61 4 0.275278 0.598822 0.5
69 4 0.682194 0.622132 0.5
57 3 0.00819137 0.672276 0.5
68 4 0.387912 0.635831 0.5
56 3 0.621264 0.670759 0.5
36 2 0.724249 0.630503 0.5
67 4 0.753672 0.639652 0.5
65 4 0.157775 0.726402 0.5
70 4 0.653287 0.710522 0.5
38 2 0.767403 0.736694 0.5
72 4 0.860517 0.714036 0.5
24 2 0.35979 0.74094 0.5
77 4 0.456685 0.762606 0.5
16 1 0.0181474 0.807624 0.5
62 4 0.318433 0.798021 0.5
33 2 0.480418 0.821581 0.5
31 2 0.835772 0.823051 0.5
79 4 0.959875 0.821087 0.5
2 1 0.269669 0.860873 0.5
26 2 0.315202 0.873721 0.5
46 3 0.938661 0.885965 0.5
8 1 0.202046 0.917557 0.5
12 1 0.307403 0.92115 0.5
14 1 0.465544 0.905501 0.5
54 3 0.773603 0.940223 0.5
53 3 0.913981 0.923417 0.5
9 1 0.0708579 0.988757 0.5
75 4 0.10246 0.96727 0.5
13 1 0.551012 0.96586 0.5
15 1 0.923091 0.964371 0.5
ITEM: TIMESTEP
70
ITEM: NUMBER OF ATOMS
80
ITEM: BOX BOUNDS pp pp pp
-6.4734347649399178e+00 6.4734347649399178e+00
-6.4734347649399178e+00 6.4734347649399178e+00
-1.0000000000000001e-01 1.0000000000000001e-01
ITEM: ATOMS id type xs ys zs
18 1 0.490154 0.0330494 0.5
52 3 0.847399 0.0226658 0.5
74 4 0.924525 0.0380526 0.5
76 4 0.15048 0.0851588 0.5
39 2 0.393568 0.100266 0.5
1 1 0.611953 0.10152 0.5
29 2 0.83958 0.085065 0.5
43 3 0.9999 0.0751558 0.5
73 4 0.963792 0.0647038 0.5
40 2 0.144142 0.131289 0.5
47 3 0.321088 0.117575 0.5
25 2 0.754617 0.113696 0.5
63 4 0.833527 0.134346 0.5
37 2 0.209357 0.159701 0.5
7 1 0.483636 0.196831 0.5
17 1 0.695915 0.191004 0.5
28 2 0.0566375 0.255515 0.5
5 1 0.758766 0.223221 0.5
21 2 0.00962031 0.294545 0.5
42 3 0.130865 0.266404 0.5
55 3 0.228991 0.296578 0.5
41 3 0.397338 0.267327 0.5
22 2 0.508279 0.303492 0.5
58 3 0.472319 0.28096 0.5
78 4 0.582392 0.265841 0.5
44 3 0.794791 0.301924 0.5
60 3 0.839531 0.284404 0.5
20 1 0.899516 0.299373 0.5
64 4 0.217252 0.360936 0.5
30 2 0.294869 0.345503 0.5
45 3 0.43128 0.332005 0.5
71 4 0.485438 0.33826 0.5
4 1 0.841432 0.357275 0.5
10 1 0.950084 0.33954 0.5
35 2 0.288493 0.412574 0.5
3 1 0.913369 0.398739 0.5
50 3 0.216311 0.429719 0.5
48 3 0.524796 0.435365 0.5
6 1 0.943561 0.435083 0.5
51 3 0.97304 0.469411 0.5
80 4 0.983701 0.422417 0.5
11 1 0.995626 0.519575 0.5
32 2 0.0435377 0.525128 0.5
66 4 0.12938 0.493485 0.5
27 2 0.263638 0.497217 0.5
59 3 0.298876 0.522652 0.5
19 1 0.552133 0.516689 0.5
34 2 0.765664 0.476598 0.5
23 2 0.347536 0.573897 0.5
49 3 0.757157 0.560977 0.5
61 4 0.275278 0.598822 0.5
69 4 0.680969 0.621881 0.5
57 3 0.00819137 0.672276 0.5
68 4 0.387919 0.63584 0.5
56 3 0.621066 0.670513 0.5
36 2 0.722959 0.63015 0.5
67 4 0.756117 0.640406 0.5
65 4 0.157775 0.726402 0.5
70 4 0.653485 0.710767 0.5
38 2 0.767403 0.736694 0.5
72 4 0.860517 0.714036 0.5
24 2 0.359825 0.740892 0.5
77 4 0.456602 0.762398 0.5
16 1 0.0191139 0.807401 0.5
62 4 0.31845 0.797995 0.5
33 2 0.480607 0.821185 0.5
31 2 0.835772 0.823051 0.5
79 4 0.958909 0.82131 0.5
2 1 0.264623 0.85624 0.5
26 2 0.319405 0.871045 0.5
46 3 0.939396 0.884251 0.5
8 1 0.201047 0.918042 0.5
12 1 0.309193 0.928048 0.5
14 1 0.465207 0.905939 0.5
54 3 0.773603 0.940223 0.5
53 3 0.912728 0.921167 0.5
9 1 0.068466 0.990383 0.5
75 4 0.104852 0.965644 0.5
13 1 0.551858 0.965345 0.5
15 1 0.92362 0.968159 0.5
ITEM: TIMESTEP
80
ITEM: NUMBER OF ATOMS
80
ITEM: BOX BOUNDS pp pp pp
-6.4196573237130172e+00 6.4196573237130172e+00
-6.4196573237130172e+00 6.4196573237130172e+00
-1.0000000000000001e-01 1.0000000000000001e-01
ITEM: ATOMS id type xs ys zs
18 1 0.489373 0.0339128 0.5
52 3 0.847455 0.0218493 0.5
74 4 0.924462 0.0383071 0.5
76 4 0.150667 0.0833572 0.5
39 2 0.393906 0.100186 0.5
1 1 0.611948 0.101513 0.5
29 2 0.839826 0.0844902 0.5
43 3 0.00165932 0.0756657 0.5
73 4 0.962102 0.0642405 0.5
40 2 0.142958 0.132613 0.5
47 3 0.320749 0.117656 0.5
25 2 0.75462 0.113455 0.5
63 4 0.833363 0.135711 0.5
37 2 0.210354 0.160179 0.5
7 1 0.483659 0.196559 0.5
17 1 0.692646 0.189688 0.5
28 2 0.0581077 0.254062 0.5
5 1 0.761769 0.22469 0.5
21 2 0.00865008 0.295421 0.5
42 3 0.131118 0.266437 0.5
55 3 0.228922 0.296524 0.5
41 3 0.397305 0.26728 0.5
22 2 0.512279 0.303318 0.5
58 3 0.469648 0.27823 0.5
78 4 0.582392 0.265841 0.5
44 3 0.79233 0.30158 0.5
60 3 0.839326 0.281658 0.5
20 1 0.900349 0.295689 0.5
64 4 0.217252 0.360938 0.5
30 2 0.295099 0.343938 0.5
45 3 0.430589 0.332355 0.5
71 4 0.484811 0.341133 0.5
4 1 0.839377 0.361305 0.5
10 1 0.953254 0.33857 0.5
35 2 0.288699 0.413948 0.5
3 1 0.90744 0.396386 0.5
50 3 0.215955 0.429753 0.5
48 3 0.524691 0.435051 0.5
6 1 0.94078 0.437138 0.5
51 3 0.975438 0.474534 0.5
80 4 0.989327 0.420695 0.5
11 1 0.991534 0.520205 0.5
32 2 0.0483592 0.525811 0.5
66 4 0.12938 0.493485 0.5
27 2 0.260949 0.495481 0.5
59 3 0.301332 0.524366 0.5
19 1 0.552239 0.517003 0.5
34 2 0.765668 0.476554 0.5
23 2 0.347746 0.574099 0.5
49 3 0.757259 0.560795 0.5
61 4 0.275272 0.598824 0.5
69 4 0.679476 0.621576 0.5
57 3 0.00819137 0.672276 0.5
68 4 0.387938 0.635869 0.5
56 3 0.620802 0.670185 0.5
36 2 0.72155 0.629818 0.5
67 4 0.758913 0.641269 0.5
65 4 0.157775 0.726402 0.5
70 4 0.653749 0.711095 0.5
38 2 0.767403 0.736694 0.5
72 4 0.860517 0.714036 0.5
24 2 0.359888 0.740805 0.5
77 4 0.45648 0.762097 0.5
16 1 0.0202903 0.807129 0.5
62 4 0.318483 0.797929 0.5
33 2 0.480868 0.820689 0.5
31 2 0.835772 0.823051 0.5
79 4 0.957733 0.821579 0.5
2 1 0.25905 0.851024 0.5
26 2 0.324164 0.868053 0.5
46 3 0.940298 0.882211 0.5
8 1 0.199744 0.918701 0.5
12 1 0.311213 0.935751 0.5
14 1 0.464724 0.906494 0.5
54 3 0.773603 0.940223 0.5
53 3 0.911228 0.918678 0.5
9 1 0.0657488 0.992231 0.5
75 4 0.107569 0.963797 0.5
13 1 0.552982 0.964725 0.5
15 1 0.924263 0.972353 0.5
ITEM: TIMESTEP
90
ITEM: NUMBER OF ATOMS
80
ITEM: BOX BOUNDS pp pp pp
-6.4263060398512604e+00 6.4263060398512604e+00
-6.4263060398512604e+00 6.4263060398512604e+00
-1.0000000000000001e-01 1.0000000000000001e-01
ITEM: ATOMS id type xs ys zs
18 1 0.488445 0.0349365 0.5
52 3 0.847478 0.0208833 0.5
74 4 0.924348 0.0386911 0.5
76 4 0.150884 0.0813532 0.5
39 2 0.394343 0.100081 0.5
1 1 0.611918 0.101482 0.5
29 2 0.840148 0.0838882 0.5
43 3 0.00359594 0.0762268 0.5
73 4 0.960285 0.0637607 0.5
40 2 0.141556 0.134063 0.5
47 3 0.320313 0.11776 0.5
25 2 0.754613 0.11315 0.5
63 4 0.833175 0.137265 0.5
37 2 0.211539 0.160733 0.5
7 1 0.483699 0.196146 0.5
17 1 0.689026 0.188319 0.5
28 2 0.0596771 0.252419 0.5
5 1 0.765007 0.226188 0.5
21 2 0.00774195 0.296285 0.5
42 3 0.131477 0.266488 0.5
55 3 0.228807 0.296433 0.5
41 3 0.397225 0.267199 0.5
22 2 0.516691 0.303118 0.5
58 3 0.466773 0.275397 0.5
78 4 0.582393 0.265841 0.5
44 3 0.789621 0.301287 0.5
60 3 0.839058 0.278635 0.5
20 1 0.901266 0.291459 0.5
64 4 0.217251 0.360944 0.5
30 2 0.295395 0.342183 0.5
45 3 0.429769 0.332793 0.5
71 4 0.484133 0.344223 0.5
4 1 0.836903 0.365683 0.5
10 1 0.95681 0.337562 0.5
35 2 0.289021 0.415422 0.5
3 1 0.901212 0.394206 0.5
50 3 0.215457 0.429753 0.5
48 3 0.524552 0.434639 0.5
6 1 0.937691 0.439434 0.5
51 3 0.977951 0.479676 0.5
80 4 0.995289 0.418815 0.5
11 1 0.987248 0.521303 0.5
32 2 0.0535974 0.526538 0.5
66 4 0.12938 0.493485 0.5
27 2 0.258023 0.493727 0.5
59 3 0.303927 0.526143 0.5
19 1 0.552377 0.517415 0.5
34 2 0.765676 0.476477 0.5
23 2 0.34805 0.574383 0.5
49 3 0.757396 0.560572 0.5
61 4 0.275259 0.598829 0.5
69 4 0.677736 0.621224 0.5
57 3 0.00819137 0.672276 0.5
68 4 0.387972 0.635922 0.5
56 3 0.620478 0.669782 0.5
36 2 0.720075 0.629523 0.5
67 4 0.761983 0.642216 0.5
65 4 0.157775 0.726402 0.5
70 4 0.654073 0.711499 0.5
38 2 0.767403 0.736694 0.5
72 4 0.860517 0.714036 0.5
24 2 0.35998 0.740677 0.5
77 4 0.456321 0.761702 0.5
16 1 0.0216442 0.806817 0.5
62 4 0.318533 0.797807 0.5
33 2 0.481202 0.820108 0.5
31 2 0.835772 0.823051 0.5
79 4 0.956386 0.821868 0.5
2 1 0.253152 0.845412 0.5
26 2 0.32932 0.864873 0.5
46 3 0.941346 0.879944 0.5
8 1 0.198196 0.919531 0.5
12 1 0.31336 0.943962 0.5
14 1 0.464096 0.907154 0.5
54 3 0.773603 0.940223 0.5
53 3 0.90951 0.916032 0.5
9 1 0.0627915 0.994241 0.5
75 4 0.110526 0.961786 0.5
13 1 0.554363 0.964016 0.5
15 1 0.92503 0.976748 0.5
ITEM: TIMESTEP
100
ITEM: NUMBER OF ATOMS
80
ITEM: BOX BOUNDS pp pp pp
-6.4698188153286305e+00 6.4698188153286305e+00
-6.4698188153286305e+00 6.4698188153286305e+00
-1.0000000000000001e-01 1.0000000000000001e-01
ITEM: ATOMS id type xs ys zs
18 1 0.487396 0.0360894 0.5
52 3 0.84745 0.019789 0.5
74 4 0.924173 0.0392179 0.5
76 4 0.151129 0.0792035 0.5
39 2 0.394863 0.099957 0.5
1 1 0.611852 0.101408 0.5
29 2 0.840537 0.0832821 0.5
43 3 0.00565152 0.0768262 0.5
73 4 0.958405 0.0632867 0.5
40 2 0.13997 0.135599 0.5
47 3 0.319792 0.117884 0.5
25 2 0.754595 0.112803 0.5
63 4 0.832968 0.138967 0.5
37 2 0.21288 0.161347 0.5
7 1 0.483766 0.195597 0.5
17 1 0.685175 0.186951 0.5
28 2 0.0612968 0.250623 0.5
5 1 0.768354 0.227609 0.5
21 2 0.00696113 0.297086 0.5
42 3 0.131942 0.26656 0.5
55 3 0.228646 0.296305 0.5
41 3 0.39708 0.267085 0.5
22 2 0.521353 0.302904 0.5
58 3 0.463789 0.272566 0.5
78 4 0.582407 0.265833 0.5
44 3 0.786751 0.301089 0.5
60 3 0.838747 0.275464 0.5
20 1 0.902228 0.286804 0.5
64 4 0.217249 0.360954 0.5
30 2 0.295753 0.34029 0.5
45 3 0.428863 0.333294 0.5
71 4 0.483424 0.347437 0.5
4 1 0.834064 0.370224 0.5
10 1 0.960612 0.336632 0.5
35 2 0.289464 0.416946 0.5
3 1 0.894877 0.392208 0.5
50 3 0.214819 0.429701 0.5
48 3 0.524385 0.434142 0.5
6 1 0.934392 0.441885 0.5
51 3 0.980563 0.484619 0.5
80 4 1.00139 0.416866 0.5
11 1 0.982871 0.522924 0.5
32 2 0.0591074 0.527285 0.5
66 4 0.12938 0.493485 0.5
27 2 0.254942 0.492036 0.5
59 3 0.306575 0.527915 0.5
19 1 0.552544 0.517912 0.5
34 2 0.765687 0.476367 0.5
23 2 0.348452 0.574759 0.5
49 3 0.757564 0.560319 0.5
61 4 0.27524 0.598835 0.5
69 4 0.675779 0.620828 0.5
57 3 0.00819137 0.672276 0.5
68 4 0.388023 0.636 0.5
56 3 0.620102 0.669316 0.5
36 2 0.718586 0.629275 0.5
67 4 0.76525 0.643223 0.5
65 4 0.157775 0.726402 0.5
70 4 0.654449 0.711965 0.5
38 2 0.767403 0.736694 0.5
72 4 0.860517 0.714036 0.5
24 2 0.360101 0.74051 0.5
77 4 0.456124 0.761221 0.5
16 1 0.0231358 0.806472 0.5
62 4 0.31859 0.797626 0.5
33 2 0.481604 0.819461 0.5
31 2 0.835772 0.823051 0.5
79 4 0.954912 0.822149 0.5
2 1 0.24713 0.839597 0.5
26 2 0.334711 0.86163 0.5
46 3 0.942512 0.877565 0.5
8 1 0.196487 0.92052 0.5
12 1 0.315522 0.952379 0.5
14 1 0.46334 0.907905 0.5
54 3 0.773603 0.940223 0.5
53 3 0.907609 0.913307 0.5
9 1 0.0596831 0.996353 0.5
75 4 0.113637 0.959671 0.5
13 1 0.555963 0.96324 0.5
15 1 0.925924 0.981154 0.5
ITEM: TIMESTEP
110
ITEM: NUMBER OF ATOMS
80
ITEM: BOX BOUNDS pp pp pp
-6.5231100789772238e+00 6.5231100789772238e+00
-6.5231100789772238e+00 6.5231100789772238e+00
-1.0000000000000001e-01 1.0000000000000001e-01
ITEM: ATOMS id type xs ys zs
18 1 0.486255 0.0373408 0.5
52 3 0.847361 0.0185817 0.5
74 4 0.923927 0.0398979 0.5
76 4 0.151395 0.0769558 0.5
39 2 0.395453 0.0998164 0.5
1 1 0.611738 0.101278 0.5
29 2 0.840982 0.0826915 0.5
43 3 0.00776946 0.0774671 0.5
73 4 0.956517 0.0628443 0.5
40 2 0.138235 0.137191 0.5
47 3 0.319202 0.118025 0.5
25 2 0.754565 0.11243 0.5
63 4 0.832745 0.140784 0.5
37 2 0.214349 0.162003 0.5
7 1 0.483867 0.194919 0.5
17 1 0.681195 0.185621 0.5
28 2 0.0629316 0.248702 0.5
5 1 0.771711 0.228879 0.5
21 2 0.00635332 0.297781 0.5
42 3 0.132509 0.266656 0.5
55 3 0.228439 0.296146 0.5
41 3 0.396856 0.266943 0.5
22 2 0.526134 0.302694 0.5
58 3 0.460768 0.269806 0.5
78 4 0.582455 0.265804 0.5
44 3 0.783785 0.301022 0.5
60 3 0.838405 0.272263 0.5
20 1 0.903203 0.28185 0.5
64 4 0.217247 0.360965 0.5
30 2 0.296169 0.338298 0.5
45 3 0.427897 0.333837 0.5
71 4 0.482705 0.350714 0.5
4 1 0.830886 0.374772 0.5
10 1 0.964551 0.335884 0.5
35 2 0.290025 0.41848 0.5
3 1 0.888561 0.390343 0.5
50 3 0.214049 0.42958 0.5
48 3 0.524194 0.433575 0.5
6 1 0.930977 0.444416 0.5
51 3 0.983298 0.489237 0.5
80 4 0.0074996 0.414907 0.5
11 1 0.978447 0.525095 0.5
32 2 0.0647705 0.528036 0.5
66 4 0.129383 0.493484 0.5
27 2 0.251768 0.490465 0.5
59 3 0.309207 0.529628 0.5
19 1 0.552735 0.51848 0.5
34 2 0.7657 0.476228 0.5
23 2 0.348952 0.575235 0.5
49 3 0.757759 0.560043 0.5
61 4 0.275218 0.598843 0.5
69 4 0.673629 0.620395 0.5
57 3 0.00819137 0.672276 0.5
68 4 0.388089 0.636102 0.5
56 3 0.619686 0.668799 0.5
36 2 0.717128 0.629077 0.5
67 4 0.76865 0.644269 0.5
65 4 0.157775 0.726402 0.5
70 4 0.654865 0.712482 0.5
38 2 0.767403 0.736694 0.5
72 4 0.860517 0.714036 0.5
24 2 0.360247 0.740309 0.5
77 4 0.455893 0.760662 0.5
16 1 0.024729 0.806104 0.5
62 4 0.318635 0.79739 0.5
33 2 0.482066 0.818765 0.5
31 2 0.835772 0.823051 0.5
79 4 0.953348 0.822395 0.5
2 1 0.241126 0.833693 0.5
26 2 0.340206 0.85842 0.5
46 3 0.943777 0.875149 0.5
8 1 0.194695 0.921653 0.5
12 1 0.317634 0.960796 0.5
14 1 0.462475 0.908734 0.5
54 3 0.773603 0.940223 0.5
53 3 0.905554 0.91056 0.5
9 1 0.0565043 0.998502 0.5
75 4 0.116831 0.957499 0.5
13 1 0.55774 0.962415 0.5
15 1 0.92694 0.985434 0.5
ITEM: TIMESTEP
120
ITEM: NUMBER OF ATOMS
80
ITEM: BOX BOUNDS pp pp pp
-6.5600670708335675e+00 6.5600670708335675e+00
-6.5600670708335675e+00 6.5600670708335675e+00
-1.0000000000000001e-01 1.0000000000000001e-01
ITEM: ATOMS id type xs ys zs
18 1 0.485046 0.038664 0.5
52 3 0.847206 0.0172663 0.5
74 4 0.923594 0.0407424 0.5
76 4 0.151679 0.0746416 0.5
39 2 0.396093 0.0996661 0.5
1 1 0.611567 0.101079 0.5
29 2 0.841475 0.0821309 0.5
43 3 0.0099092 0.0781607 0.5
73 4 0.95467 0.0624743 0.5
40 2 0.136377 0.138817 0.5
47 3 0.318556 0.118179 0.5
25 2 0.754517 0.112046 0.5
63 4 0.832508 0.142696 0.5
37 2 0.215923 0.162691 0.5
7 1 0.48401 0.194113 0.5
17 1 0.677159 0.184352 0.5
28 2 0.0645621 0.246671 0.5
5 1 0.775011 0.229944 0.5
21 2 0.00594741 0.298332 0.5
42 3 0.133175 0.266778 0.5
55 3 0.228186 0.295959 0.5
41 3 0.39654 0.266782 0.5
22 2 0.530936 0.302507 0.5
58 3 0.45776 0.267154 0.5
78 4 0.582556 0.26574 0.5
44 3 0.780757 0.301111 0.5
60 3 0.838043 0.269101 0.5
20 1 0.904173 0.276696 0.5
64 4 0.217245 0.360976 0.5
30 2 0.296636 0.336236 0.5
45 3 0.426888 0.334403 0.5
71 4 0.481994 0.354017 0.5
4 1 0.827359 0.379238 0.5
10 1 0.968544 0.335408 0.5
35 2 0.290702 0.420002 0.5
3 1 0.882355 0.388533 0.5
50 3 0.213154 0.429376 0.5
48 3 0.523985 0.43295 0.5
6 1 0.927526 0.446969 0.5
51 3 0.98621 0.493496 0.5
80 4 0.0135607 0.412961 0.5