ITEM: TIMESTEP
250
ITEM: NUMBER OF ATOMS
66
ITEM: BOX BOUNDS pp pp pp
-4.8209232798108523e+00 4.8209232798108523e+00
-4.8215171047165990e+00 4.8215171047165990e+00
-1.0000000000000001e-01 1.0000000000000001e-01
ITEM: ATOMS id type xs ys zs
2 1 0.133615 0.0579841 0.500418
68 1 0.477776 0.0721312 0.500149
77 1 0.535466 0.0566673 0.50009
62 1 0.5736 0.00970995 0.499756
12 1 0.6784 0.0814167 0.500649
29 1 0.846173 0.0250778 0.500816
48 1 0.964789 0.0721404 0.501362
24 1 0.0340597 0.158454 0.499928
28 1 0.188713 0.171018 0.499141
30 1 0.0917597 0.259704 0.500023
78 1 0.279531 0.174945 0.500523
66 1 0.334507 0.221746 0.500515
7 1 0.38917 0.141453 0.500013
15 1 0.550605 0.166674 0.500403
51 1 0.79842 0.124227 0.500415
26 1 0.908832 0.165937 0.499892
43 1 0.0294749 0.331182 0.500758
18 1 0.242354 0.283346 0.500578
71 1 0.383075 0.26147 0.499209
54 1 0.456186 0.285385 0.499541
20 1 0.587924 0.313882 0.499589
32 1 0.788751 0.226428 0.500034
9 1 0.910708 0.310737 0.499716
75 1 0.995405 0.24168 0.500176
11 1 0.982249 0.444202 0.499846
3 1 0.137722 0.390914 0.499402
47 1 0.254226 0.39932 0.499821
39 1 0.363162 0.352482 0.500596
63 1 0.54773 0.427654 0.500459
60 1 0.669463 0.386156 0.499174
37 1 0.784092 0.357028 0.499188
6 1 0.15418 0.555027 0.49916
35 1 0.288216 0.495723 0.500702
25 1 0.417387 0.480964 0.5004
45 1 0.478041 0.381926 0.500161
59 1 0.618217 0.470427 0.499775
31 1 0.720175 0.47093 0.499426
36 1 0.833845 0.508558 0.499807
76 1 0.919903 0.539278 0.500349
17 1 0.358868 0.610997 0.500388
56 1 0.513232 0.501983 0.500524
34 1 0.573161 0.596963 0.49872
21 1 0.698506 0.577729 0.49968
16 1 0.845791 0.650879 0.500004
58 1 0.969289 0.608767 0.499827
4 1 0.237663 0.696147 0.499405
27 1 0.371197 0.754155 0.500236
23 1 0.471076 0.682324 0.500416
19 1 0.713985 0.71342 0.500275
74 1 0.874923 0.76248 0.499291
8 1 0.997405 0.735133 0.499431
13 1 0.223874 0.839868 0.499731
38 1 0.382575 0.86978 0.500529
10 1 0.510412 0.814724 0.500981
14 1 0.683297 0.870121 0.500151
42 1 0.799272 0.800898 0.500038
52 1 0.900741 0.82042 0.49956
80 1 0.975625 0.851884 0.500363
5 1 0.0702431 0.899411 0.5
50 1 0.190376 0.958815 0.500221
33 1 0.293021 0.955014 0.499998
1 1 0.466553 0.972139 0.499545
55 1 0.564198 0.926782 0.500314
57 1 0.755185 0.972362 0.500205
40 1 0.840002 0.902732 0.500595
22 1 0.944144 0.965058 0.500159
ITEM: TIMESTEP
500
ITEM: NUMBER OF ATOMS
66
ITEM: BOX BOUNDS pp pp pp
-4.8197179911370434e+00 4.8197179911370434e+00
-4.8238763381789243e+00 4.8238763381789243e+00
-1.0000000000000001e-01 1.0000000000000001e-01
ITEM: ATOMS id type xs ys zs
2 1 0.135588 0.0587529 0.499766
68 1 0.476811 0.0719859 0.500323
77 1 0.534412 0.056775 0.49807
62 1 0.573104 0.0100994 0.500054
12 1 0.678512 0.0808675 0.500092
29 1 0.846687 0.0249384 0.502172
48 1 0.964352 0.0717801 0.502942
24 1 0.0344779 0.158096 0.499994
28 1 0.189114 0.171466 0.499133
30 1 0.0923223 0.259666 0.498842
78 1 0.280005 0.175586 0.499076
66 1 0.335299 0.222117 0.499315
7 1 0.389041 0.142065 0.500696
15 1 0.550559 0.166367 0.499639
51 1 0.798625 0.124243 0.500075
26 1 0.908978 0.165772 0.49889
43 1 0.0299463 0.331098 0.500846
18 1 0.242718 0.284298 0.502593
71 1 0.383707 0.261852 0.500216
54 1 0.456638 0.286608 0.499639
20 1 0.58811 0.313967 0.49927
32 1 0.788865 0.226311 0.500912
9 1 0.911213 0.310285 0.499206
75 1 0.995966 0.2412 0.501396
11 1 0.981603 0.444379 0.499823
3 1 0.138159 0.391246 0.497886
47 1 0.254883 0.400132 0.500645
39 1 0.363563 0.352999 0.5012
63 1 0.548264 0.42927 0.501444
60 1 0.66936 0.386396 0.49703
37 1 0.784475 0.35697 0.497575
6 1 0.15297 0.555946 0.498052
35 1 0.287664 0.496388 0.500294
25 1 0.416869 0.481529 0.500367
45 1 0.478943 0.383117 0.50035
59 1 0.619043 0.471104 0.500703
31 1 0.721188 0.47054 0.499386
36 1 0.834185 0.509769 0.500418
76 1 0.920125 0.540524 0.499524
17 1 0.358464 0.611017 0.501099
56 1 0.512436 0.502488 0.500101
34 1 0.572513 0.597187 0.497453
21 1 0.697765 0.577185 0.499439
16 1 0.846173 0.650688 0.500577
58 1 0.969642 0.610163 0.500335
4 1 0.237977 0.695872 0.497832
27 1 0.371049 0.754674 0.501284
23 1 0.47052 0.682399 0.501215
19 1 0.714212 0.713479 0.499022
74 1 0.874457 0.762488 0.497968
8 1 0.998318 0.736328 0.500579
13 1 0.224391 0.839392 0.500004
38 1 0.382379 0.869917 0.501552
10 1 0.510364 0.815214 0.501969
14 1 0.682292 0.86997 0.502931
42 1 0.798724 0.800892 0.501259
52 1 0.900331 0.820829 0.499097
80 1 0.975505 0.852628 0.501161
5 1 0.0698278 0.899163 0.499402
50 1 0.190234 0.958771 0.500036
33 1 0.293298 0.955092 0.500727
1 1 0.466366 0.971853 0.50122
55 1 0.564125 0.927384 0.500832
57 1 0.755498 0.972354 0.499623
40 1 0.839697 0.902666 0.499196
22 1 0.944269 0.964456 0.501515
ITEM: TIMESTEP
750
ITEM: NUMBER OF ATOMS
66
ITEM: BOX BOUNDS pp pp pp
-4.8185127024632344e+00 4.8185127024632344e+00
-4.8230881713277709e+00 4.8230881713277709e+00
-1.0000000000000001e-01 1.0000000000000001e-01
ITEM: ATOMS id type xs ys zs
2 1 0.13511 0.0593135 0.498793
68 1 0.478154 0.0726495 0.500575
77 1 0.535862 0.0570043 0.499971
62 1 0.574297 0.0105035 0.498461
12 1 0.678591 0.0812176 0.500272
29 1 0.845632 0.0243604 0.501739
48 1 0.965743 0.0720074 0.501477
24 1 0.0355053 0.15846 0.500049
28 1 0.189286 0.172282 0.499183
30 1 0.0923121 0.260136 0.499961
78 1 0.28036 0.1756 0.497336
66 1 0.335362 0.222402 0.500821
7 1 0.38915 0.14144 0.500177
15 1 0.55109 0.16693 0.499259
51 1 0.799622 0.1243 0.498979
26 1 0.910033 0.166396 0.50016
43 1 0.0299088 0.331813 0.502088
18 1 0.243723 0.2844 0.504291
71 1 0.384273 0.26163 0.498758
54 1 0.457042 0.285791 0.500776
20 1 0.587925 0.314354 0.498029
32 1 0.789816 0.226029 0.501077
9 1 0.911245 0.311228 0.500694
75 1 0.995869 0.241083 0.499848
11 1 0.98232 0.444493 0.497508
3 1 0.138556 0.390897 0.499214
47 1 0.254687 0.400346 0.499683
39 1 0.364069 0.352332 0.500371
63 1 0.547453 0.429263 0.501951
60 1 0.669751 0.386322 0.499304
37 1 0.783812 0.356487 0.497202
6 1 0.15323 0.55516 0.499981
35 1 0.288245 0.496219 0.500373
25 1 0.416996 0.479928 0.501057
45 1 0.478904 0.382182 0.501957
59 1 0.618944 0.471047 0.50102
31 1 0.720769 0.470863 0.499589
36 1 0.835192 0.508682 0.500873
76 1 0.920946 0.54048 0.500839
17 1 0.359473 0.610843 0.501493
56 1 0.512327 0.503455 0.501602
34 1 0.573766 0.597749 0.498348
21 1 0.699461 0.577814 0.499511
16 1 0.84624 0.650688 0.500878
58 1 0.970146 0.610695 0.50044
4 1 0.23772 0.695052 0.499247
27 1 0.37051 0.754309 0.499418
23 1 0.471204 0.6835 0.501731
19 1 0.714465 0.713454 0.501389
74 1 0.875607 0.762524 0.499934
8 1 0.997745 0.737342 0.50002
13 1 0.223216 0.83963 0.499713
38 1 0.383077 0.869734 0.499953
10 1 0.511232 0.815294 0.502689
14 1 0.683245 0.869983 0.502321
42 1 0.799482 0.800442 0.501201
52 1 0.900999 0.821057 0.500882
80 1 0.975109 0.854531 0.499402
5 1 0.0701068 0.900133 0.498517
50 1 0.190644 0.959388 0.499566
33 1 0.293156 0.954764 0.502005
1 1 0.467335 0.972229 0.501805
55 1 0.565339 0.927612 0.498337
57 1 0.754403 0.971979 0.49873
40 1 0.839372 0.902796 0.499653
22 1 0.94363 0.964769 0.501955
ITEM: TIMESTEP
1000
ITEM: NUMBER OF ATOMS
66
ITEM: BOX BOUNDS pp pp pp
-4.8173074137894254e+00 4.8173074137894254e+00
-4.8229772866782197e+00 4.8229772866782197e+00
-1.0000000000000001e-01 1.0000000000000001e-01
ITEM: ATOMS id type xs ys zs
2 1 0.135522 0.0589596 0.498632
68 1 0.478265 0.0717968 0.500524
77 1 0.535914 0.0563779 0.50007
62 1 0.574069 0.00961142 0.498204
12 1 0.679164 0.081708 0.499661
29 1 0.846235 0.0247365 0.503759
48 1 0.966722 0.0724033 0.500984
24 1 0.035044 0.159297 0.500674
28 1 0.189734 0.17215 0.497831
30 1 0.092176 0.260138 0.500031
78 1 0.280942 0.174939 0.499072
66 1 0.335163 0.222116 0.50151
7 1 0.38988 0.141278 0.499281
15 1 0.550835 0.166345 0.500583
51 1 0.799149 0.124566 0.49924
26 1 0.909394 0.165434 0.499701
43 1 0.0295835 0.332341 0.502584
18 1 0.243206 0.283952 0.504148
71 1 0.384636 0.260883 0.498781
54 1 0.457679 0.285561 0.501331
20 1 0.589355 0.313134 0.496038
32 1 0.789043 0.225591 0.501098
9 1 0.910751 0.310594 0.501928
75 1 0.995712 0.241851 0.497933
11 1 0.981061 0.444973 0.498078
3 1 0.138912 0.391398 0.49805
47 1 0.255706 0.399196 0.500882
39 1 0.364103 0.351989 0.502387
63 1 0.548021 0.429385 0.501722
60 1 0.669444 0.386543 0.501167
37 1 0.783407 0.356404 0.494179
6 1 0.15301 0.555311 0.499022
35 1 0.287189 0.495974 0.500361
25 1 0.415867 0.480205 0.502889
45 1 0.47919 0.382013 0.501382
59 1 0.61908 0.471223 0.501971
31 1 0.72148 0.470684 0.499555
36 1 0.834978 0.509154 0.498708
76 1 0.920524 0.541567 0.50092
17 1 0.358583 0.610138 0.500485
56 1 0.512096 0.502894 0.502031
34 1 0.573334 0.597042 0.498129
21 1 0.699302 0.577611 0.50272
16 1 0.846052 0.651085 0.50128
58 1 0.969922 0.610372 0.499032
4 1 0.23758 0.695836 0.498714
27 1 0.371393 0.753325 0.499625
23 1 0.471137 0.682203 0.501053
19 1 0.7142 0.713341 0.503045
74 1 0.87569 0.762877 0.5004
8 1 0.998915 0.736607 0.499953
13 1 0.223925 0.839911 0.500684
38 1 0.383432 0.868537 0.499672
10 1 0.511786 0.814306 0.503362
14 1 0.683834 0.870685 0.501231
42 1 0.799606 0.800712 0.499238
52 1 0.901067 0.821469 0.499834
80 1 0.976302 0.853677 0.500109
5 1 0.0704396 0.90166 0.498771
50 1 0.191808 0.959487 0.49866
33 1 0.294053 0.95446 0.501933
1 1 0.467091 0.971697 0.500683
55 1 0.564493 0.92676 0.498578
57 1 0.755147 0.972952 0.498756
40 1 0.840206 0.902596 0.498817
22 1 0.944093 0.965052 0.500841
ITEM: TIMESTEP
1250
ITEM: NUMBER OF ATOMS
66
ITEM: BOX BOUNDS pp pp pp
-4.8161021251156164e+00 4.8161021251156164e+00
-4.8229797785124111e+00 4.8229797785124111e+00
-1.0000000000000001e-01 1.0000000000000001e-01
ITEM: ATOMS id type xs ys zs
2 1 0.134981 0.058761 0.49958
68 1 0.479104 0.0715828 0.499925
77 1 0.536724 0.0562733 0.499768
62 1 0.574698 0.00911026 0.497015
12 1 0.678947 0.0814528 0.499865
29 1 0.8456 0.0249025 0.502435
48 1 0.965818 0.0721883 0.499127
24 1 0.0347428 0.158706 0.50107
28 1 0.189136 0.171635 0.49874
30 1 0.0917225 0.260484 0.50175
78 1 0.280334 0.175049 0.498725
66 1 0.335514 0.220766 0.50261
7 1 0.389355 0.140059 0.50144
15 1 0.550904 0.166837 0.500727
51 1 0.79913 0.124455 0.499692
26 1 0.909339 0.165815 0.499107
43 1 0.0295321 0.332428 0.502992
18 1 0.243206 0.283249 0.503556
71 1 0.383532 0.260897 0.499423
54 1 0.456777 0.285082 0.501401
20 1 0.588845 0.313738 0.496973
32 1 0.788672 0.225715 0.501848
9 1 0.910919 0.310884 0.502638
75 1 0.995207 0.241354 0.498622
11 1 0.980034 0.444999 0.495667
3 1 0.138914 0.391418 0.497246
47 1 0.255454 0.399501 0.501073
39 1 0.36404 0.351754 0.502812
63 1 0.547403 0.428979 0.501016
60 1 0.669313 0.386119 0.500042
37 1 0.784015 0.356729 0.494671
6 1 0.15419 0.555018 0.498922
35 1 0.287734 0.495438 0.500327
25 1 0.416661 0.480412 0.503205
45 1 0.478759 0.381402 0.504379
59 1 0.617988 0.470491 0.502106
31 1 0.72018 0.470545 0.498922
36 1 0.833881 0.509331 0.499422
76 1 0.919049 0.541758 0.500465
17 1 0.359086 0.610182 0.501676
56 1 0.512506 0.503465 0.501985
34 1 0.57319 0.597102 0.497275
21 1 0.698211 0.577018 0.500832
16 1 0.846411 0.651823 0.500538
58 1 0.969241 0.610464 0.498973
4 1 0.237787 0.696024 0.498761
27 1 0.371565 0.754684 0.499393
23 1 0.471253 0.682325 0.50182
19 1 0.71394 0.712867 0.506092
74 1 0.876399 0.76328 0.501249
8 1 0.998402 0.736786 0.498633
13 1 0.224589 0.840443 0.500994
38 1 0.383442 0.870204 0.498211
10 1 0.510885 0.813941 0.503824
14 1 0.68332 0.869268 0.500638
42 1 0.7997 0.800003 0.498848
52 1 0.901483 0.82152 0.498733
80 1 0.976975 0.853766 0.498603
5 1 0.0713154 0.901022 0.500055
50 1 0.191444 0.959782 0.499411
33 1 0.294003 0.956248 0.503449
1 1 0.467507 0.971888 0.500827
55 1 0.564461 0.926394 0.498718
57 1 0.754695 0.971706 0.50131
40 1 0.839027 0.902146 0.499567
22 1 0.94351 0.964964 0.500448
ITEM: TIMESTEP
1500
ITEM: NUMBER OF ATOMS
66
ITEM: BOX BOUNDS pp pp pp
-4.8148968364418074e+00 4.8148968364418074e+00
-4.8191640346058158e+00 4.8191640346058158e+00
-1.0000000000000001e-01 1.0000000000000001e-01
ITEM: ATOMS id type xs ys zs
2 1 0.134981 0.0582091 0.498959
68 1 0.478257 0.0717648 0.500641
77 1 0.535633 0.0564605 0.500613
62 1 0.574117 0.00969332 0.496088
12 1 0.678103 0.0819212 0.501195
29 1 0.845787 0.0245655 0.50463
48 1 0.964342 0.0718273 0.499826
24 1 0.0344113 0.158351 0.501613
28 1 0.188844 0.171091 0.499518
30 1 0.091558 0.260511 0.502853
78 1 0.27994 0.174922 0.498066
66 1 0.33492 0.221974 0.50044
7 1 0.388626 0.140858 0.50256
15 1 0.55003 0.166303 0.501772
51 1 0.798161 0.124212 0.498872
26 1 0.908628 0.166258 0.499316
43 1 0.0298142 0.332925 0.50392
18 1 0.242545 0.28371 0.502927
71 1 0.384736 0.260278 0.50004
54 1 0.457711 0.285586 0.500625
20 1 0.589064 0.313391 0.49962
32 1 0.787969 0.225877 0.502484
9 1 0.910773 0.31083 0.503321
75 1 0.99504 0.241556 0.497557
11 1 0.981513 0.446109 0.494753
3 1 0.138871 0.39178 0.499061
47 1 0.25598 0.399671 0.500072
39 1 0.364187 0.351525 0.503201
63 1 0.548357 0.428404 0.501251
60 1 0.669114 0.386353 0.501579
37 1 0.783407 0.356748 0.494228
6 1 0.152535 0.556543 0.499098
35 1 0.28722 0.496355 0.500149
25 1 0.416544 0.48043 0.50352
45 1 0.479289 0.381955 0.505643
59 1 0.61803 0.471315 0.501589
31 1 0.720231 0.4706 0.498518
36 1 0.833971 0.508429 0.498819
76 1 0.918806 0.541416 0.500942
17 1 0.359108 0.610888 0.500213
56 1 0.512637 0.502167 0.500788
34 1 0.57259 0.597194 0.496511
21 1 0.698427 0.577406 0.498895
16 1 0.84577 0.651292 0.500017
58 1 0.969415 0.609731 0.498968
4 1 0.2373 0.695499 0.497875
27 1 0.370307 0.754532 0.498588
23 1 0.470673 0.682975 0.504224
19 1 0.713832 0.713181 0.505099
74 1 0.877824 0.762523 0.501244
8 1 0.998238 0.736026 0.499256
13 1 0.225052 0.839945 0.500016
38 1 0.382138 0.870163 0.499352
10 1 0.510406 0.815047 0.505773
14 1 0.683465 0.869594 0.500845
42 1 0.800879 0.798783 0.499663
52 1 0.901846 0.821371 0.498984
80 1 0.977001 0.852718 0.496865
5 1 0.0708057 0.901419 0.500477
50 1 0.191117 0.958924 0.502746
33 1 0.294114 0.955729 0.504098
1 1 0.466886 0.971735 0.501676
55 1 0.56482 0.926908 0.499049
57 1 0.754386 0.97276 0.502351
40 1 0.838735 0.901992 0.49945
22 1 0.943419 0.964501 0.501918
ITEM: TIMESTEP
1750
ITEM: NUMBER OF ATOMS
66
ITEM: BOX BOUNDS pp pp pp
-4.8136915477679985e+00 4.8136915477679985e+00
-4.8209147833648300e+00 4.8209147833648300e+00
-1.0000000000000001e-01 1.0000000000000001e-01
ITEM: ATOMS id type xs ys zs
2 1 0.133015 0.0582774 0.50139
68 1 0.477834 0.0718845 0.500492
77 1 0.535701 0.0562056 0.501139
62 1 0.573855 0.00949748 0.496218
12 1 0.678343 0.0808697 0.500066
29 1 0.846289 0.0248205 0.503662
48 1 0.963828 0.072478 0.499742
24 1 0.0339683 0.158571 0.501041
28 1 0.188528 0.171148 0.4997
30 1 0.0914822 0.260145 0.501754
78 1 0.279553 0.175923 0.497769
66 1 0.33516 0.222132 0.502623
7 1 0.388543 0.140616 0.502185
15 1 0.550051 0.16688 0.501168
51 1 0.798864 0.124906 0.498717
26 1 0.908659 0.167424 0.501077
43 1 0.0294131 0.3327 0.50447
18 1 0.242682 0.283579 0.504054
71 1 0.385009 0.260194 0.500393
54 1 0.457856 0.284775 0.500184
20 1 0.589219 0.313332 0.499537
32 1 0.787985 0.226937 0.502539
9 1 0.910639 0.311714 0.504738
75 1 0.994789 0.24158 0.496829
11 1 0.982402 0.446374 0.494622
3 1 0.138805 0.391723 0.496895
47 1 0.255641 0.399857 0.500274
39 1 0.363367 0.350845 0.503158
63 1 0.547482 0.428476 0.501755
60 1 0.669205 0.387209 0.500807
37 1 0.783821 0.357899 0.493477
6 1 0.153008 0.555717 0.496966
35 1 0.287471 0.49626 0.500306
25 1 0.416324 0.479819 0.503079
45 1 0.478372 0.381207 0.504866
59 1 0.61761 0.47164 0.500761
31 1 0.720194 0.471264 0.496341
36 1 0.834243 0.508332 0.499272
76 1 0.919376 0.54098 0.499557
17 1 0.35978 0.610881 0.499894
56 1 0.51257 0.50208 0.501678
34 1 0.572971 0.596263 0.495784
21 1 0.698676 0.577965 0.499472
16 1 0.846707 0.650919 0.498722
58 1 0.970018 0.60941 0.497669
4 1 0.238365 0.696097 0.496842
27 1 0.371671 0.754518 0.499276
23 1 0.471804 0.682915 0.50344
19 1 0.714228 0.713466 0.506881
74 1 0.877219 0.762807 0.501391
8 1 0.998755 0.735561 0.500357
13 1 0.22509 0.840593 0.498029
38 1 0.382892 0.869619 0.49909
10 1 0.511182 0.814631 0.505197
14 1 0.68358 0.86999 0.498621
42 1 0.800804 0.800317 0.498114
52 1 0.901949 0.821418 0.49987
80 1 0.977208 0.852336 0.498694
5 1 0.0711679 0.900686 0.49973
50 1 0.191868 0.960302 0.50231
33 1 0.294766 0.95586 0.503931
1 1 0.466837 0.971705 0.503447
55 1 0.564337 0.926889 0.498848
57 1 0.755403 0.972515 0.503049
40 1 0.839745 0.902334 0.499241
22 1 0.944194 0.964657 0.502251
ITEM: TIMESTEP
2000
ITEM: NUMBER OF ATOMS
66
ITEM: BOX BOUNDS pp pp pp
-4.8124862590941895e+00 4.8124862590941895e+00
-4.8211652052114866e+00 4.8211652052114866e+00
-1.0000000000000001e-01 1.0000000000000001e-01
ITEM: ATOMS id type xs ys zs
2 1 0.134459 0.0586641 0.501253
68 1 0.477415 0.0719377 0.499532
77 1 0.535654 0.0571674 0.501058
62 1 0.573567 0.00998466 0.495988
12 1 0.678422 0.0807653 0.498753
29 1 0.845715 0.0253467 0.504614
48 1 0.965483 0.0731619 0.499108
24 1 0.0348939 0.15972 0.500648
28 1 0.188129 0.171273 0.500197
30 1 0.0914418 0.26101 0.501245
78 1 0.279325 0.175162 0.497821
66 1 0.3346 0.221647 0.501757
7 1 0.38849 0.140773 0.501606
15 1 0.549925 0.167487 0.502188
51 1 0.798646 0.124806 0.499731
26 1 0.909279 0.167014 0.502001
43 1 0.0293816 0.333271 0.503594
18 1 0.241873 0.283732 0.502188
71 1 0.384209 0.259788 0.498774
54 1 0.456914 0.285249 0.502777
20 1 0.589005 0.313583 0.501582
32 1 0.789326 0.226989 0.503441
9 1 0.910675 0.311827 0.504769
75 1 0.995172 0.242453 0.494978
11 1 0.98111 0.446272 0.49445
3 1 0.138208 0.391767 0.496617
47 1 0.254182 0.399565 0.502525
39 1 0.363443 0.351052 0.502644
63 1 0.547483 0.428323 0.49977
60 1 0.669205 0.38688 0.50148
37 1 0.783948 0.358145 0.494337
6 1 0.152786 0.55651 0.498265
35 1 0.286989 0.496348 0.500132
25 1 0.415761 0.480212 0.502348
45 1 0.478705 0.38136 0.50501
59 1 0.61788 0.471015 0.50041
31 1 0.719844 0.471488 0.495468
36 1 0.834038 0.507745 0.500603
76 1 0.918752 0.540721 0.498941
17 1 0.35881 0.610837 0.499349
56 1 0.512333 0.501692 0.501276
34 1 0.572785 0.596386 0.495101
21 1 0.698754 0.577957 0.499207
16 1 0.846459 0.6504 0.499731
58 1 0.970018 0.609153 0.498018
4 1 0.237548 0.695962 0.497333
27 1 0.371082 0.754365 0.498091
23 1 0.470848 0.682217 0.503984
19 1 0.714834 0.713742 0.50621
74 1 0.875829 0.762702 0.501572
8 1 0.99892 0.735464 0.499231
13 1 0.225348 0.840541 0.499822
38 1 0.382944 0.870073 0.498599
10 1 0.510709 0.814871 0.504895
14 1 0.683384 0.870122 0.498648
42 1 0.800031 0.801368 0.496341
52 1 0.901881 0.820989 0.501301
80 1 0.977058 0.852383 0.498245
5 1 0.0710307 0.90092 0.498611
50 1 0.191358 0.959877 0.505689
33 1 0.293937 0.956172 0.503834
1 1 0.466557 0.972135 0.502978
55 1 0.564185 0.927111 0.497675
57 1 0.755455 0.971959 0.503542
40 1 0.840905 0.903087 0.498527
22 1 0.943689 0.966456 0.502317
ITEM: TIMESTEP
2250
ITEM: NUMBER OF ATOMS
66
ITEM: BOX BOUNDS pp pp pp
-4.8112809704203805e+00 4.8112809704203805e+00
-4.8215324835293698e+00 4.8215324835293698e+00
-1.0000000000000001e-01 1.0000000000000001e-01
ITEM: ATOMS id type xs ys zs
2 1 0.132857 0.0572863 0.502272
68 1 0.478224 0.0723617 0.499356
77 1 0.535875 0.0560669 0.50109
62 1 0.573468 0.00886701 0.497532
12 1 0.678975 0.0802704 0.498133
29 1 0.846074 0.0246069 0.504376
48 1 0.964031 0.0725848 0.499758
24 1 0.0341725 0.158828 0.499172
28 1 0.1877 0.170563 0.499722
30 1 0.0912139 0.260636 0.500446
78 1 0.279305 0.175146 0.495818
66 1 0.334197 0.221592 0.502149
7 1 0.389285 0.141571 0.501669
15 1 0.551202 0.166157 0.50313
51 1 0.799364 0.124631 0.498562
26 1 0.909044 0.167334 0.502449
43 1 0.0288627 0.332767 0.503569
18 1 0.241844 0.283455 0.501202
71 1 0.384107 0.259869 0.497617
54 1 0.457205 0.284533 0.502323
20 1 0.587841 0.312982 0.500986
32 1 0.788424 0.226514 0.503675
9 1 0.910284 0.311252 0.505079
75 1 0.99476 0.241819 0.496132
11 1 0.980813 0.445684 0.4924
3 1 0.137993 0.391932 0.495038
47 1 0.254929 0.399587 0.501749
39 1 0.363187 0.350849 0.501384
63 1 0.547182 0.428102 0.499985
60 1 0.668352 0.386497 0.502963
37 1 0.783192 0.356898 0.495862
6 1 0.1526 0.55634 0.49689
35 1 0.287412 0.496138 0.49873
25 1 0.416452 0.480035 0.500747
45 1 0.478144 0.380923 0.505478
59 1 0.617511 0.470839 0.499343
31 1 0.719689 0.470599 0.497561
36 1 0.833619 0.50846 0.499239
76 1 0.918512 0.540937 0.496768
17 1 0.358719 0.610805 0.501589
56 1 0.512833 0.502168 0.502468
34 1 0.573994 0.596559 0.493505
21 1 0.699489 0.577988 0.496815
16 1 0.846551 0.650579 0.499886
58 1 0.970344 0.608324 0.498416
4 1 0.237754 0.695568 0.497882
27 1 0.371345 0.753824 0.498086
23 1 0.471651 0.682197 0.503754
19 1 0.714712 0.713726 0.504652
74 1 0.875477 0.761994 0.505011
8 1 0.999169 0.735686 0.500083
13 1 0.224908 0.839673 0.499452
38 1 0.3823 0.869631 0.499075
10 1 0.510181 0.814684 0.505903
14 1 0.682635 0.869859 0.499666
42 1 0.799868 0.800978 0.498605
52 1 0.901628 0.819899 0.501025
80 1 0.976627 0.852322 0.495575
5 1 0.0709384 0.899764 0.499114
50 1 0.191029 0.959599 0.506047
33 1 0.29381 0.956276 0.503433
1 1 0.466386 0.9723 0.503605
55 1 0.563507 0.926338 0.498011
57 1 0.755582 0.971366 0.504224
40 1 0.841382 0.902345 0.500745
22 1 0.944567 0.96553 0.500971
ITEM: TIMESTEP
2500
ITEM: NUMBER OF ATOMS
66
ITEM: BOX BOUNDS pp pp pp
-4.8100756817465715e+00 4.8100756817465715e+00
-4.8261732009516454e+00 4.8261732009516454e+00
-1.0000000000000001e-01 1.0000000000000001e-01
ITEM: ATOMS id type xs ys zs
2 1 0.133925 0.0575906 0.502002
68 1 0.478239 0.0722734 0.50038
77 1 0.536109 0.0564938 0.50245
62 1 0.573467 0.0092184 0.498239
12 1 0.679077 0.0803658 0.498604
29 1 0.845973 0.0245846 0.503084
48 1 0.964932 0.0717218 0.501336
24 1 0.0343809 0.158282 0.498212
28 1 0.187856 0.170643 0.497619
30 1 0.0908914 0.260085 0.501532
78 1 0.279123 0.174913 0.496459
66 1 0.333902 0.222023 0.502759
7 1 0.389651 0.142894 0.500818
15 1 0.551258 0.166885 0.504154
51 1 0.79885 0.123848 0.498884
26 1 0.908534 0.165891 0.502971
43 1 0.0284238 0.331765 0.503305
18 1 0.24056 0.283217 0.501054
71 1 0.383834 0.259819 0.495822
54 1 0.45627 0.28564 0.501245
20 1 0.58737 0.3147 0.500684
32 1 0.787214 0.225567 0.502769
9 1 0.90929 0.309994 0.506718
75 1 0.994542 0.240962 0.494704
11 1 0.979888 0.444242 0.49201
3 1 0.136779 0.39169 0.495564
47 1 0.25405 0.398862 0.501381
39 1 0.36243 0.350631 0.503476
63 1 0.546733 0.428305 0.499982
60 1 0.668715 0.386516 0.502873
37 1 0.783133 0.355972 0.496239
6 1 0.152684 0.556483 0.495983
35 1 0.286783 0.495631 0.500701
25 1 0.41534 0.480704 0.500864
45 1 0.477432 0.382077 0.505422
59 1 0.617319 0.47028 0.4999
31 1 0.719903 0.470565 0.497185
36 1 0.834447 0.507337 0.498993
76 1 0.91955 0.541257 0.498168
17 1 0.358063 0.611063 0.502082
56 1 0.511545 0.502234 0.502597
34 1 0.573375 0.595644 0.494161
21 1 0.699348 0.577847 0.497068
16 1 0.8459 0.649541 0.499063
58 1 0.970046 0.610073 0.4977
4 1 0.237704 0.696333 0.498381
27 1 0.372607 0.754174 0.497643
23 1 0.471756 0.681402 0.504384
19 1 0.714078 0.713358 0.503875
74 1 0.874931 0.761794 0.504337
8 1 0.999004 0.736679 0.497389
13 1 0.225151 0.839923 0.498235
38 1 0.381292 0.869902 0.496059
10 1 0.508968 0.814609 0.504425
14 1 0.683241 0.869437 0.498948
42 1 0.799278 0.801069 0.498762
52 1 0.900717 0.820144 0.500114
80 1 0.97511 0.85294 0.495881
5 1 0.0703017 0.897943 0.497283
50 1 0.19022 0.958676 0.504866
33 1 0.292982 0.956322 0.503682
1 1 0.466381 0.972329 0.501863
55 1 0.563617 0.926496 0.498363
57 1 0.755066 0.971681 0.503745
40 1 0.840187 0.902328 0.501617
22 1 0.943996 0.964949 0.502255
ITEM: TIMESTEP
2750
ITEM: NUMBER OF ATOMS
66
ITEM: BOX BOUNDS pp pp pp
-4.8088703930727625e+00 4.8088703930727625e+00
-4.8253491862298938e+00 4.8253491862298938e+00
-1.0000000000000001e-01 1.0000000000000001e-01
ITEM: ATOMS id type xs ys zs
2 1 0.133391 0.057542 0.50542
68 1 0.477231 0.0722222 0.500726
77 1 0.534896 0.0569871 0.502806
62 1 0.572311 0.00937014 0.497324
12 1 0.677844 0.0806626 0.498433
29 1 0.845979 0.0247366 0.503867
48 1 0.964 0.0720309 0.500763
24 1 0.0341246 0.158232 0.498555
28 1 0.187785 0.170769 0.497077
30 1 0.0907871 0.259898 0.502637
78 1 0.279299 0.175619 0.49682
66 1 0.333827 0.22264 0.503968
7 1 0.389333 0.143568 0.500219
15 1 0.549948 0.167067 0.505223
51 1 0.798627 0.124045 0.50045
26 1 0.908846 0.166267 0.503421
43 1 0.028642 0.332423 0.502716
18 1 0.240592 0.283831 0.500231
71 1 0.384108 0.25984 0.496735
54 1 0.456909 0.285474 0.500394
20 1 0.587138 0.314054 0.501719
32 1 0.788205 0.226156 0.503262
9 1 0.909688 0.310767 0.50611
75 1 0.994247 0.241085 0.495732
11 1 0.98035 0.445145 0.492613
3 1 0.137452 0.391562 0.495649
47 1 0.253805 0.399468 0.502071
39 1 0.362642 0.350766 0.503284
63 1 0.546779 0.428111 0.500075
60 1 0.668355 0.385898 0.501172
37 1 0.782537 0.355896 0.495096
6 1 0.152769 0.555938 0.495683
35 1 0.286709 0.495557 0.500265
25 1 0.416404 0.480485 0.500181
45 1 0.477069 0.381947 0.507961
59 1 0.617351 0.4708 0.501011
31 1 0.719647 0.470175 0.496669
36 1 0.833868 0.507694 0.5012
76 1 0.91923 0.541255 0.498887
17 1 0.358371 0.611044 0.501906
56 1 0.512576 0.5025 0.501633
34 1 0.573548 0.596793 0.495573
21 1 0.699087 0.577331 0.496425
16 1 0.845519 0.649927 0.499826
58 1 0.969769 0.610024 0.497091
4 1 0.237259 0.696576 0.497303
27 1 0.371732 0.754563 0.499083
23 1 0.470489 0.68113 0.503558
19 1 0.713417 0.712949 0.503902
74 1 0.872877 0.761999 0.50518
8 1 0.997736 0.736273 0.498838
13 1 0.224755 0.840131 0.498033
38 1 0.380957 0.87018 0.496711
10 1 0.508284 0.813949 0.505263
14 1 0.682357 0.869426 0.497903
42 1 0.797572 0.801209 0.496448
52 1 0.899448 0.81986 0.500178
80 1 0.97427 0.853231 0.495914
5 1 0.0695435 0.89864 0.498529
50 1 0.189376 0.958199 0.506102
33 1 0.292635 0.957129 0.504669
1 1 0.464895 0.972324 0.502382
55 1 0.562815 0.926729 0.496355
57 1 0.754805 0.971919 0.50492
40 1 0.83927 0.902748 0.501304
22 1 0.943525 0.964517 0.503553
ITEM: TIMESTEP
3000
ITEM: NUMBER OF ATOMS
66
ITEM: BOX BOUNDS pp pp pp
-4.8076651043989536e+00 4.8076651043989536e+00
-4.8261755701681253e+00 4.8261755701681253e+00
-1.0000000000000001e-01 1.0000000000000001e-01
ITEM: ATOMS id type xs ys zs
2 1 0.133739 0.0575339 0.506473
68 1 0.476317 0.0716622 0.50036
77 1 0.534397 0.0567221 0.501356
62 1 0.572364 0.00962023 0.496453
12 1 0.678001 0.0806591 0.498688
29 1 0.845898 0.0254913 0.5035
48 1 0.965552 0.0721021 0.50145
24 1 0.0347043 0.15867 0.497206
28 1 0.187864 0.17032 0.497234
30 1 0.091239 0.260379 0.501403
78 1 0.278967 0.175588 0.497303
66 1 0.333987 0.222396 0.5049
7 1 0.388358 0.14197 0.500986
15 1 0.549537 0.166916 0.504948
51 1 0.798232 0.124495 0.500639
26 1 0.908915 0.166269 0.503884
43 1 0.0293218 0.332491 0.500401
18 1 0.240722 0.283111 0.500183
71 1 0.384192 0.259802 0.497633
54 1 0.457384 0.284873 0.500028
20 1 0.587585 0.31329 0.500435
32 1 0.787769 0.226746 0.503676
9 1 0.910433 0.310706 0.505014
75 1 0.994883 0.240991 0.495009
11 1 0.980177 0.444856 0.4939
3 1 0.138323 0.391628 0.496037
47 1 0.254545 0.399015 0.501541
39 1 0.362407 0.34999 0.504201
63 1 0.546266 0.42833 0.49885
60 1 0.668871 0.385876 0.499744
37 1 0.783422 0.356557 0.495518
6 1 0.152946 0.55535 0.497101
35 1 0.287139 0.495634 0.499026
25 1 0.416923 0.481187 0.49926
45 1 0.477338 0.381271 0.507656
59 1 0.617107 0.469528 0.500763
31 1 0.719709 0.47051 0.495933
36 1 0.833692 0.506983 0.502309
76 1 0.918949 0.541192 0.498659
17 1 0.357813 0.610677 0.5008
56 1 0.513247 0.503297 0.502724
34 1 0.574072 0.597908 0.494093
21 1 0.699907 0.57746 0.499112
16 1 0.844864 0.649131 0.500899
58 1 0.969197 0.609756 0.497583
4 1 0.236779 0.695154 0.496859
27 1 0.369976 0.75471 0.49991
23 1 0.470046 0.681831 0.502155
19 1 0.71332 0.713037 0.505519
74 1 0.872527 0.761497 0.50578
8 1 0.998731 0.736606 0.498947
13 1 0.224478 0.839628 0.49891
38 1 0.380837 0.870713 0.496486
10 1 0.508421 0.814884 0.503927
14 1 0.682302 0.870204 0.498153
42 1 0.797568 0.801818 0.497229
52 1 0.899342 0.81885 0.500007
80 1 0.973553 0.852435 0.49458
5 1 0.0692938 0.89765 0.49769
50 1 0.189051 0.958264 0.50468
33 1 0.292091 0.95628 0.503049
1 1 0.465137 0.971969 0.501362
55 1 0.562522 0.926891 0.497342
57 1 0.754956 0.972176 0.504425
40 1 0.839705 0.902788 0.500157
22 1 0.94394 0.964983 0.503264
ITEM: TIMESTEP
3250
ITEM: NUMBER OF ATOMS
66
ITEM: BOX BOUNDS pp pp pp
-4.8064598157251437e+00 4.8064598157251437e+00
-4.8236236742420813e+00 4.8236236742420813e+00
-1.0000000000000001e-01 1.0000000000000001e-01
ITEM: ATOMS id type xs ys zs
2 1 0.133125 0.0571267 0.506179
68 1 0.47713 0.0721093 0.500098
77 1 0.534759 0.0561345 0.50164
62 1 0.572919 0.00906207 0.495732
12 1 0.678455 0.0806477 0.496616
29 1 0.846242 0.0251431 0.50314
48 1 0.965416 0.0727487 0.500181
24 1 0.0346409 0.158803 0.496583
28 1 0.187686 0.170096 0.495288
30 1 0.0912982 0.260543 0.502365
78 1 0.279103 0.17554 0.498672
66 1 0.333822 0.222715 0.504511
7 1 0.388282 0.14181 0.501421
15 1 0.550306 0.165684 0.505089
51 1 0.798282 0.12447 0.500545
26 1 0.909062 0.166692 0.503664
43 1 0.0290443 0.332038 0.501544
18 1 0.24048 0.283441 0.49993
71 1 0.384662 0.259484 0.497851
54 1 0.457342 0.285143 0.502021
20 1 0.587604 0.313034 0.501286
32 1 0.787692 0.226309 0.504724
9 1 0.910124 0.310553 0.506671
75 1 0.994487 0.241436 0.496527
11 1 0.980422 0.444826 0.495301
3 1 0.137382 0.391624 0.496295
47 1 0.254048 0.399157 0.500911
39 1 0.362249 0.35007 0.502571
63 1 0.54646 0.427959 0.499497
60 1 0.669096 0.385318 0.5015
37 1 0.783545 0.356928 0.494812
6 1 0.152928 0.555278 0.494778
35 1 0.287763 0.495192 0.499279
25 1 0.417182 0.480979 0.497445
45 1 0.477432 0.38121 0.505901
59 1 0.617412 0.469418 0.500896
31 1 0.719961 0.470137 0.496548
36 1 0.834744 0.506734 0.503035
76 1 0.919083 0.541045 0.499568
17 1 0.357552 0.610626 0.500221
56 1 0.513813 0.502852 0.502265
34 1 0.573259 0.598336 0.494719
21 1 0.698409 0.577507 0.499687
16 1 0.845613 0.648925 0.501974
58 1 0.969711 0.609716 0.497231
4 1 0.236692 0.695458 0.496941
27 1 0.37013 0.753694 0.499297
23 1 0.470428 0.682538 0.501269
19 1 0.714941 0.713186 0.506127
74 1 0.871717 0.762209 0.5052
8 1 0.99741 0.73624 0.499395
13 1 0.224781 0.83953 0.500451
38 1 0.380777 0.870018 0.497963
10 1 0.509539 0.814841 0.504302
14 1 0.682999 0.870084 0.49843
42 1 0.797048 0.802757 0.49641