LAMMPS (23 Jun 2022 - Update 4)
  using 1 OpenMP thread(s) per MPI task
# Compute elastic constant tensor for a crystal
#
# Written by Aidan Thompson (Sandia, athomps@sandia.gov)
#
#  This script uses the following three include files.
#
#   init.mod      (must be modified for different crystal structures)
# 	       	  Define units, deformation parameters and initial
#		  configuration of the atoms and simulation cell.
#
#
#   potential.mod    (must be modified for different pair styles)
# 		     Define pair style and other attributes
#		     not stored in restart file
#
#
#   displace.mod    (displace.mod should not need to be modified)
# 		    Perform positive and negative box displacements
# 		    in direction ${dir} and size ${up}.
# 		    It uses the resultant changes
#		    in stress to compute one
# 		    row of the elastic stiffness tensor
#
#		    Inputs variables:
#		    	   dir = the Voigt deformation component
#		    		    (1,2,3,4,5,6)
#		    Global constants:
#       	    	   up = the deformation magnitude (strain units)
#       		   cfac = conversion from LAMMPS pressure units to
#               	   output units for elastic constants
#
#
#  To run this on a different system, it should only be necessary to
#  modify the files init.mod and potential.mod. In order to calculate
#  the elastic constants correctly, care must be taken to specify
#  the correct units in init.mod (units, cfac and cunits). It is also
#  important to verify that the minimization of energy w.r.t atom
#  positions in the deformed cell is fully converged.
#  One indication of this is that the elastic constants are insensitive
#  to the choice of the variable ${up} in init.mod. Another is to check
#  the final max and two-norm forces reported in the log file. If you know
#  that minimization is not required, you can set maxiter = 0.0 in
#  init.mod.
#



variable dt equal 0.01
variable strain equal 0.05
variable srate equal 1e-4
variable M equal 1000 # averaging time for properties
variable strainsteps equal ${strain}/${dt}/${srate}
variable strainsteps equal 0.05/${dt}/${srate}
variable strainsteps equal 0.05/0.01/${srate}
variable strainsteps equal 0.05/0.01/0.0001


dimension 2
include init.mod
# NOTE: This script can be modified for different atomic structures,
# units, etc. See in.elastic for more info.
#

# Define the finite deformation size. Try several values of this
# variable to verify that results do not depend on it.
variable up equal 1.0e-1

# Define the amount of random jiggle for atoms
# This prevents atoms from staying on saddle points
variable atomjiggle equal 1.0e-6

# Uncomment one of these blocks, depending on what units
# you are using in LAMMPS and for output

# metal units, elastic constants in eV/A^3
#units		metal
#variable cfac equal 6.2414e-7
#variable cunits string eV/A^3

# Choose potential
# metal units, elastic constants in GPa
units		metal
atom_style	full
#pair_style      lj/cut 1.0
#pair_style      yukawa 1.0 2.0
#pair_modify     mix arithmetic
bond_style      harmonic
angle_style     harmonic
dihedral_style  zero
special_bonds   amber
variable cfac equal 1.0e-4
variable cunits string GPa
boundary	p p p

# Need to set mass to something, just to satisfy LAMMPS
#mass 1 1.0e-20
read_data network.lmp
Reading data file ...
  orthogonal box = (-4.821155 -4.821155 -0.1) to (4.821155 4.821155 0.1)
  1 by 1 by 1 MPI processor grid
WARNING: Atom style in data file differs from currently defined atom style (src/read_data.cpp:538)
  reading atoms ...
  66 atoms
WARNING: Bond style in data file differs from currently defined bond style (src/read_data.cpp:630)
  scanning bonds ...
  4 = max bonds/atom
  reading bonds ...
  146 bonds
Finding 1-2 1-3 1-4 neighbors ...
  special bond factors lj:    0        0        0.5     
  special bond factors coul:  0        0        0.8333333333333334
     9 = max # of 1-2 neighbors
    35 = max # of 1-3 neighbors
   205 = max # of 1-4 neighbors
    31 = max # of special neighbors
  special bonds CPU = 0.000 seconds
  read_data CPU = 0.003 seconds

# real units, elastic constants in GPa
#units		real
#variable cfac equal 1.01325e-4
#variable cunits string GPa

# Define minimization parameters
variable etol equal 0.0
variable ftol equal 5.0e-10
variable maxiter equal 100000
variable maxeval equal 20000
variable dmax equal 1.0e-2


include potential.mod
# NOTE: This script can be modified for different pair styles
# See in.elastic for more info.

# Setup neighbor style
neighbor 3.0 nsq
neigh_modify once no every 1 delay 0 check yes
comm_modify cutoff 2.0

# Setup minimization style
min_style	     cg
min_modify	     dmax ${dmax} line quadratic
min_modify	     dmax 0.01 line quadratic

timestep	0.001


# Setup output
thermo		500
thermo_style custom step temp pe ebond eangle edihed press pxx pyy pzz pxy pxz pyz lx ly lz vol
thermo_modify norm no


#change_box all triclinic
comm_modify mode single cutoff 10.0 vel yes
atom_modify sort 0 0



# Compute initial state

#dump rela all atom 1 traj_relax.lmpstrj
fix 3 all box/relax x 0 y 0 # xy 0  #MS comment: relax if the network is periodic
minimize ${etol} ${ftol} ${maxiter} ${maxeval}
minimize 0 ${ftol} ${maxiter} ${maxeval}
minimize 0 5e-10 ${maxiter} ${maxeval}
minimize 0 5e-10 100000 ${maxeval}
minimize 0 5e-10 100000 20000
Neighbor list info ...
  update every 1 steps, delay 0 steps, check yes
  max neighbors/atom: 2000, page size: 100000
  master list distance cutoff = 0
  ghost atom cutoff = 10
  0 neighbor lists, perpetual/occasional/extra = 0 0 0
WARNING: Inconsistent image flags (src/domain.cpp:819)
Per MPI rank memory allocation (min/avg/max) = 8.784 | 8.784 | 8.784 Mbytes
   Step          Temp          PotEng         E_bond        E_angle        E_dihed         Press           Pxx            Pyy            Pzz            Pxy            Pxz            Pyz             Lx             Ly             Lz           Volume    
         0   0              4.3162053e-11  4.3162053e-11  0              0              0.30218348     0.27350142     0.33086554     0              0.080106701    0              0              9.64231        9.64231        0.2            92.974142    
       202   0              4.0563114e-19  4.0563114e-19  0              0              7.427012e-08  -7.4556578e-07  8.9410602e-07  0              1.0818872e-05  0              0              9.6423094      9.6423116      0.2            92.974151    
Loop time of 0.0114344 on 1 procs for 202 steps with 66 atoms

98.4% CPU use with 1 MPI tasks x 1 OpenMP threads

Minimization stats:
  Stopping criterion = force tolerance
  Energy initial, next-to-last, final = 
    4.31620525098876e-11 4.25501700020272e-19 4.05631137012417e-19
  Force two-norm initial, final = 3.8928419e-05 3.8430698e-10
  Force max component initial, final = 1.9200094e-05 9.3271535e-11
  Final line search alpha, max atom move = 1 9.3271535e-11
  Iterations, force evaluations = 202 404

MPI task timing breakdown:
Section |  min time  |  avg time  |  max time  |%varavg| %total
---------------------------------------------------------------
Pair    | 0          | 0          | 0          |   0.0 |  0.00
Bond    | 0.001584   | 0.001584   | 0.001584   |   0.0 | 13.85
Neigh   | 0          | 0          | 0          |   0.0 |  0.00
Comm    | 0.0035605  | 0.0035605  | 0.0035605  |   0.0 | 31.14
Output  | 0          | 0          | 0          |   0.0 |  0.00
Modify  | 0          | 0          | 0          |   0.0 |  0.00
Other   |            | 0.00629    |            |       | 55.01

Nlocal:             66 ave          66 max          66 min
Histogram: 1 0 0 0 0 0 0 0 0 0
Nghost:            567 ave         567 max         567 min
Histogram: 1 0 0 0 0 0 0 0 0 0
Neighs:              0 ave           0 max           0 min
Histogram: 1 0 0 0 0 0 0 0 0 0

Total # of neighbors = 0
Ave neighs/atom = 0
Ave special neighs/atom = 23.424242
Neighbor list builds = 0
Dangerous builds = 0
#dump rela all atom 1 traj_relax.lmpstrj
thermo 100
unfix 3

fix 2d all enforce2d



#dump dump0 all xyz 1000000 cfg0.xyz
#dump_modify dump0 format line "%d %20.10g %20.10g %20.10g"
#minimize ${etol} ${ftol} ${maxiter} ${maxeval}

#undump rela

#write_restart restart.equil

# These formulas define the derivatives w.r.t. strain components
# Constants uses $, variables use v_


timestep        ${dt}
timestep        0.01
variable nsteps equal round(${strainsteps})
variable nsteps equal round(50000)

fix             4 all nve
fix             5 all langevin 0.1 0.1 1 904297
#fix		6 all press/berendsen y  0.0 0.0 1 x 0.0 0.0 10
fix             6 all nph y 0.0 0.0 10 ptemp 0.1 # x 0.0 0.0 10

# For PLUMED2
# fix 22 all plumed plumedfile plumed.dat outfile plumed.out

#fix             6 all nph x 0.0 0.0 10
fix     	9 all deform 1 x erate -${srate} units box remap x
fix     	9 all deform 1 x erate -0.0001 units box remap x

#fix     8 all deform 1 xy erate ${srate} units box remap x



#fix    10 all ave/time

dump 1 all atom 250 deform_dump.lammpstrj


#To avoid flying ice cube phenomenon:
#fix 21 all momentum 100 linear 1 1 1 angular


run  ${nsteps}
run  50000
WARNING: One or more atoms are time integrated more than once (src/modify.cpp:292)
WARNING: Inconsistent image flags (src/domain.cpp:819)
Per MPI rank memory allocation (min/avg/max) = 7.659 | 7.659 | 7.659 Mbytes
   Step          Temp          PotEng         E_bond        E_angle        E_dihed         Press           Pxx            Pyy            Pzz            Pxy            Pxz            Pyz             Lx             Ly             Lz           Volume    
       202   0              4.0563114e-19  4.0563114e-19  0              0              7.427012e-08  -7.4556578e-07  8.9410602e-07  0              1.0818872e-05  0              0              9.6423094      9.6423116      0.2            92.974151    
       300   0.17289863     0.0007931645   0.0007931645   0              0             -30.882816      26.333315     -88.291555      0             -305.09401      0              0              9.6413644      9.6464665      0.2            93.005099    
       400   0.17334234     0.0010263615   0.0010263615   0              0              249.25601      604.51479     -106.20778      0             -498.10655      0              0              9.6404002      9.6455967      0.2            92.987413    
       500   0.19859617     0.0010190484   0.0010190484   0              0             -8.0431466      17.654321     -33.923125      0             -845.26891      0              0              9.639436       9.6477527      0.2            92.998894    
       600   0.18221323     0.0011935049   0.0011935049   0              0              186.5521       456.76438     -83.843325      0             -112.62278      0              0              9.6384718      9.6451313      0.2            92.964326    
       700   0.21307124     0.0011156971   0.0011156971   0              0             -314.24062     -489.32534     -139.3861       0             -35.729586      0              0              9.6375075      9.6490421      0.2            92.992715    
       800   0.23066487     0.0013213578   0.0013213578   0              0              178.3926       382.40337     -25.806209      0              88.498717      0              0              9.6365433      9.6484957      0.2            92.978146    
       900   0.21747096     0.0011471443   0.0011471443   0              0             -51.462306     -248.89632      145.77647      0              271.49536      0              0              9.6355791      9.6501734      0.2            92.985009    
      1000   0.19313964     0.0012513398   0.0012513398   0              0              109.30817      44.61703       173.79938      0             -170.59979      0              0              9.6346148      9.6459546      0.2            92.935057    
      1100   0.24970285     0.0011203031   0.0011203031   0              0              526.91196      912.33437      141.30931      0             -377.29496      0              0              9.6336506      9.6472612      0.2            92.938344    
      1200   0.24733745     0.001272336    0.001272336    0              0              708.41973      1333.9137      82.759171      0             -323.45087      0              0              9.6326864      9.643213       0.2            92.890046    
      1300   0.2740606      0.0011020495   0.0011020495   0              0             -132.75613     -173.06933     -92.663905      0             -51.005402      0              0              9.6317221      9.6475869      0.2            92.922877    
      1400   0.21562221     0.001136311    0.001136311    0              0              268.93609      741.86943     -204.23015      0             -29.453239      0              0              9.6307579      9.6411328      0.2            92.851416    
      1500   0.23655004     0.0011079525   0.0011079525   0              0             -349.97806     -432.74284     -267.35806      0              44.898217      0              0              9.6297937      9.6383281      0.2            92.815111    
      1600   0.1870029      0.001010645    0.001010645    0              0              210.78688      691.76882     -270.35822      0             -276.26561      0              0              9.6288294      9.639469       0.2            92.816803    
      1700   0.17834401     0.0011115555   0.0011115555   0              0             -17.003384     -67.635391      33.433828      0             -45.234782      0              0              9.6278652      9.6372766      0.2            92.7864      
      1800   0.23289492     0.0012365032   0.0012365032   0              0              445.93814      507.00065      384.65571      0             -157.13055      0              0              9.626901       9.6351353      0.2            92.756493    
      1900   0.190893       0.0013237993   0.0013237993   0              0              597.98948      478.28881      717.48399      0             -27.774973      0              0              9.6259367      9.6367468      0.2            92.762715    
      2000   0.17911367     0.0010640112   0.0010640112   0              0              625.28064      753.84543      496.48773      0              696.0313       0              0              9.6249725      9.6423304      0.2            92.807165    
      2100   0.20003185     0.00097578776  0.00097578776  0              0              113.36931      175.44393      51.057875      0             -585.77758      0              0              9.6240083      9.6454669      0.2            92.828053    
      2200   0.21619092     0.00068911805  0.00068911805  0              0             -122.74426      302.4376      -548.11956      0              76.706912      0              0              9.6230441      9.6466205      0.2            92.829854    
      2300   0.21117627     0.00090791602  0.00090791602  0              0             -1313.6654     -1643.9505     -983.582        0              226.00662      0              0              9.6220798      9.6486786      0.2            92.840356    
      2400   0.23204781     0.00097373537  0.00097373537  0              0             -626.27029     -273.31386     -979.3923       0              343.74658      0              0              9.6211156      9.6541105      0.2            92.883313    
      2500   0.19515426     0.00094504673  0.00094504673  0              0             -254.93313     -13.388883     -496.6694       0             -165.08623      0              0              9.6201514      9.6523464      0.2            92.857033    
      2600   0.17228303     0.0011211364   0.0011211364   0              0              198.07078      70.430164      325.53079      0              162.56698      0              0              9.6191871      9.6428069      0.2            92.755965    
      2700   0.23764694     0.00091416349  0.00091416349  0              0              961.27958      994.40766      927.96083      0             -500.29287      0              0              9.6182229      9.6429248      0.2            92.7478      
      2800   0.19023687     0.00096679477  0.00096679477  0              0              793.09378      376.69023      1209.3127      0             -77.382257      0              0              9.6172587      9.6390099      0.2            92.700852    
      2900   0.21608225     0.0011812779   0.0011812779   0              0              590.72638      485.6983       695.57332      0              135.55379      0              0              9.6162944      9.642811       0.2            92.72811     
      3000   0.19645355     0.0010592832   0.0010592832   0              0             -1.7370687      58.468785     -62.162548      0              77.21027       0              0              9.6153302      9.6523511      0.2            92.810544    
      3100   0.15329713     0.001077943    0.001077943    0              0             -301.40512      214.83636     -817.87108      0             -74.821566      0              0              9.614366       9.6531235      0.2            92.808663    
      3200   0.20451307     0.0010091609   0.0010091609   0              0             -519.09919      169.50125     -1207.9061      0             -350.15625      0              0              9.6134017      9.6596774      0.2            92.86236     
      3300   0.20890884     0.0011889412   0.0011889412   0              0             -603.10436     -315.62836     -890.78615      0             -26.951991      0              0              9.6124375      9.6591636      0.2            92.848106    
      3400   0.2391955      0.00098114232  0.00098114232  0              0              234.66273      510.37759     -41.227796      0              372.32014      0              0              9.6114733      9.655993       0.2            92.808319    
      3500   0.1990406      0.0011915532   0.0011915532   0              0              940.53015      1020.1675      860.68063      0              274.44061      0              0              9.6105091      9.6564454      0.2            92.803356    
      3600   0.18695387     0.0011478163   0.0011478163   0              0              745.38657      267.38743      1223.2055      0             -945.05222      0              0              9.6095448      9.6596531      0.2            92.824869    
      3700   0.19564676     0.0011307655   0.0011307655   0              0              1181.316       1388.8598      973.56335      0              557.42578      0              0              9.6085806      9.6579406      0.2            92.799101    
      3800   0.20729109     0.0010061826   0.0010061826   0              0              279.13993      525.46332      32.637901      0              285.73991      0              0              9.6076164      9.6630802      0.2            92.839167    
      3900   0.18634739     0.00116803     0.00116803     0              0             -766.88421     -852.9838      -680.96807      0             -714.71102      0              0              9.6066521      9.6627067      0.2            92.826262    
      4000   0.25209282     0.001008564    0.001008564    0              0             -327.67945      351.71422     -1007.2692      0             -291.11713      0              0              9.6056879      9.6648871      0.2            92.837889    
      4100   0.22623816     0.0012946448   0.0012946448   0              0             -315.80733      173.80026     -805.63678      0              211.56713      0              0              9.6047237      9.6614295      0.2            92.79536     
      4200   0.22807945     0.00082280786  0.00082280786  0              0             -609.82119     -1042.7445     -177.12555      0             -448.82545      0              0              9.6037594      9.6559696      0.2            92.733609    
      4300   0.18748206     0.0012753927   0.0012753927   0              0             -184.40332     -1123.7733      754.81773      0             -0.79238212     0              0              9.6027952      9.6563474      0.2            92.727926    
      4400   0.24385609     0.0010214142   0.0010214142   0              0              983.86355      808.72796      1158.8242      0             -675.13866      0              0              9.601831       9.6535897      0.2            92.692137    
      4500   0.21092108     0.0012778879   0.0012778879   0              0              148.40977     -456.55264      753.13533      0             -214.15057      0              0              9.6008667      9.6555008      0.2            92.701177    
      4600   0.22420967     0.0010278581   0.0010278581   0              0             -183.98805     -336.70226     -31.477125      0             -886.46193      0              0              9.5999025      9.6575137      0.2            92.71119     
      4700   0.20278166     0.0011522099   0.0011522099   0              0              365.86203      1402.3123     -670.82208      0             -569.63844      0              0              9.5989383      9.6613129      0.2            92.738346    
      4800   0.18509709     0.0012492502   0.0012492502   0              0             -289.46276      306.10605     -885.22904      0             -372.72577      0              0              9.5979741      9.6612212      0.2            92.72815     
      4900   0.20187984     0.0013100763   0.0013100763   0              0              241.90271      1173.8137     -690.19608      0             -644.68333      0              0              9.5970098      9.6629614      0.2            92.735536    
      5000   0.19586456     0.0014291177   0.0014291177   0              0              125.93561      300.10795     -48.391986      0             -126.73303      0              0              9.5960456      9.6651111      0.2            92.746847    
      5100   0.20536208     0.0012289274   0.0012289274   0              0              519.45686      576.04243      462.67898      0             -438.32844      0              0              9.5950814      9.6653009      0.2            92.739349    
      5200   0.1896313      0.0012628929   0.0012628929   0              0              680.77539      549.36383      811.99194      0             -1064.4574      0              0              9.5941171      9.6621056      0.2            92.699373    
      5300   0.27123135     0.00086613219  0.00086613219  0              0              529.83187      518.05151      541.40325      0              294.95687      0              0              9.5931529      9.6628476      0.2            92.697175    
      5400   0.2477614      0.001179292    0.001179292    0              0              29.085949      12.68598       45.275979      0              128.89615      0              0              9.5921887      9.6587828      0.2            92.648867    
      5500   0.18439155     0.00093213617  0.00093213617  0              0             -63.933608      350.63501     -478.74169      0             -57.960255      0              0              9.5912244      9.662819       0.2            92.678265    
      5600   0.19642596     0.00083148992  0.00083148992  0              0             -49.08819       538.7747      -637.15418      0             -211.59267      0              0              9.5902602      9.6601583      0.2            92.643432    
      5700   0.23669933     0.0011592012   0.0011592012   0              0              269.23997      842.59278     -304.32073      0             -343.58316      0              0              9.589296       9.6610136      0.2            92.642319    
      5800   0.20651495     0.0010057779   0.0010057779   0              0              487.41865      938.33992      36.288256      0             -168.61695      0              0              9.5883317      9.6610767      0.2            92.633608    
      5900   0.18412937     0.0010048501   0.0010048501   0              0              460.57363      626.06303      294.88562      0             -298.02327      0              0              9.5873675      9.6659271      0.2            92.670795    
      6000   0.20024363     0.001079144    0.001079144    0              0              456.06777      429.50997      482.43396      0             -661.50292      0              0              9.5864033      9.6671094      0.2            92.672809    
      6100   0.23192321     0.0010450758   0.0010450758   0              0              731.90168      1139.5036      324.10923      0             -823.81126      0              0              9.585439       9.665841       0.2            92.65133     
      6200   0.20123632     0.0011239623   0.0011239623   0              0              938.61426      1946.3021     -69.294275      0             -372.64504      0              0              9.5844748      9.6640111      0.2            92.624471    
      6300   0.20903565     0.0011635365   0.0011635365   0              0              267.33387      947.32971     -412.86491      0             -3.942104       0              0              9.5835106      9.6665123      0.2            92.639123    
      6400   0.18032507     0.0011789406   0.0011789406   0              0              381.34438      1326.8545     -564.3601       0              198.00901      0              0              9.5825464      9.6666023      0.2            92.630665    
      6500   0.16927795     0.0011754258   0.0011754258   0              0              234.6403       939.83214     -470.7449       0             -725.74494      0              0              9.5815821      9.6687591      0.2            92.64201     
      6600   0.17767912     0.0012998366   0.0012998366   0              0              1025.3108      2142.0044     -91.585241      0             -107.68141      0              0              9.5806179      9.6689479      0.2            92.634495    
      6700   0.17287175     0.0011440105   0.0011440105   0              0              1036.3291      1763.159       309.305        0              453.82108      0              0              9.5796537      9.6601159      0.2            92.540565    
      6800   0.1886033      0.0012044822   0.0012044822   0              0              1105.6517      1674.94        536.15625      0              429.18979      0              0              9.5786894      9.6588506      0.2            92.51913     
      6900   0.18742225     0.0012653712   0.0012653712   0              0              860.75816      1374.5263      346.73744      0             -273.15879      0              0              9.5777252      9.6645424      0.2            92.564331    
      7000   0.19516503     0.0011578319   0.0011578319   0              0              559.41607      1122.2524     -3.5898353      0             -566.07775      0              0              9.576761       9.6641729      0.2            92.551474    
      7100   0.19457204     0.0011026734   0.0011026734   0              0              346.35589      1000.6255     -308.08155      0              46.389323      0              0              9.5757967      9.6716805      0.2            92.614046    
      7200   0.18853012     0.001165344    0.001165344    0              0              358.84673      1261.2525     -543.71598      0              694.08024      0              0              9.5748325      9.675703       0.2            92.643235    
      7300   0.20166429     0.0011121821   0.0011121821   0              0              114.01003      480.14186     -252.31852      0              56.38696       0              0              9.5738683      9.6725523      0.2            92.603741    
      7400   0.20524266     0.0010441035   0.0010441035   0              0              571.33569      993.79372      148.67928      0             -327.11644      0              0              9.572904       9.6701085      0.2            92.57102     
      7500   0.20095874     0.001037223    0.001037223    0              0              471.08726      445.54219      496.4682       0             -209.77646      0              0              9.5719398      9.6632824      0.2            92.496358    
      7600   0.21397431     0.0010478039   0.0010478039   0              0              851.78073      1317.8475      385.49898      0              503.26618      0              0              9.5709756      9.6671299      0.2            92.523864    
      7700   0.2103861      0.0011813131   0.0011813131   0              0             -53.549532     -82.838891     -24.418246      0             -354.76572      0              0              9.5700114      9.6758952      0.2            92.598427    
      7800   0.18578731     0.00097832477  0.00097832477  0              0             -445.82977     -481.97689     -409.88582      0             -348.69691      0              0              9.5690471      9.6735449      0.2            92.566607    
      7900   0.24607601     0.00099742923  0.00099742923  0              0             -137.34024      370.30355     -645.19569      0             -145.25796      0              0              9.5680829      9.6721128      0.2            92.543577    
      8000   0.23547229     0.0012405902   0.0012405902   0              0             -5.3210836      217.44569     -228.3083       0             -918.73576      0              0              9.5671187      9.6702007      0.2            92.515957    
      8100   0.19409191     0.0011092616   0.0011092616   0              0              751.93753      1164.4485      339.24284      0             -257.48936      0              0              9.5661544      9.6664409      0.2            92.470667    
      8200   0.21775073     0.0010682579   0.0010682579   0              0              1088.7971      1375.5183      801.88883      0             -453.34633      0              0              9.5651902      9.665467       0.2            92.45203     
      8300   0.19126559     0.0012578706   0.0012578706   0              0              1215.0277      1704.2083      725.66043      0             -1309.8823      0              0              9.564226       9.6634545      0.2            92.423463    
      8400   0.20241073     0.0014145117   0.0014145117   0              0              566.56136      784.65768      348.30156      0             -709.17393      0              0              9.5632617      9.662592       0.2            92.405896    
      8500   0.2353787      0.0011999234   0.0011999234   0              0              334.6756       1199.0612     -529.89947      0             -1347.5963      0              0              9.5622975      9.6675865      0.2            92.444339    
      8600   0.240557       0.0013367485   0.0013367485   0              0             -574.76285     -118.84829     -1030.8866      0             -461.16164      0              0              9.5613333      9.6699803      0.2            92.457904    
      8700   0.23754048     0.0013308333   0.0013308333   0              0              114.63348      1205.2089     -976.15094      0              509.54159      0              0              9.560369       9.6733434      0.2            92.480733    
      8800   0.23849917     0.0012927465   0.0012927465   0              0              139.27396      430.60087     -152.19753      0              86.355563      0              0              9.5594048      9.6721658      0.2            92.460148    
      8900   0.25515017     0.0011408327   0.0011408327   0              0              1234.0742      1676.5906      791.3006       0             -47.21119       0              0              9.5584406      9.6652792      0.2            92.384997    
      9000   0.22747448     0.0012256754   0.0012256754   0              0              1911.1346      2433.9626      1388.1125      0              116.68935      0              0              9.5574764      9.6539009      0.2            92.26693     
      9100   0.18633728     0.0009516625   0.0009516625   0              0              1107.8635      1171.8303      1043.689       0              222.99388      0              0              9.5565121      9.6637601      0.2            92.351841    
      9200   0.19774434     0.0013212301   0.0013212301   0              0              720.60403      1509.6596     -68.626049      0              378.35783      0              0              9.5555479      9.6780705      0.2            92.479266    
      9300   0.25537572     0.0011128499   0.0011128499   0              0              79.933838      1209.3271     -1049.676       0             -287.553        0              0              9.5545837      9.6875719      0.2            92.560716    
      9400   0.2181493      0.0009125269   0.0009125269   0              0             -60.380221      1115.1509     -1236.0864      0              74.415618      0              0              9.5536194      9.6869606      0.2            92.545535    
      9500   0.20017786     0.00096069828  0.00096069828  0              0              330.02804      1208.8501     -548.98792      0              313.54906      0              0              9.5526552      9.6833135      0.2            92.501355    
      9600   0.18265451     0.0011476811   0.0011476811   0              0              555.18366      816.24974      293.95714      0             -240.74322      0              0              9.551691       9.6734482      0.2            92.397788    
      9700   0.20924777     0.0012247577   0.0012247577   0              0              487.2994      -12.009965      986.44503      0             -611.38911      0              0              9.5507267      9.6792734      0.2            92.444096    
      9800   0.20177824     0.00099604855  0.00099604855  0              0              942.16951      1088.5274      795.60622      0             -874.60815      0              0              9.5497625      9.675044       0.2            92.394373    
      9900   0.16732002     0.0011402217   0.0011402217   0              0              309.0709       437.09254      180.8632       0             -320.01482      0              0              9.5487983      9.6812125      0.2            92.443945    
     10000   0.19174804     0.001283332    0.001283332    0              0             -231.23745      23.919958     -486.64598      0             -451.98134      0              0              9.547834       9.6852541      0.2            92.473199    
     10100   0.2224026      0.00097079046  0.00097079046  0              0             -330.73596      300.55547     -962.2262       0             -190.22124      0              0              9.5468698      9.691349       0.2            92.522047    
     10200   0.21345311     0.001314305    0.001314305    0              0             -287.11612      203.30619     -777.74695      0             -49.668139      0              0              9.5459056      9.6887881      0.2            92.488256    
     10300   0.21573392     0.000860805    0.000860805    0              0              69.163016      103.4738       34.655357      0              52.794544      0              0              9.5449414      9.67683        0.2            92.364775    
     10400   0.15686803     0.0011147804   0.0011147804   0              0              546.29941      428.30444      664.12575      0             -324.91478      0              0              9.5439771      9.6784843      0.2            92.371233    
     10500   0.18552609     0.00079153505  0.00079153505  0              0              654.12593      385.31682      922.74637      0             -297.99615      0              0              9.5430129      9.6782989      0.2            92.360131    
     10600   0.21108286     0.0010525791   0.0010525791   0              0              27.947125     -483.38315      539.05876      0             -172.73078      0              0              9.5420487      9.683958       0.2            92.404799    
     10700   0.26051573     0.001345971    0.001345971    0              0             -316.54095     -409.15226     -224.10949      0              573.09138      0              0              9.5410844      9.678661       0.2            92.344922    
     10800   0.23607115     0.0011553342   0.0011553342   0              0             -348.52385      83.120215     -780.39975      0              423.03345      0              0              9.5401202      9.6806689      0.2            92.354744    
     10900   0.23052678     0.0010788597   0.0010788597   0              0             -228.29828      322.92161     -779.73723      0              49.753777      0              0              9.539156       9.6770301      0.2            92.3107      
     11000   0.22587247     0.0010210558   0.0010210558   0              0             -185.57065     -7.8665798     -363.5018       0              78.412879      0              0              9.5381917      9.6779366      0.2            92.310015    
     11100   0.18791729     0.0011670483   0.0011670483   0              0              232.58981      278.6585       186.29054      0              255.92793      0              0              9.5372275      9.6760744      0.2            92.282923    
     11200   0.21134019     0.0011499652   0.0011499652   0              0             -200.85644     -1101.699       699.77448      0             -547.42528      0              0              9.5362633      9.6733479      0.2            92.247593    
     11300   0.18706964     0.0011348761   0.0011348761   0              0              968.61574      1197.3292      739.68221      0             -249.97893      0              0              9.535299       9.6732412      0.2            92.237248    
     11400   0.19872675     0.0012004726   0.0012004726   0              0              753.80735      1157.0853      350.32847      0             -608.37476      0              0              9.5343348      9.6727544      0.2            92.223279    
     11500   0.19392651     0.0011954652   0.0011954652   0              0              303.48398      798.00704     -191.20025      0             -228.94567      0              0              9.5333706      9.675234       0.2            92.237591    
     11600   0.2005182      0.0011990662   0.0011990662   0              0             -266.59683     -176.3018      -357.08335      0             -489.83413      0              0              9.5324063      9.6738489      0.2            92.215059    
     11700   0.16979479     0.0013755562   0.0013755562   0              0             -106.06726      247.97391     -460.26667      0             -224.0659       0              0              9.5314421      9.6766213      0.2            92.232156    
     11800   0.21665415     0.0010769558   0.0010769558   0              0             -327.78281     -421.79949     -233.91815      0             -526.73083      0              0              9.5304779      9.6768728      0.2            92.225223    
     11900   0.21929648     0.0010305449   0.0010305449   0              0              20.758498      14.512597      26.81203       0             -297.27139      0              0              9.5295137      9.6712358      0.2            92.162174    
     12000   0.2277593      0.0011970193   0.0011970193   0              0              580.13161      869.8236       290.23845      0             -357.66771      0              0              9.5285494      9.6681859      0.2            92.123787    
     12100   0.20347704     0.0011356692   0.0011356692   0              0              756.76232      990.3783       522.97852      0              164.23628      0              0              9.5275852      9.6662236      0.2            92.095768    
     12200   0.19045936     0.00090839563  0.00090839563  0              0              707.32133      1069.8082      344.62374      0              109.0229       0              0              9.526621       9.6723046      0.2            92.14438     
     12300   0.19075095     0.0011182554   0.0011182554   0              0              431.88387      1025.8879     -162.29174      0             -709.47859      0              0              9.5256567      9.6788395      0.2            92.197303    
     12400   0.17314358     0.001043001    0.001043001    0              0              350.34695      1141.2723     -440.75498      0             -166.55996      0              0              9.5246925      9.6750688      0.2            92.152055    
     12500   0.18984375     0.0011530678   0.0011530678   0              0              497.00793      1447.9684     -454.18377      0             -397.47113      0              0              9.5237283      9.682888       0.2            92.217194    
     12600   0.22150047     0.00077047023  0.00077047023  0              0              455.21662      952.49103     -42.27463       0             -257.31334      0              0              9.522764       9.6872478      0.2            92.249375    
     12700   0.18231253     0.0010963436   0.0010963436   0              0              403.46364      615.44575      191.27523      0             -1009.5322      0              0              9.5217998      9.6832584      0.2            92.202048    
     12800   0.23788276     0.00099646797  0.00099646797  0              0              558.55712      916.37287      200.58533      0             -657.2573       0              0              9.5208356      9.6815793      0.2            92.176725    
     12900   0.19488996     0.0010912464   0.0010912464   0              0             -37.816073     -59.512837     -16.332516      0             -313.95915      0              0              9.5198713      9.6846381      0.2            92.196509    
     13000   0.19555871     0.00086981915  0.00086981915  0              0              167.52474      522.12918     -187.28062      0             -144.52923      0              0              9.5189071      9.6848763      0.2            92.189438    
     13100   0.18676554     0.00092506863  0.00092506863  0              0             -59.45501       29.72132      -148.8416       0             -473.81607      0              0              9.5179429      9.6822845      0.2            92.155431    
     13200   0.17266812     0.00089888802  0.00089888802  0              0              581.46957      1140.6497      22.067356      0             -811.16436      0              0              9.5169787      9.681771       0.2            92.141208    
     13300   0.14655856     0.0011084131   0.0011084131   0              0              1004.5323      1795.3319      213.54786      0             -186.89537      0              0              9.5160144      9.6771161      0.2            92.087577    
     13400   0.20759395     0.0010390136   0.0010390136   0              0              772.14478      1479.3324      64.79195       0             -185.97402      0              0              9.5150502      9.6758562      0.2            92.066258    
     13500   0.20466688     0.0010384018   0.0010384018   0              0              371.16966      746.19276     -4.054538       0             -70.07083       0              0              9.514086       9.6719119      0.2            92.019401    
     13600   0.19975659     0.001056308    0.001056308    0              0             -17.320183      10.201523     -45.026904      0              552.00256      0              0              9.5131217      9.670228       0.2            91.994056    
     13700   0.22720666     0.0012561866   0.0012561866   0              0             -171.97744     -258.39441     -85.77427       0              330.3044       0              0              9.5121575      9.6766456      0.2            92.045777    
     13800   0.24791379     0.001187822    0.001187822    0              0              205.96986      416.9751      -5.2572238      0              55.505363      0              0              9.5111933      9.6790596      0.2            92.059407    
     13900   0.20927403     0.0012922936   0.0012922936   0              0              503.56463      916.99144      89.95901       0             -637.30119      0              0              9.510229       9.6739741      0.2            92.00171     
     14000   0.21924742     0.0014436773   0.0014436773   0              0              123.66411      121.75625      125.33844      0             -205.50479      0              0              9.5092648      9.6708277      0.2            91.962462    
     14100   0.27906528     0.0010694519   0.0010694519   0              0              58.4658        44.852027      71.864001      0             -662.16522      0              0              9.5083006      9.6717602      0.2            91.962003    
     14200   0.21224859     0.0011147267   0.0011147267   0              0             -238.48966     -403.98987     -73.191414      0             -417.52501      0              0              9.5073363      9.6801565      0.2            92.032504    
     14300   0.18722128     0.0013191606   0.0013191606   0              0             -573.24501     -1024.324      -122.37216      0             -23.66876       0              0              9.5063721      9.6745613      0.2            91.96998     
     14400   0.18568646     0.0012243412   0.0012243412   0              0             -650.90265     -1232.8175     -69.195121      0              415.02374      0              0              9.5054079      9.6725806      0.2            91.941824    
     14500   0.20320524     0.0012208424   0.0012208424   0              0             -74.529037     -149.20873     -0.055054252    0              503.47188      0              0              9.5044437      9.665702       0.2            91.86712     
     14600   0.19544989     0.0013246263   0.0013246263   0              0             -138.04343     -265.90173     -10.377531      0             -355.7994       0              0              9.5034794      9.6711333      0.2            91.909416    
     14700   0.26296709     0.0011609448   0.0011609448   0              0             -150.8745      -408.98446      107.05183      0              1137.624       0              0              9.5025152      9.6740238      0.2            91.927558    
     14800   0.25648136     0.0011622003   0.0011622003   0              0              235.43928      300.68558      169.9998       0             -399.16433      0              0              9.501551       9.6739876      0.2            91.917886    
     14900   0.16689262     0.0013847995   0.0013847995   0              0              95.094018      3.5942133      186.38763      0             -225.96104      0              0              9.5005867      9.6735398      0.2            91.904304    
     15000   0.20394314     0.0012123204   0.0012123204   0              0             -606.03117     -1325.7824      113.54031      0             -231.9089       0              0              9.4996225      9.6770188      0.2            91.928026    
     15100   0.21229891     0.0013930479   0.0013930479   0              0             -223.61755     -218.74577     -228.71431      0              12.623477      0              0              9.4986583      9.6776542      0.2            91.92473     
     15200   0.20376038     0.00093258885  0.00093258885  0              0             -564.60603     -913.84856     -215.5451       0             -160.80558      0              0              9.497694       9.6728267      0.2            91.869548    
     15300   0.21822555     0.0010761472   0.0010761472   0              0             -472.10167     -936.32235     -8.0748684      0              417.9279       0              0              9.4967298      9.6686339      0.2            91.820404    
     15400   0.19239734     0.00094845971  0.00094845971  0              0             -91.942781     -273.61382      89.550886      0              375.82606      0              0              9.4957656      9.6714465      0.2            91.837789    
     15500   0.18653995     0.00093745378  0.00093745378  0              0             -614.51665     -1320.7514      91.501141      0              42.651077      0              0              9.4948013      9.6713969      0.2            91.827992    
     15600   0.17366709     0.0010144566   0.0010144566   0              0              159.98915      77.312361      242.43378      0              945.09934      0              0              9.4938371      9.6744694      0.2            91.847837    
     15700   0.186217       0.0011341957   0.0011341957   0              0             -23.050694     -318.8272       272.5368       0              290.32809      0              0              9.4928729      9.6707695      0.2            91.803385    
     15800   0.15223149     0.0011597236   0.0011597236   0              0              709.30478      1310.4253      107.9988       0              326.86028      0              0              9.4919086      9.6780559      0.2            91.863223    
     15900   0.23247931     0.0009977076   0.0009977076   0              0             -128.83918     -42.049957     -215.80641      0              668.6204       0              0              9.4909444      9.6801564      0.2            91.873826    
     16000   0.26493664     0.0010229252   0.0010229252   0              0             -244.52789     -99.247859     -389.99657      0              273.83331      0              0              9.4899802      9.6804625      0.2            91.867397    
     16100   0.22618364     0.00091427763  0.00091427763  0              0             -89.831004      156.09431     -335.99142      0              142.74432      0              0              9.489016       9.6794405      0.2            91.848365    
     16200   0.22864998     0.00088580982  0.00088580982  0              0              269.39348      529.93125      8.6644428      0              386.12482      0              0              9.4880517      9.6786793      0.2            91.83181     
     16300   0.21747984     0.001189218    0.001189218    0              0              386.13724      443.22613      328.82768      0              402.15131      0              0              9.4870875      9.6797988      0.2            91.833098    
     16400   0.17897125     0.0010344597   0.0010344597   0              0              410.36363      384.84758      435.69135      0              290.35158      0              0              9.4861233      9.6861191      0.2            91.883719    
     16500   0.19268291     0.001046707    0.001046707    0              0              409.82002      573.16023      246.33991      0              170.03211      0              0              9.485159       9.6867471      0.2            91.880337    
     16600   0.21324824     0.0011752548   0.0011752548   0              0             -139.33007     -53.683442     -225.22304      0              299.12267      0              0              9.4841948      9.6939927      0.2            91.939715    
     16700   0.15350307     0.001161532    0.001161532    0              0             -191.96698      276.37793     -660.55059      0              256.09453      0              0              9.4832306      9.6964288      0.2            91.95347     
     16800   0.20050423     0.0010235522   0.0010235522   0              0              23.824924      651.6904      -604.26385      0             -179.51554      0              0              9.4822663      9.6923224      0.2            91.905182    
     16900   0.19589745     0.00094760045  0.00094760045  0              0              13.370729     -16.368974      42.904292      0              247.54191      0              0              9.4813021      9.6884795      0.2            91.859401    
     17000   0.14794929     0.0008821562   0.0008821562   0              0              389.16348      14.554713      763.56369      0             -89.852579      0              0              9.4803379      9.6835417      0.2            91.803247    
     17100   0.2420375      0.0010097494   0.0010097494   0              0              873.32964      855.40482      891.06307      0              164.35161      0              0              9.4793736      9.6859109      0.2            91.816368    
     17200   0.25209685     0.0011711948   0.0011711948   0              0              1104.6685      1619.3601      589.77458      0              57.512442      0              0              9.4784094      9.679773       0.2            91.748851    
     17300   0.22667138     0.0012655075   0.0012655075   0              0             -132.27396      183.59975     -448.36988      0             -463.87901      0              0              9.4774452      9.6812209      0.2            91.753241    
     17400   0.21448514     0.0013314837   0.0013314837   0              0             -742.81174     -244.11848     -1241.6683      0              890.27114      0              0              9.476481       9.6903878      0.2            91.830775    
     17500   0.20277972     0.0013257583   0.0013257583   0              0             -313.57508      321.53578     -948.85804      0              1023.945       0              0              9.4755167      9.6913852      0.2            91.830883    
     17600   0.22320298     0.0013338562   0.0013338562   0              0              477.62095      894.55578      60.463107      0              779.83031      0              0              9.4745525      9.6914954      0.2            91.822582    
     17700   0.1866588      0.0010914569   0.0010914569   0              0              954.52514      882.04834      1026.7955      0             -409.67304      0              0              9.4735883      9.6978415      0.2            91.873357    
     17800   0.17646244     0.0011415707   0.0011415707   0              0              967.69639      730.16508      1205.0314      0             -801.48333      0              0              9.472624       9.6904753      0.2            91.794229    
     17900   0.18820242     0.0011413788   0.0011413788   0              0              447.43658      542.39078      352.29183      0              48.599069      0              0              9.4716598      9.6907         0.2            91.787014    
     18000   0.22429719     0.0011411856   0.0011411856   0              0              85.793133      808.91606     -637.52573      0              1041.1131      0              0              9.4706956      9.6940238      0.2            91.809148    
     18100   0.1896449      0.0011779047   0.0011779047   0              0             -220.63137      738.22188     -1179.6742      0              336.95193      0              0              9.4697313      9.6970926      0.2            91.828862    
     18200   0.17002345     0.0010729272   0.0010729272   0              0             -60.335419      647.43403     -768.30898      0             -125.96697      0              0              9.4687671      9.7044998      0.2            91.889648    
     18300   0.19406512     0.0010365676   0.0010365676   0              0              669.9702       1123.0378      216.72067      0             -141.91597      0              0              9.4678029      9.6948914      0.2            91.789321    
     18400   0.19254759     0.00094053735  0.00094053735  0              0              1127.9324      1307.7504      947.9145       0              107.88017      0              0              9.4668386      9.6909982      0.2            91.743116    
     18500   0.22457859     0.0009769725   0.0009769725   0              0              549.58931      235.55616      863.41946      0              358.49986      0              0              9.4658744      9.6966192      0.2            91.78698     
     18600   0.20776161     0.0010358696   0.0010358696   0              0              408.73516      750.31647      66.966518      0              165.86573      0              0              9.4649102      9.6970301      0.2            91.781519    
     18700   0.24232128     0.0010841376   0.0010841376   0              0             -859.1676      -906.97293     -811.56279      0              22.482872      0              0              9.463946       9.7072228      0.2            91.868632    
     18800   0.17004654     0.0011172348   0.0011172348   0              0             -423.6272       161.78133     -1009.2024      0              364.77075      0              0              9.4629817      9.7103341      0.2            91.888715    
     18900   0.19322093     0.0011553966   0.0011553966   0              0             -572.63801     -769.50944     -375.99276      0             -49.604415      0              0              9.4620175      9.7038724      0.2            91.81821     
     19000   0.16853853     0.0011417284   0.0011417284   0              0              653.1619       801.41709      504.70716      0             -124.43184      0              0              9.4610533      9.6967123      0.2            91.741112    
     19100   0.22469478     0.0010562316   0.0010562316   0              0              1191.79        1508.6905      874.69347      0             -477.3008       0              0              9.460089       9.6953096      0.2            91.718492    
     19200   0.21825019     0.0011988403   0.0011988403   0              0              983.26666      1445.3627      520.9924       0             -442.17091      0              0              9.4591248      9.700303       0.2            91.756376    
     19300   0.22260916     0.0010917136   0.0010917136   0              0              302.52561      1026.7838     -421.90647      0              122.65049      0              0              9.4581606      9.7087503      0.2            91.826919    
     19400   0.18783115     0.001245791    0.001245791    0              0             -105.19097      684.40056     -894.91939      0             -984.46918      0              0              9.4571963      9.7071132      0.2            91.802075    
     19500   0.18299284     0.0011233631   0.0011233631   0              0             -9.2494624      704.88421     -723.60483      0              46.753745      0              0              9.4562321      9.7028004      0.2            91.751933    
     19600   0.19264322     0.0010982881   0.0010982881   0              0              338.61042      549.23716      127.76405      0             -6.645584       0              0              9.4552679      9.7023169      0.2            91.738005    
     19700   0.19730698     0.00093248317  0.00093248317  0              0              1123.1516      1514.7783      731.36796      0             -299.23552      0              0              9.4543036      9.6990629      0.2            91.697886    
     19800   0.19351197     0.0011391227   0.0011391227   0              0              862.72816      1127.2026      598.03978      0             -453.11894      0              0              9.4533394      9.704347       0.2            91.738486    
     19900   0.20011342     0.00097700757  0.00097700757  0              0             -3.3230719      45.398314     -52.223369      0             -189.57259      0              0              9.4523752      9.7067381      0.2            91.75173     
     20000   0.17054688     0.00097841737  0.00097841737  0              0             -384.25866     -170.20926     -598.536        0             -56.309772      0              0              9.4514109      9.7080186      0.2            91.754473    
     20100   0.14675791     0.0012028314   0.0012028314   0              0             -498.30695     -317.5407      -679.28271      0              116.44782      0              0              9.4504467      9.7130748      0.2            91.792895    
     20200   0.21912428     0.0012214119   0.0012214119   0              0              362.38725      1031.1751     -306.63934      0              537.14275      0              0              9.4494825      9.7084527      0.2            91.739854    
     20300   0.22467619     0.00097472708  0.00097472708  0              0              830.03895      1185.4752      474.43193      0              638.00904      0              0              9.4485183      9.7114195      0.2            91.758524    
     20400   0.2206451      0.0010097821   0.0010097821   0              0              598.6872       486.12225      711.06465      0              372.15957      0              0              9.447554       9.7150712      0.2            91.78366     
     20500   0.1999862      0.0011422306   0.0011422306   0              0              306.22036      433.30382      178.94638      0             -60.537169      0              0              9.4465898      9.7144105      0.2            91.768051    
     20600   0.22307969     0.0012927552   0.0012927552   0              0              191.21654      951.47936     -569.229        0              356.07464      0              0              9.4456256      9.7235068      0.2            91.844604    
     20700   0.22838333     0.0012843303   0.0012843303   0              0             -441.5215      -232.71717     -650.551        0              140.83858      0              0              9.4446613      9.7241559      0.2            91.841359    
     20800   0.1945715      0.0011219288   0.0011219288   0              0              8.6692287      106.32898     -89.228349      0              724.65237      0              0              9.4436971      9.7211697      0.2            91.803782    
     20900   0.17571119     0.0010772798   0.0010772798   0              0              45.968507     -281.78814      373.54783      0              249.47224      0              0              9.4427329      9.7172761      0.2            91.757642    
     21000   0.20242208     0.0010817786   0.0010817786   0              0              290.2695       149.26737      431.08341      0             -485.78331      0              0              9.4417686      9.7143955      0.2            91.721075    
     21100   0.22407642     0.0010389246   0.0010389246   0              0             -45.120962     -140.82239      50.377641      0              859.84531      0              0              9.4408044      9.7216465      0.2            91.780164    
     21200   0.21727671     0.0011736715   0.0011736715   0              0              64.310298      616.36097     -487.88942      0              216.7309       0              0              9.4398402      9.7271772      0.2            91.822998    
     21300   0.19951643     0.00090082759  0.00090082759  0              0             -311.88839     -295.85049     -328.15387      0              487.32092      0              0              9.4388759      9.7281706      0.2            91.822995    
     21400   0.22154921     0.0010383332   0.0010383332   0              0             -231.5123      -592.81891      129.59976      0             -27.541781      0              0              9.4379117      9.7190996      0.2            91.728004    
     21500   0.21360757     0.0011745522   0.0011745522   0              0             -78.310561     -527.77115      370.92282      0             -85.300309      0              0              9.4369475      9.7157273      0.2            91.686808    
     21600   0.15912677     0.001043862    0.001043862    0              0              303.24033      329.64172      276.66538      0              253.0448       0              0              9.4359833      9.7177718      0.2            91.696732    
     21700   0.18543593     0.0010266403   0.0010266403   0              0             -23.481335      35.832839     -82.964329      0              176.0756       0              0              9.435019       9.7253527      0.2            91.758888    
     21800   0.21950437     0.00095293709  0.00095293709  0              0             -118.19598      33.460895     -270.08497      0              442.85897      0              0              9.4340548      9.7254131      0.2            91.75008     
     21900   0.23883367     0.0011858576   0.0011858576   0              0              552.99609      1131.8192     -26.026318      0              239.22868      0              0              9.4330906      9.7155996      0.2            91.64813     
     22000   0.21279001     0.001161294    0.001161294    0              0              132.71757      203.69209      61.565651      0             -445.13452      0              0              9.4321263      9.7181121      0.2            91.662461    
     22100   0.15251321     0.0011801596   0.0011801596   0              0             -371.26175     -644.11201     -98.597647      0              710.45067      0              0              9.4311621      9.7166494      0.2            91.639295    
     22200   0.21676607     0.00086726943  0.00086726943  0              0             -166.13309     -248.604       -83.859277      0             -212.63165      0              0              9.4301979      9.7215739      0.2            91.676366    
     22300   0.21176367     0.001116429    0.001116429    0              0             -95.827107     -140.67239     -51.181653      0              49.747021      0              0              9.4292336      9.716314       0.2            91.617395    
     22400   0.20627714     0.0012867758   0.0012867758   0              0              338.04985      670.2948       5.6190174      0              809.7767       0              0              9.4282694      9.7124732      0.2            91.571814    
     22500   0.22399989     0.0012162382   0.0012162382   0              0              158.92342      174.41738      143.23358      0              518.38796      0              0              9.4273052      9.706374       0.2            91.50495     
     22600   0.18420442     0.0011814904   0.0011814904   0              0              87.095378      110.53778      63.494473      0              1001.0089      0              0              9.4263409      9.7149561      0.2            91.576489    
     22700   0.25947971     0.0010479908   0.0010479908   0              0             -169.9557      -228.1518      -111.96735      0              113.63811      0              0              9.4253767      9.7146622      0.2            91.564351    
     22800   0.1815974      0.00095316647  0.00095316647  0              0             -316.11433     -523.19247     -109.19736      0             -65.767019      0              0              9.4244125      9.7117959      0.2            91.527971    
     22900   0.17481116     0.001149121    0.001149121    0              0             -53.221427     -100.69914     -5.9426401      0             -369.59593      0              0              9.4234483      9.712272       0.2            91.523093    
     23000   0.19066907     0.00099644092  0.00099644092  0              0              704.37317      1370.5431      38.001777      0             -214.49981      0              0              9.422484       9.7161437      0.2            91.550209    
     23100   0.20644088     0.0010921851   0.0010921851   0              0              304.74611      663.90139     -54.615698      0             -323.71716      0              0              9.4215198      9.7196834      0.2            91.57419     
     23200   0.22488387     0.0012105911   0.0012105911   0              0              292.84247      640.90641     -55.423761      0             -1216.2229      0              0              9.4205556      9.7205159      0.2            91.57266     
     23300   0.17783399     0.00097823961  0.00097823961  0              0              468.34761      839.41076      97.070143      0             -65.096954      0              0              9.4195913      9.7248755      0.2            91.604353    
     23400   0.17475813     0.0011275197   0.0011275197   0              0              566.14719      1055.155       76.936617      0             -747.91923      0              0              9.4186271      9.7205813      0.2            91.55453     
     23500   0.21799305     0.0010542702   0.0010542702   0              0              315.84247      600.35262      31.151591      0             -384.49658      0              0              9.4176629      9.7266677      0.2            91.602477    
     23600   0.22981595     0.0010377404   0.0010377404   0              0              320.87845      453.37753      188.15954      0             -416.70869      0              0              9.4166986      9.7257738      0.2            91.584681    
     23700   0.20990483     0.0010281345   0.0010281345   0              0              737.28023      1416.2496      58.119636      0             -885.07601      0              0              9.4157344      9.7244         0.2            91.562368    
     23800   0.23794938     0.0010667784   0.0010667784   0              0              646.23615      1389.3686     -97.096597      0             -170.86169      0              0              9.4147702      9.7343346      0.2            91.646523    
     23900   0.16286326     0.0009759761   0.0009759761   0              0              525.84596      1091.7846     -40.291505      0             -216.8299       0              0              9.4138059      9.7294716      0.2            91.591358    
     24000   0.17744918     0.0010326643   0.0010326643   0              0              958.98898      1811.6844      106.09143      0             -76.47627       0              0              9.4128417      9.7327747      0.2            91.613067    
     24100   0.17188241     0.00116475     0.00116475     0              0              391.91449      668.09388      115.57523      0             -262.73934      0              0              9.4118775      9.7235078      0.2            91.516464    
     24200   0.18045222     0.0011679682   0.0011679682   0              0              444.06564      752.63756      135.31601      0             -608.56524      0              0              9.4109132      9.7314057      0.2            91.581415    
     24300   0.20133809     0.0010937268   0.0010937268   0              0             -94.00646      -211.51595      23.280376      0             -335.78618      0              0              9.409949       9.732378       0.2            91.581181    
     24400   0.18580379     0.00091491004  0.00091491004  0              0              174.73053      442.01102     -92.758878      0             -1036.7002      0              0              9.4089848      9.7348963      0.2            91.595491    
     24500   0.17390878     0.0012507367   0.0012507367   0              0              764.12715      1674.9723     -146.9287       0             -753.74458      0              0              9.4080206      9.735407       0.2            91.590909    
     24600   0.21919982     0.0012244001   0.0012244001   0              0              824.65127      1614.7949      34.29495       0             -306.44707      0              0              9.4070563      9.7325355      0.2            91.55451     
     24700   0.25653609     0.0010495237   0.0010495237   0              0              162.97898      282.34358      43.42025       0              412.84107      0              0              9.4060921      9.7356998      0.2            91.574889    
     24800   0.22491887     0.00097461652  0.00097461652  0              0              116.58786      241.70832     -8.7439884      0              288.39893      0              0              9.4051279      9.7327409      0.2            91.537672    
     24900   0.2335667      0.0010564144   0.0010564144   0              0             -52.9934       -70.452215     -35.72094       0             -332.5478       0              0              9.4041636      9.7300775      0.2            91.503241    
     25000   0.21334052     0.0011117654   0.0011117654   0              0              452.45634      788.51912      116.20071      0              1064.0263      0              0              9.4031994      9.7263035      0.2            91.458371    
     25100   0.2264979      0.0010001548   0.0010001548   0              0             -185.77457     -672.97183      301.24325      0              656.18638      0              0              9.4022352      9.7248588      0.2            91.43541     
     25200   0.17879041     0.00095319367  0.00095319367  0              0              265.52504      466.31828      64.541843      0              64.238891      0              0              9.4012709      9.7289152      0.2            91.464168    
     25300   0.16739808     0.0011255051   0.0011255051   0              0             -645.10266     -1028.1193     -262.26535      0             -615.29544      0              0              9.4003067      9.7314433      0.2            91.478552    
     25400   0.23593135     0.0011714675   0.0011714675   0              0             -16.739557      189.84981     -223.47439      0             -1154.411       0              0              9.3993425      9.7280798      0.2            91.437554    
     25500   0.15148042     0.00099103364  0.00099103364  0              0              769.9553       1632.3843     -92.661461      0             -664.07147      0              0              9.3983782      9.7294231      0.2            91.440799    
     25600   0.22616058     0.0010972269   0.0010972269   0              0              486.92916      755.22162      218.43966      0              12.533492      0              0              9.397414       9.7228963      0.2            91.370082    
     25700   0.16411774     0.0010066824   0.0010066824   0              0              488.53078      552.60337      424.26103      0              300.8455       0              0              9.3964498      9.7239239      0.2            91.370362    
     25800   0.19630701     0.0010931526   0.0010931526   0              0              673.40353      1186.8126      159.78358      0             -271.65943      0              0              9.3954856      9.7257411      0.2            91.37806     
     25900   0.22694788     0.00095143408  0.00095143408  0              0             -41.071333      325.56961     -407.91039      0             -901.68624      0              0              9.3945213      9.7336679      0.2            91.443151    
     26000   0.22452447     0.0011932214   0.0011932214   0              0             -100.15423      212.53878     -413.05914      0             -145.61377      0              0              9.3935571      9.7332357      0.2            91.429705    
     26100   0.25376107     0.001134412    0.001134412    0              0              66.688345     -62.720962      195.93843      0             -436.55103      0              0              9.3925929      9.7281475      0.2            91.372529    
     26200   0.20113907     0.0014999075   0.0014999075   0              0              483.69966      281.66652      685.55646      0             -55.430299      0              0              9.3916286      9.7279164      0.2            91.360979    
     26300   0.1974824      0.0011491133   0.0011491133   0              0              295.47668      287.20358      303.5248       0             -950.40792      0              0              9.3906644      9.7335096      0.2            91.404122    
     26400   0.17301316     0.001057174    0.001057174    0              0              249.09835      933.04693     -435.02384      0             -305.17785      0              0              9.3897002      9.7379537      0.2            91.436465    
     26500   0.17734233     0.0011589693   0.0011589693   0              0              471.187        1644.6618     -702.52796      0             -473.9157       0              0              9.3887359      9.7353937      0.2            91.403041    
     26600   0.17801133     0.0011620077   0.0011620077   0              0              377.85025      785.69152     -30.164737      0             -685.77989      0              0              9.3877717      9.7314471      0.2            91.356604    
     26700   0.18891015     0.0010843998   0.0010843998   0              0              339.41369      41.743785      636.8654       0             -843.77598      0              0              9.3868075      9.7205542      0.2            91.244971    
     26800   0.18596026     0.00076375643  0.00076375643  0              0              376.39481      292.32296      460.26727      0             -793.01617      0              0              9.3858432      9.7201         0.2            91.231335    
     26900   0.17035517     0.00089826391  0.00089826391  0              0              47.9277        611.16265     -515.48364      0             -664.95123      0              0              9.384879       9.7211194      0.2            91.231529    
     27000   0.19162747     0.001092165    0.001092165    0              0             -584.03889     -308.94889     -859.33905      0             -900.58629      0              0              9.3839148      9.7220383      0.2            91.230779    
     27100   0.22803366     0.0011270135   0.0011270135   0              0             -123.68948     -19.590341     -227.93112      0             -413.48348      0              0              9.3829506      9.7268382      0.2            91.266442    
     27200   0.22418797     0.0011265883   0.0011265883   0              0              396.15285      246.76017      545.33923      0             -332.25726      0              0              9.3819863      9.7191612      0.2            91.185037    
     27300   0.20993881     0.00098663173  0.00098663173  0              0              798.21243      834.3316       761.90264      0             -106.09556      0              0              9.3810221      9.7163199      0.2            91.149012    
     27400   0.20348656     0.0010479865   0.0010479865   0              0              183.08338      462.29845     -96.33025       0              68.016328      0              0              9.3800579      9.7210053      0.2            91.183592    
     27500   0.20603815     0.0013542495   0.0013542495   0              0             -369.5223       193.20069     -932.4508       0              355.23928      0              0              9.3790936      9.7353842      0.2            91.30908     
     27600   0.22374858     0.0012990111   0.0012990111   0              0             -158.17949      352.40123     -668.94698      0             -205.835        0              0              9.3781294      9.73064        0.2            91.255201    
     27700   0.20058931     0.0011458188   0.0011458188   0              0              97.189226     -185.67918      379.86611      0              92.511772      0              0              9.3771652      9.7279539      0.2            91.220631    
     27800   0.1964907      0.0013803368   0.0013803368   0              0              1010.7732      1085.8411      935.51008      0              530.4689       0              0              9.3762009      9.7244792      0.2            91.178671    
     27900   0.18458559     0.0011848289   0.0011848289   0              0              321.56836      471.73629      171.18588      0              667.71843      0              0              9.3752367      9.733827       0.2            91.256932    
     28000   0.23662309     0.0010656223   0.0010656223   0              0             -417.34184      7.4596018     -842.33203      0             -356.10878      0              0              9.3742725      9.7366302      0.2            91.273824    
[...]
     43000   0.21653713     0.0011355509   0.0011355509   0              0              26.800585      525.04243     -471.60846      0             -185.78623      0              0              9.2296378      9.7639641      0.2            90.117852    
     43100   0.2445371      0.0012318364   0.0012318364   0              0              783.37806      1017.3873      549.14456      0             -791.10467      0              0              9.2286736      9.7606406      0.2            90.077766    
     43200   0.21258517     0.00090252795  0.00090252795  0              0              837.89706      1070.2623      605.35364      0             -627.55863      0              0              9.2277094      9.7561573      0.2            90.026984    
     43300   0.17654125     0.0011449291   0.0011449291   0              0             -125.05949      192.66333     -442.96454      0             -1072.8045      0              0              9.2267451      9.7496754      0.2            89.95777     
     43400   0.18884722     0.0010884826   0.0010884826   0              0              46.244191      810.85698     -718.55382      0             -303.00999      0              0              9.2257809      9.7551238      0.2            89.998635    
     43500   0.19738108     0.00089140744  0.00089140744  0              0              407.50074      807.15233      7.6364385      0             -714.73319      0              0              9.2248167      9.7527912      0.2            89.967711    
     43600   0.16545506     0.00090770798  0.00090770798  0              0              824.00979      1009.6219      638.21422      0             -384.14373      0              0              9.2238524      9.7510442      0.2            89.942193    
     43700   0.19707039     0.0011404618   0.0011404618   0              0              212.77951      314.86482      110.48032      0             -653.34691      0              0              9.2228882      9.7517894      0.2            89.939663    
     43800   0.21945099     0.0011579244   0.0011579244   0              0             -58.040369      349.44583     -465.75508      0             -41.375028      0              0              9.221924       9.7584313      0.2            89.991511    
     43900   0.24416492     0.0010360836   0.0010360836   0              0              416.04683      1038.7371     -206.83008      0             -857.49265      0              0              9.2209598      9.7530969      0.2            89.932914    
     44000   0.19707236     0.0011164675   0.0011164675   0              0              108.09152     -124.43802      340.42664      0             -543.63821      0              0              9.2199955      9.7507089      0.2            89.901493    
     44100   0.17729086     0.0011531695   0.0011531695   0              0              379.3474       528.97668      229.50986      0             -163.37503      0              0              9.2190313      9.7517992      0.2            89.902142    
     44200   0.17696435     0.0013099296   0.0013099296   0              0              421.15069      1011.4208     -169.36411      0             -968.52232      0              0              9.2180671      9.7542353      0.2            89.915195    
     44300   0.15368881     0.0010753983   0.0010753983   0              0             -178.95494     -45.187337     -312.90076      0             -188.4252       0              0              9.2171028      9.7577101      0.2            89.937817    
     44400   0.18321757     0.0014166641   0.0014166641   0              0             -60.501885     -287.98635      166.81466      0             -681.80972      0              0              9.2161386      9.7554073      0.2            89.907186    
     44500   0.1950071      0.0013103194   0.0013103194   0              0              651.60168      761.00153      541.97983      0              546.02744      0              0              9.2151744      9.7571157      0.2            89.913522    
     44600   0.18845417     0.0012327723   0.0012327723   0              0              234.24068      648.06432     -179.75832      0              494.22338      0              0              9.2142101      9.7567752      0.2            89.900977    
     44700   0.20069051     0.0011402154   0.0011402154   0              0             -768.6533      -852.46019     -685.06372      0             -484.07207      0              0              9.2132459      9.7556909      0.2            89.881579    
     44800   0.19946802     0.0013094399   0.0013094399   0              0              211.38581      518.58271     -96.050785      0              526.78947      0              0              9.2122817      9.7537804      0.2            89.854572    
     44900   0.23981645     0.00099928106  0.00099928106  0              0              739.73048      806.64906      672.61356      0             -40.72767       0              0              9.2113174      9.7567541      0.2            89.87256     
     45000   0.17273706     0.0011945271   0.0011945271   0              0              978.73376      1746.068       211.2167       0              588.49333      0              0              9.2103532      9.7524253      0.2            89.823282    
     45100   0.27720111     0.00094359327  0.00094359327  0              0             -133.58886      381.52337     -648.88215      0             -64.872469      0              0              9.209389       9.7615885      0.2            89.898266    
     45200   0.20192722     0.0010709953   0.0010709953   0              0             -108.72242     -12.561522     -205.12338      0              466.43876      0              0              9.2084248      9.7503259      0.2            89.785143    
     45300   0.1950967      0.0010472897   0.0010472897   0              0              274.46994     -263.21248      811.93875      0             -241.37104      0              0              9.2074605      9.7451964      0.2            89.728512    
     45400   0.21007924     0.0009549241   0.0009549241   0              0              398.20466      470.93363      325.24361      0              198.44637      0              0              9.2064963      9.7499004      0.2            89.762422    
     45500   0.20985149     0.0012306737   0.0012306737   0              0             -206.35393      290.84249     -703.75527      0              244.77103      0              0              9.2055321      9.7564866      0.2            89.81365     
     45600   0.19892205     0.0012014035   0.0012014035   0              0             -434.13644     -362.75471     -505.72063      0             -511.43928      0              0              9.2045678      9.7508886      0.2            89.752715    
     45700   0.19963479     0.0012495818   0.0012495818   0              0              352.52332      76.937694      627.90238      0             -182.5955       0              0              9.2036036      9.7467343      0.2            89.705079    
     45800   0.2609771      0.0011908572   0.0011908572   0              0              1181.9121      1661.2125      702.39234      0             -51.258911      0              0              9.2026394      9.7458403      0.2            89.687453    
     45900   0.18487203     0.0012403469   0.0012403469   0              0              77.449663      736.24072     -581.56216      0             -452.2012       0              0              9.2016751      9.7506005      0.2            89.721858    
     46000   0.24090789     0.0010594875   0.0010594875   0              0             -416.38257      14.874777     -847.85976      0              309.92535      0              0              9.2007109      9.7584068      0.2            89.784279    
     46100   0.16316748     0.0011967431   0.0011967431   0              0              595.47525      908.90983      281.82922      0              526.12842      0              0              9.1997467      9.7588124      0.2            89.778602    
     46200   0.19434654     0.0012239376   0.0012239376   0              0              692.23857      512.18241      872.09086      0              321.43426      0              0              9.1987824      9.7569905      0.2            89.752433    
     46300   0.23079525     0.0010776458   0.0010776458   0              0              104.51311      355.63782     -146.79911      0              43.145537      0              0              9.1978182      9.7529463      0.2            89.705827    
     46400   0.16082888     0.0013473787   0.0013473787   0              0             -471.57845     -72.785839     -870.57599      0             -450.65332      0              0              9.196854       9.7590413      0.2            89.752478    
     46500   0.17777362     0.001064024    0.001064024    0              0              95.557902      298.0074      -107.09787      0             -37.892423      0              0              9.1958898      9.7593407      0.2            89.745821    
     46600   0.23946231     0.0012164014   0.0012164014   0              0              396.10837     -68.142779      860.15163      0              167.07417      0              0              9.1949255      9.7532472      0.2            89.680382    
     46700   0.26648603     0.0011363737   0.0011363737   0              0              517.87447      822.41567      213.09499      0              599.87062      0              0              9.1939613      9.7618048      0.2            89.749656    
     46800   0.22699515     0.0012173858   0.0012173858   0              0              3.6919175      773.73727     -766.56274      0              813.13875      0              0              9.1929971      9.7632307      0.2            89.753351    
     46900   0.23379764     0.0010351293   0.0010351293   0              0              101.15869      401.32893     -199.22288      0             -317.30322      0              0              9.1920328      9.7586124      0.2            89.701486    
     47000   0.21155122     0.0010705623   0.0010705623   0              0             -22.190705     -730.66156      686.10098      0             -63.224586      0              0              9.1910686      9.7597423      0.2            89.702461    
     47100   0.17137687     0.0013804395   0.0013804395   0              0              22.389977     -154.58993      199.16116      0             -115.26671      0              0              9.1901044      9.7552765      0.2            89.652009    
     47200   0.19561442     0.0012019667   0.0012019667   0              0             -344.94198     -12.77691      -677.25698      0             -74.605536      0              0              9.1891401      9.764058       0.2            89.723297    
     47300   0.22369699     0.0010428038   0.0010428038   0              0             -220.92277     -245.07997     -196.97626      0              247.47928      0              0              9.1881759      9.7618605      0.2            89.693691    
     47400   0.20399289     0.0011126805   0.0011126805   0              0              297.8635      -44.914761      640.45413      0             -483.33175      0              0              9.1872117      9.7561779      0.2            89.632071    
     47500   0.18309431     0.0011637626   0.0011637626   0              0              218.76277      240.74834      196.57106      0             -429.21852      0              0              9.1862474      9.7615871      0.2            89.672354    
     47600   0.17498166     0.00121333     0.00121333     0              0              505.29216      1469.6411     -459.27834      0              187.94426      0              0              9.1852832      9.7697642      0.2            89.738051    
     47700   0.22194543     0.0010655863   0.0010655863   0              0              51.272824      325.42841     -223.10621      0             -728.28461      0              0              9.184319       9.7735268      0.2            89.763188    
     47800   0.22613226     0.0011889645   0.0011889645   0              0              596.22297      781.7236       410.51317      0             -783.18553      0              0              9.1833547      9.7625295      0.2            89.652772    
     47900   0.19887338     0.0011260403   0.0011260403   0              0              186.75396     -16.881253      390.15169      0              166.94854      0              0              9.1823905      9.7631673      0.2            89.649215    
     48000   0.20948104     0.0010109528   0.0010109528   0              0             -676.79986     -940.84601     -412.95372      0              269.58946      0              0              9.1814263      9.7635071      0.2            89.642921    
     48100   0.15557006     0.00097825707  0.00097825707  0              0              99.768846      562.4953      -363.14512      0             -17.807641      0              0              9.1804621      9.7654835      0.2            89.651651    
     48200   0.18994064     0.0012724574   0.0012724574   0              0             -2.9601336     -433.97588      427.82795      0              194.24448      0              0              9.1794978      9.7626183      0.2            89.615933    
     48300   0.24073085     0.0011817091   0.0011817091   0              0              357.47901      380.53336      334.22297      0             -483.12142      0              0              9.1785336      9.7629884      0.2            89.609917    
     48400   0.21822757     0.0010940367   0.0010940367   0              0             -386.88085     -330.1911      -443.79498      0             -704.5879       0              0              9.1775694      9.7637794      0.2            89.607763    
     48500   0.19344489     0.0011909847   0.0011909847   0              0              851.8642       2059.0319     -355.4762       0             -502.17765      0              0              9.1766051      9.7605437      0.2            89.568655    
     48600   0.2038696      0.0011690385   0.0011690385   0              0              889.82867      1338.1499      441.27302      0              526.74425      0              0              9.1756409      9.7614209      0.2            89.567293    
     48700   0.21111039     0.0011461403   0.0011461403   0              0              322.62035      104.18721      540.85301      0             -625.65355      0              0              9.1746767      9.7554246      0.2            89.502867    
     48800   0.18464791     0.0012227269   0.0012227269   0              0             -408.50675     -372.84442     -444.36597      0              367.62429      0              0              9.1737124      9.7505866      0.2            89.449078    
     48900   0.21016834     0.0012113046   0.0012113046   0              0             -679.39338     -893.31428     -465.64773      0             -783.40918      0              0              9.1727482      9.7569545      0.2            89.498087    
     49000   0.20065417     0.00099620647  0.00099620647  0              0              313.00154      165.51295      460.27782      0              778.72474      0              0              9.171784       9.751939       0.2            89.442678    
     49100   0.26646471     0.0010007799   0.0010007799   0              0              565.02825      689.53305      440.2846       0              19.052271      0              0              9.1708197      9.7484763      0.2            89.401519    
     49200   0.21303828     0.0013992766   0.0013992766   0              0              123.84167      621.30944     -373.82115      0              741.34493      0              0              9.1698555      9.7522832      0.2            89.427028    
     49300   0.19473078     0.00096480562  0.00096480562  0              0             -647.64531     -738.3801      -557.13562      0              35.241204      0              0              9.1688913      9.7498106      0.2            89.394954    
     49400   0.21466752     0.001048174    0.001048174    0              0              67.102815     -118.28195      252.28191      0             -682.77443      0              0              9.1679271      9.750151       0.2            89.388673    
     49500   0.19888466     0.00083938584  0.00083938584  0              0              1019.31        1370.7155      667.6722       0             -289.06949      0              0              9.1669628      9.7558958      0.2            89.431934    
     49600   0.18689783     0.0010101034   0.0010101034   0              0             -69.352276      182.04002     -320.94183      0             -211.82013      0              0              9.1659986      9.7602623      0.2            89.462551    
     49700   0.18808482     0.0010545678   0.0010545678   0              0             -179.89781      168.48148     -528.48338      0              327.55768      0              0              9.1650344      9.7542755      0.2            89.39827     
     49800   0.20742708     0.00098696924  0.00098696924  0              0              147.06641     -7.0758972      301.04152      0              299.68273      0              0              9.1640701      9.7591338      0.2            89.433387    
     49900   0.20562164     0.0013002203   0.0013002203   0              0              567.55123      483.86966      651.02258      0              259.88432      0              0              9.1631059      9.7563139      0.2            89.398137    
     50000   0.20880238     0.0012888196   0.0012888196   0              0              817.0804       1920.4195     -286.46043      0             -541.86339      0              0              9.1621417      9.7623113      0.2            89.443679    
     50100   0.18433683     0.00096081198  0.00096081198  0              0              296.96185      1264.2108     -670.51269      0              15.979157      0              0              9.1611774      9.7661899      0.2            89.469798    
     50200   0.22231377     0.00091074448  0.00091074448  0              0              151.02568     -75.001143      376.85592      0             -843.18806      0              0              9.1602132      9.7558677      0.2            89.365828    
     50202   0.21564612     0.00090245905  0.00090245905  0              0              394.99818      13.011958      776.81565      0             -847.4859       0              0              9.1601939      9.7539367      0.2            89.347952    
Loop time of 1.19082 on 1 procs for 50000 steps with 66 atoms

Performance: 36277.467 ns/day, 0.001 hours/ns, 41987.809 timesteps/s
99.0% CPU use with 1 MPI tasks x 1 OpenMP threads

MPI task timing breakdown:
Section |  min time  |  avg time  |  max time  |%varavg| %total
---------------------------------------------------------------
Pair    | 0          | 0          | 0          |   0.0 |  0.00
Bond    | 0.17584    | 0.17584    | 0.17584    |   0.0 | 14.77
Neigh   | 0          | 0          | 0          |   0.0 |  0.00
Comm    | 0.40677    | 0.40677    | 0.40677    |   0.0 | 34.16
Output  | 0.0071967  | 0.0071967  | 0.0071967  |   0.0 |  0.60
Modify  | 0.57259    | 0.57259    | 0.57259    |   0.0 | 48.08
Other   |            | 0.02843    |            |       |  2.39

Nlocal:             66 ave          66 max          66 min
Histogram: 1 0 0 0 0 0 0 0 0 0
Nghost:            567 ave         567 max         567 min
Histogram: 1 0 0 0 0 0 0 0 0 0
Neighs:              0 ave           0 max           0 min
Histogram: 1 0 0 0 0 0 0 0 0 0

Total # of neighbors = 0
Ave neighs/atom = 0
Ave special neighs/atom = 23.424242
Neighbor list builds = 0
Dangerous builds = 0


Total wall time: 0:00:01
