LAMMPS data file.

     66 atoms
    146 bonds
      0 angles
      0 dihedrals
      0 impropers
      1 atom types
    146 bond types
      0 angle types
      0 dihedral types
      0 improper types
  -4.821155   4.821155 xlo xhi
  -4.821155   4.821155 ylo yhi
  -0.100000   0.100000 zlo zhi

Masses # ['atom_id', 'mass']

1 10000.0

Atoms # ['atomID', 'moleculeID', 'atomType', 'charge', 'x', 'y', 'z']

      2      1      1   0.000000  -3.532197  -4.262812   0.000000
     68      1      1   0.000000  -0.213279  -4.125894   0.000000
     77      1      1   0.000000   0.343117  -4.276172   0.000000
     62      1      1   0.000000   0.709997  -4.728814   0.000000
     12      1      1   0.000000   1.720644  -4.038121   0.000000
     29      1      1   0.000000   3.338119  -4.580466   0.000000
     48      1      1   0.000000   4.478957  -4.126189   0.000000
     24      1      1   0.000000  -4.492521  -3.293544   0.000000
     28      1      1   0.000000  -2.999644  -3.175556   0.000000
     30      1      1   0.000000  -3.934824  -2.321202   0.000000
     78      1      1   0.000000  -2.123105  -3.134844   0.000000
     66      1      1   0.000000  -1.595056  -2.683606   0.000000
      7      1      1   0.000000  -1.069118  -3.456405   0.000000
     15      1      1   0.000000   0.486720  -3.213312   0.000000
     51      1      1   0.000000   2.879208  -3.622241   0.000000
     26      1      1   0.000000   3.941183  -3.219983   0.000000
     43      1      1   0.000000  -4.536939  -1.630031   0.000000
     18      1      1   0.000000  -2.484100  -2.088386   0.000000
     71      1      1   0.000000  -1.128969  -2.300243   0.000000
     54      1      1   0.000000  -0.424781  -2.067481   0.000000
     20      1      1   0.000000   0.848355  -1.795447   0.000000
     32      1      1   0.000000   2.784041  -2.638059   0.000000
      9      1      1   0.000000   3.959004  -1.824990   0.000000
     75      1      1   0.000000   4.776869  -2.490737   0.000000
     11      1      1   0.000000   4.651510  -0.538030   0.000000
      3      1      1   0.000000  -3.493370  -1.053646   0.000000
     47      1      1   0.000000  -2.370621  -0.968395   0.000000
     39      1      1   0.000000  -1.322325  -1.421691   0.000000
     63      1      1   0.000000   0.459129  -0.697115   0.000000
     60      1      1   0.000000   1.634505  -1.100174   0.000000
     37      1      1   0.000000   2.738603  -1.379303   0.000000
      6      1      1   0.000000  -3.337931   0.531884   0.000000
     35      1      1   0.000000  -2.043381  -0.043171   0.000000
     25      1      1   0.000000  -0.797602  -0.183186   0.000000
     45      1      1   0.000000  -0.211465  -1.140542   0.000000
     59      1      1   0.000000   1.138734  -0.288955   0.000000
     31      1      1   0.000000   2.123283  -0.282233   0.000000
     36      1      1   0.000000   3.220896   0.078919   0.000000
     76      1      1   0.000000   4.047582   0.377847   0.000000
     17      1      1   0.000000  -1.361970   1.068955   0.000000
     56      1      1   0.000000   0.129924   0.020150   0.000000
     34      1      1   0.000000   0.707229   0.937047   0.000000
     21      1      1   0.000000   1.917823   0.750280   0.000000
     16      1      1   0.000000   3.335021   1.450048   0.000000
     58      1      1   0.000000   4.522967   1.047378   0.000000
      4      1      1   0.000000  -2.528941   1.886939   0.000000
     27      1      1   0.000000  -1.241809   2.451372   0.000000
     23      1      1   0.000000  -0.281433   1.757495   0.000000
     19      1      1   0.000000   2.066177   2.058888   0.000000
     74      1      1   0.000000   3.614828   2.529455   0.000000
      8      1      1   0.000000   4.796388   2.268048   0.000000
     13      1      1   0.000000  -2.662485   3.273960   0.000000
     38      1      1   0.000000  -1.132703   3.566348   0.000000
     10      1      1   0.000000   0.100490   3.033678   0.000000
     14      1      1   0.000000   1.767176   3.569546   0.000000
     42      1      1   0.000000   2.885690   2.902141   0.000000
     52      1      1   0.000000   3.864434   3.090042   0.000000
     80      1      1   0.000000   4.587484   3.395183   0.000000
      5      1      1   0.000000  -4.145364   3.851610   0.000000
     50      1      1   0.000000  -2.986778   4.423997   0.000000
     33      1      1   0.000000  -1.997037   4.387813   0.000000
      1      1      1   0.000000  -0.320637   4.551141   0.000000
     55      1      1   0.000000   0.619252   4.115363   0.000000
     57      1      1   0.000000   2.460698   4.554987   0.000000
     40      1      1   0.000000   3.277611   3.882117   0.000000
     22      1      1   0.000000   4.280118   4.482349   0.000000

Bond Coeffs # ['bondID', 'bondCoeff', 'd']

      1   1.294049   0.879072
      2   0.703295   1.192425
      3   0.498369   1.416526
      4   0.766635   1.142104
      5   0.902286   1.052756
      6   0.532339   1.370584
      7   0.532339   1.370584
      8   0.973926   1.013298
      9   1.817987   0.741660
     10   0.760991   1.146331
     11   0.817909   1.105726
     12   0.636307   1.253623
     13   0.902347   1.052721
     14   0.973926   1.013298
     15   0.902347   1.052721
     16   2.072754   0.694586
     17   0.732440   1.168460
     18   1.019475   0.990402
     19   0.830869   1.097068
     20   0.506254   1.405451
     21   0.682063   1.210843
     22   0.682063   1.210843
     23   0.421676   1.539964
     24   1.591196   0.792754
     25   0.504884   1.407356
     26   0.453952   1.484210
     27   0.576547   1.316991
     28   1.483101   0.821135
     29   0.826129   1.100211
     30   0.826129   1.100211
     31   0.666480   1.224916
     32   1.605533   0.789206
     33   0.605845   1.284752
     34   0.647580   1.242663
     35   0.795877   1.120926
     36   0.931711   1.035999
     37   0.639062   1.250917
     38   0.682250   1.210677
     39   0.703603   1.192164
     40   0.630306   1.259576
     41   0.793596   1.122536
     42   0.403219   1.574814
     43   0.609144   1.281268
     44   1.549783   0.803276
     45   1.549783   0.803276
     46   0.515023   1.393435
     47   0.897702   1.055441
     48   0.594004   1.297494
     49   0.899181   1.054572
     50   0.723234   1.175873
     51   0.712359   1.184815
     52   0.788748   1.125981
     53   1.029077   0.985771
     54   0.635583   1.254336
     55   0.796766   1.120301
     56   0.613773   1.276428
     57   1.038285   0.981390
     58   0.688674   1.205017
     59   1.547214   0.803942
     60   0.489808   1.428852
     61   1.101404   0.952854
     62   1.235727   0.899578
     63   1.022838   0.988773
     64   0.519341   1.387630
     65   0.592412   1.299236
     66   1.276210   0.885195
     67   1.276210   0.885195
     68   0.874651   1.069258
     69   0.874651   1.069258
     70   0.401503   1.578176
     71   0.659966   1.230946
     72   0.478626   1.445445
     73   0.905148   1.051091
     74   0.905148   1.051091
     75   0.492388   1.425103
     76   0.690740   1.203214
     77   1.006800   0.996617
     78   0.596085   1.295227
     79   1.060126   0.971228
     80   1.190109   0.916656
     81   0.837865   1.092479
     82   1.060126   0.971228
     83   0.837865   1.092479
     84   0.846974   1.086588
     85   0.468202   1.461448
     86   0.513789   1.395107
     87   0.771042   1.138836
     88   0.789105   1.125726
     89   0.623253   1.266682
     90   0.869344   1.072517
     91   0.530119   1.373452
     92   1.109077   0.949553
     93   0.885902   1.062447
     94   0.694852   1.199648
     95   0.716631   1.181278
     96   0.823526   1.101948
     97   0.715074   1.182564
     98   0.715074   1.182564
     99   0.716631   1.181278
    100   0.394849   1.591418
    101   0.892776   1.058348
    102   1.298738   0.877484
    103   2.745704   0.603494
    104   1.117580   0.945934
    105   1.117580   0.945934
    106   0.467045   1.463257
    107   2.945634   0.582654
    108   0.900567   1.053760
    109   1.623607   0.784801
    110   0.907905   1.049494
    111   0.587839   1.304279
    112   0.644282   1.245840
    113   1.031585   0.984572
    114   0.554170   1.343317
    115   0.739553   1.162828
    116   0.739553   1.162828
    117   0.873602   1.069900
    118   0.528256   1.375871
    119   0.563536   1.332107
    120   0.965767   1.017569
    121   0.965767   1.017569
    122   0.394001   1.593131
    123   1.106360   0.950718
    124   2.655617   0.613645
    125   0.598820   1.292265
    126   1.144388   0.934788
    127   0.748960   1.155502
    128   3.010592   0.576334
    129   0.403271   1.574714
    130   0.775433   1.135607
    131   1.105316   0.951167
    132   0.700402   1.194886
    133   0.817543   1.105974
    134   0.817543   1.105974
    135   0.618947   1.271081
    136   0.761583   1.145886
    137   0.816066   1.106974
    138   0.557350   1.339479
    139   0.851803   1.083504
    140   0.537143   1.364442
    141   0.555068   1.342229
    142   0.606610   1.283942
    143   1.491342   0.818863
    144   0.632039   1.257848
    145   0.606610   1.283942
    146   0.804239   1.115084

Bonds # ['ID', 'type', 'atom1', 'atom2']

         1         1        36        76
         2         2        38        33
         3         3         6        35
         4         4        47        39
         5         5        31        21
         6         6         5        22
         7         7        22         5
         8         8        29        57
         9         9        71        54
        10        10         8        80
        11        11        54        39
        12        12        35        25
        13        13        48        22
        14        14        57        29
        15        15        22        48
        16        16        78        66
        17        17        40        22
        18        18        50        33
        19        19        11        76
        20        20         4        27
        21        21        24        26
        22        22        26        24
        23        23        19        14
        24        24        63        59
        25        25        16        19
        26        26        12        15
        27        27        21        19
        28        28        76        58
        29        29         2        50
        30        30        50         2
        31        31        34        21
        32        32        63        56
        33        33        34        23
        34        34         8        52
        35        35        24        30
        36        36         1        55
        37        37        58         8
        38        38         2        28
        39        39        43         3
        40        40        32        37
        41        41        25        45
        42        42        10         1
        43        43        17        23
        44        44        62        55
        45        45        55        62
        46        46         4        13
        47        47        42        40
        48        48        13        33
        49        49         9        75
        50        50        19        42
        51        51        27        23
        52        52         3        47
        53        53        52        40
        54        54        16        58
        55        55        27        38
        56        56        38         1
        57        57        47        35
        58        58        14        57
        59        59        63        45
        60        60        32         9
        61        61        60        31
        62        62        71        39
        63        63        51        32
        64        64        17        27
        65        65         9        37
        66        66        24        75
        67        67        75        24
        68        68        48        24
        69        69        24        48
        70        70         6         4
        71        71        12        51
        72        72        18         3
        73        73         1        77
        74        74        77         1
        75        75        17         4
        76        76        28        18
        77        77        42        52
        78        78        26        32
        79        79        68         1
        80        80        30        43
        81        81        62         1
        82        82         1        68
        83        83         1        62
        84        84        68         7
        85        85         9        11
        86        86        26         9
        87        87        60        37
        88        88        18        47
        89        89        28        30
        90        90        77        15
        91        91        25        17
        92        92        25        56
        93        93        29        51
        94        94        10        55
        95        95        29        40
        96        96        78         7
        97        97        43        11
        98        98        11        43
        99        99        40        29
       100       100        13         5
       101       101        57        40
       102       102        28        78
       103       103        66        71
       104       104        30        75
       105       105        75        30
       106       106        15        20
       107       107        77        62
       108       108        48        26
       109       109        52        80
       110       110        20        60
       111       111        35        17
       112       112        20        45
       113       113        59        31
       114       114        38        10
       115       115        43         9
       116       116         9        43
       117       117        66        18
       118       118        36        16
       119       119        23        10
       120       120        80         5
       121       121         5        80
       122       122         3         6
       123       123        60        59
       124       124        74        52
       125       125         5        50
       126       126        66         7
       127       127        31        36
       128       128        68        77
       129       129         7        15
       130       130        51        26
       131       131        54        45
       132       132        13        50
       133       133        29        22
       134       134        22        29
       135       135        14        55
       136       136        39        45
       137       137        78        18
       138       138        18        39
       139       139        56        34
       140       140         2        24
       141       141        30         3
       142       142        12        57
       143       143        74        42
       144       144        37        31
       145       145        57        12
       146       146        16        74
